G2DPncore-PETIM in water
79229
    1aaa     O1    1   0.235   8.433   1.428 -0.1863 -0.6546  0.6425
    1aaa     C1    2   0.134   8.537   1.404 -0.0742 -0.0433  0.5169
    1aaa     H1    3   0.033   8.494   1.417 -0.0841 -1.1914 -2.5640
    1aaa     H2    4   0.127   8.582   1.305 -0.4178  2.0087  1.4123
    1aaa     C2    5   0.232   8.328   1.328 -0.5490  0.5161  0.0484
    1aaa     H3    6   0.289   8.356   1.238 -1.2169  1.4440 -0.0999
    1aaa     H4    7   0.129   8.313   1.295 -0.0304  2.9820 -3.1427
    1aaa     C3    8   0.153   8.646   1.503  0.0935  0.6721 -0.6921
    1aaa     H5    9   0.136   8.608   1.605  3.0851  0.7874 -0.0514
    1aaa     H6   10   0.074   8.717   1.477 -0.4225  0.2174 -0.3980
    1aaa     C4   11   0.294   8.192   1.389  0.8587 -0.2196 -0.6524
    1aaa     H7   12   0.317   8.118   1.312 -0.4455 -0.7524 -0.5530
    1aaa     H8   13   0.218   8.152   1.458  2.1922 -0.0725  0.9700
    1aaa     C5   14   0.291   8.719   1.504 -0.3906  0.0928  0.1593
    1aaa     H9   15   0.365   8.644   1.531 -1.2694 -0.0323  2.4690
    1aaa    H10   16   0.302   8.750   1.400  0.8474  0.2581  0.3271
    1aaa     C6   17   0.432   8.217   1.453  0.2573 -0.8867  0.1675
    1aaa    H11   18   0.427   8.303   1.520  2.4847  0.3272 -1.1140
    1aaa    H12   19   0.499   8.242   1.371 -0.4151  1.7252  0.3369
    1aaa     N1   20   0.298   8.851   1.574 -1.0154 -0.1253  0.0356
    1aaa     N2   21   0.486   8.095   1.538 -0.2000  0.4888 -0.5671
    1aaa     C7   22   0.475   8.131   1.689  0.0050  0.0099  0.7912
    1aaa    H13   23   0.543   8.217   1.696 -0.0069  0.0320  0.6409
    1aaa    H14   24   0.371   8.156   1.713 -0.0500 -0.7719  1.4203
    1aaa     C8   25   0.635   8.078   1.513  0.4480  0.3690  0.3133
    1aaa    H15   26   0.674   8.179   1.526 -0.7086  1.0650 -1.3042
    1aaa    H16   27   0.664   8.022   1.602 -1.1288 -0.5947  0.2526
    1aaa     C9   28   0.322   8.825   1.719 -0.3540  0.1758 -0.2007
    1aaa    H17   29   0.266   8.736   1.749  1.8406 -0.3089  2.8546
    1aaa    H18   30   0.427   8.794   1.720 -0.3101  0.2452 -1.2056
    1aaa    C10   31   0.407   8.936   1.523 -0.5974  0.3768  0.1982
    1aaa    H19   32   0.431   9.000   1.608  0.6831 -0.8094  0.7783
    1aaa    H20   33   0.492   8.870   1.504  0.4000  0.5459  3.3936
    1aaa    C11   34   0.513   8.029   1.794  0.6933  1.1566  0.7430
    1aaa    H21   35   0.623   8.025   1.801  0.6766 -1.6262  0.5040
    1aaa    H22   36   0.484   8.067   1.892 -0.5436  0.3799  0.6998
    1aaa    C12   37   0.680   8.027   1.378 -0.0706  0.2910 -0.6358
    1aaa    H23   38   0.633   8.080   1.294  0.8593 -0.0194 -1.3735
    1aaa    H24   39   0.789   8.040   1.374  0.4102 -2.1860  1.6995
    1aaa    C13   40   0.292   8.947   1.809 -0.4313 -0.3908 -0.0948
    1aaa    H25   41   0.338   8.937   1.907 -0.6517  1.4005  0.2269
    1aaa    H26   42   0.340   9.034   1.763 -0.2536 -0.3822  0.1068
    1aaa    C14   43   0.382   9.018   1.396 -0.3810  0.0643  0.0400
    1aaa    H27   44   0.479   9.058   1.364  0.8288  0.1546  3.3901
    1aaa    H28   45   0.362   8.941   1.321  1.8755 -0.8608  0.3144
    1aaa    C15   46   0.274   9.130   1.421  0.2344 -0.3341  0.3557
    1aaa    H29   47   0.249   9.190   1.333  1.3870 -1.0032 -0.4491
    1aaa    H30   48   0.177   9.085   1.444 -0.8816  0.7247 -1.9951
    1aaa    C16   49   0.139   8.989   1.820  0.0326 -0.2357  0.2725
    1aaa    H31   50   0.092   9.017   1.725 -0.6591 -0.8208  0.4307
    1aaa    H32   51   0.087   8.898   1.855  2.4164 -2.0211 -0.5388
    1aaa    C17   52   0.646   7.877   1.366 -0.2030 -0.2083 -0.9174
    1aaa    H33   53   0.686   7.821   1.452 -0.2114  3.6667  1.8941
    1aaa    H34   54   0.539   7.859   1.355 -1.0082  2.1095  1.7965
    1aaa    C18   55   0.452   7.883   1.784  0.2404 -0.0448 -0.3861
    1aaa    H35   56   0.343   7.887   1.796  0.3134 -2.3861  1.9715
    1aaa    H36   57   0.479   7.844   1.686 -0.2240  0.1076 -0.5751
    1aaa    H38   58   0.211   8.905   1.564 -1.3204 -0.8584 -1.5671
    1aaa    H37   59   0.438   8.006   1.518  1.4186 -0.5133 -0.2472
    2bbb     N1   60   0.438   9.590   1.723  0.0203 -0.8339  0.1594
    2bbb     C1   61   0.345   9.708   1.762  0.2514  0.2956 -0.2495
    2bbb     H1   62   0.417   9.764   1.822  1.6583 -1.6690  0.0066
    2bbb     H2   63   0.257   9.676   1.818  1.0022 -0.9834  0.2391
    2bbb     C2   64   0.494   9.532   1.845 -0.6857  0.7212  0.3465
    2bbb     H3   65   0.538   9.437   1.814 -2.5784  0.0344 -0.3726
    2bbb     H4   66   0.412   9.523   1.916  0.4065  0.6260  1.6435
    2bbb     C3   67   0.351   9.502   1.635  0.0915  0.1802  0.0367
    2bbb     H5   68   0.422   9.450   1.570  0.6727 -1.1755  1.6906
    2bbb     H6   69   0.298   9.557   1.557 -0.3211  1.2860  1.0696
    2bbb     C4   70   0.261   9.387   1.699 -0.6627  0.3750 -0.5961
    2bbb     H7   71   0.177   9.425   1.759  0.4114 -0.5048  1.5681
    2bbb     H8   72   0.322   9.321   1.762  1.0335  1.3834 -1.1077
    2bbb     C5   73   0.288   9.792   1.645 -1.1415  1.0837 -0.7172
    2bbb     H9   74   0.225   9.733   1.578 -1.3836 -0.9510  1.2096
    2bbb    H10   75   0.363   9.824   1.570 -0.6462 -1.1104 -1.2377
    2bbb     C6   76   0.614   9.597   1.914 -0.1795  0.1593  0.5017
    2bbb    H11   77   0.600   9.705   1.927 -1.2589  0.2091 -0.9347
    2bbb    H12   78   0.700   9.581   1.848 -2.5160 -3.6875 -2.0511
    2bbb     C7   79   0.204   9.292   1.596  0.2406  0.3386 -0.3325
    2bbb    H13   80   0.175   9.360   1.514 -1.9288 -2.0542 -1.7123
    2bbb    H14   81   0.114   9.242   1.636 -0.2898 -0.2191 -2.1081
    2bbb     C8   82   0.654   9.539   2.047  0.4265  0.0505  0.5189
    2bbb    H15   83   0.665   9.430   2.038  0.4205 -0.0570  1.6231
    2bbb    H16   84   0.755   9.577   2.071 -0.0471  2.7738 -1.3313
    2bbb     C9   85   0.206   9.918   1.691 -0.4682  0.2505 -0.0208
    2bbb    H17   86   0.284   9.985   1.728 -0.9715  1.0801 -0.4455
    2bbb    H18   87   0.141   9.879   1.771 -0.9329 -0.8188 -0.8871
    2bbb     O1   88   0.312   9.205   1.539 -0.1111  0.6586  0.4279
    2bbb    H19   89   0.523   9.626   1.676 -0.2075  0.2287  0.5582
    3bbb     N1   90   0.040   9.177   2.344 -0.0824 -0.4533 -0.1286
    3bbb     C1   91  -0.106   9.205   2.387  0.2886 -0.2819 -0.2367
    3bbb     H1   92  -0.141   9.286   2.322  0.3410 -1.7312 -2.1607
    3bbb     H2   93  -0.101   9.231   2.492  1.6325 -0.0537 -0.3396
    3bbb     C2   94   0.107   9.086   2.446  0.2291 -0.6172 -0.2221
    3bbb     H3   95   0.062   8.987   2.440  0.1275 -0.4651 -2.6685
    3bbb     H4   96   0.081   9.128   2.544 -2.5171 -0.7983 -0.7982
    3bbb     C3   97   0.040   9.121   2.207  0.6504  0.8329  0.3163
    3bbb     H5   98  -0.016   9.028   2.200  4.2803 -1.4056 -1.5028
    3bbb     H6   99   0.140   9.090   2.178 -0.4119 -0.1208 -2.5835
    3bbb     C4  100   0.000   9.217   2.093 -0.2580  0.1321 -0.0434
    3bbb     H7  101   0.065   9.305   2.105 -2.9846  2.2565  0.2274
    3bbb     H8  102  -0.103   9.255   2.101 -0.2016  0.5862 -1.1755
    3bbb     C5  103  -0.206   9.090   2.367 -0.0844 -0.0141 -0.0571
    3bbb     H9  104  -0.154   8.993   2.377  0.4706  0.4141  1.5064
    3bbb    H10  105  -0.246   9.089   2.265 -0.0335  1.3422 -0.1011
    3bbb     C6  106   0.260   9.060   2.419  0.0600  0.0745  0.4212
    3bbb    H11  107   0.315   9.155   2.414 -0.4294  0.3278 -0.2285
    3bbb    H12  108   0.286   9.015   2.322 -0.0518 -1.8517  1.2432
    3bbb     C7  109   0.010   9.150   1.956  0.3156  0.5930  0.2729
    3bbb    H13  110  -0.018   9.221   1.877 -2.6453  0.5201  1.1326
    3bbb    H14  111  -0.073   9.078   1.943  0.0018  1.1015 -0.6025
    3bbb     C8  112   0.321   8.977   2.533 -0.1271  0.1276 -0.9081
    3bbb    H15  113   0.427   8.954   2.511 -0.2388 -1.4551  0.0554
    3bbb    H16  114   0.328   9.047   2.617  2.9251 -0.6390 -0.3654
    3bbb     C9  115  -0.323   9.107   2.466  0.5424  0.5637  0.0431
    3bbb    H17  116  -0.282   9.084   2.565  2.7859  2.0471 -0.4701
    3bbb    H18  117  -0.403   9.034   2.447 -0.8158  1.4928  1.9266
    3bbb     O1  118   0.139   9.084   1.931  0.2437  0.3658 -0.3462
    3bbb    H19  119   0.101   9.260   2.336 -0.5286 -0.1026  0.0997
    4bbb     N1  120   0.901   7.634   0.876  0.3034  0.0540 -0.3992
    4bbb     C1  121   0.822   7.555   0.774 -0.1998 -0.5839 -0.5020
    4bbb     H1  122   0.769   7.628   0.713  0.3886 -0.9040 -1.4152
    4bbb     H2  123   0.749   7.499   0.833  1.0284 -0.5182  1.1466
    4bbb     C2  124   0.988   7.731   0.803  0.2352 -0.1958  0.0024
    4bbb     H3  125   0.929   7.817   0.773  0.6908  0.0420 -0.2207
    4bbb     H4  126   1.034   7.688   0.713  0.2623 -1.6122  0.6568
    4bbb     C3  127   0.803   7.712   0.966 -0.0135  1.1977 -0.2727
    4bbb     H5  128   0.715   7.739   0.907  0.1148 -1.7879 -2.0287
    4bbb     H6  129   0.870   7.792   0.998 -0.3627  1.7983 -1.0045
    4bbb     C4  130   0.766   7.635   1.098 -0.2892  0.2023  0.4490
    4bbb     H7  131   0.856   7.611   1.157 -0.3768  2.1304  1.4372
    4bbb     H8  132   0.725   7.537   1.069  1.5898 -0.1398 -1.2486
    4bbb     C5  133   0.913   7.461   0.692 -0.0463 -0.1269 -0.4111
    4bbb     H9  134   0.944   7.386   0.767 -1.5080  2.0016  2.5217
    4bbb    H10  135   1.005   7.511   0.659  1.3109 -2.5452 -0.5860
    4bbb     C6  136   1.106   7.769   0.892  0.1058 -0.0910  0.3788
    4bbb    H11  137   1.167   7.681   0.913 -0.3870 -0.4505  0.3183
    4bbb    H12  138   1.074   7.807   0.989 -0.2195 -0.1606  0.2995
    4bbb     C7  139   0.662   7.707   1.193  0.9062  0.1292 -0.1592
    4bbb    H13  140   0.644   7.644   1.280 -0.3126 -0.2427 -0.6534
    4bbb    H14  141   0.563   7.724   1.149 -0.3573 -3.3648  1.0604
    4bbb     C8  142   1.202   7.853   0.800 -0.1769 -0.1359 -0.4501
    4bbb    H15  143   1.284   7.876   0.869  0.0295 -0.7086 -0.5023
    4bbb    H16  144   1.247   7.793   0.719 -0.7803 -1.9229  0.4900
    4bbb     C9  145   0.854   7.392   0.566  0.6387  0.0160 -0.5589
    4bbb    H17  146   0.770   7.329   0.598  1.6738 -0.3582  1.5867
    4bbb    H18  147   0.931   7.335   0.513  0.3385  1.6267 -2.8493
    4bbb     O1  148   0.706   7.837   1.240 -0.6924 -0.0045 -0.5522
    4bbb    H19  149   0.963   7.572   0.931 -0.0230  0.8820  0.9470
    5bbb     N1  150   0.634   7.395   2.017 -0.2639  0.2683  0.4405
    5bbb     C1  151   0.508   7.320   2.000  0.8607 -0.1437  0.9702
    5bbb     H1  152   0.515   7.215   2.029 -0.2955 -0.5061  0.0037
    5bbb     H2  153   0.483   7.322   1.894 -0.8148 -0.1483  1.3392
    5bbb     C2  154   0.738   7.303   1.958 -0.1475 -1.3153  0.1633
    5bbb     H3  155   0.716   7.297   1.851  0.4295 -0.3799 -0.0213
    5bbb     H4  156   0.725   7.199   1.989  2.6008 -1.7372  0.0925
    5bbb     C3  157   0.627   7.521   1.931 -0.1713 -0.0168  0.3549
    5bbb     H5  158   0.525   7.540   1.896 -0.7822 -3.3518  0.0225
    5bbb     H6  159   0.670   7.504   1.832 -1.6897  0.5176 -0.4263
    5bbb     C4  160   0.681   7.656   1.991 -0.1241  0.3708  0.0527
    5bbb     H7  161   0.789   7.641   1.992 -0.0418  0.9728  1.0934
    5bbb     H8  162   0.651   7.677   2.094 -0.0633  0.8130 -0.0155
    5bbb     C5  163   0.397   7.372   2.092 -0.6002  0.5092 -0.1962
    5bbb     H9  164   0.404   7.481   2.081 -0.1840  0.4073 -1.1010
    5bbb    H10  165   0.423   7.349   2.196  2.7387  1.5257 -0.6749
    5bbb     C6  166   0.888   7.341   1.972 -0.4381 -0.0919  0.1374
    5bbb    H11  167   0.917   7.370   2.074  2.9585 -2.9424  0.1813
    5bbb    H12  168   0.914   7.419   1.900 -0.8935 -0.8554 -0.8886
    5bbb     C7  169   0.649   7.768   1.889  0.0734 -0.7098  0.1145
    5bbb    H13  170   0.676   7.728   1.790  1.7907  1.2988 -0.2857
    5bbb    H14  171   0.709   7.856   1.914  1.5544 -1.7128  0.2221
    5bbb     C8  172   0.979   7.224   1.931  0.2346 -0.4319 -0.7495
    5bbb    H15  173   0.920   7.135   1.959  2.4370 -1.8044 -0.1918
    5bbb    H16  174   0.994   7.212   1.823  0.8477 -0.9420 -0.6197
    5bbb     C9  175   0.262   7.321   2.061  0.1125  0.7985  0.0890
    5bbb    H17  176   0.244   7.326   1.953  2.5272  0.4135 -0.3897
    5bbb    H18  177   0.182   7.376   2.112  0.0278  0.5741  0.1989
    5bbb     O1  178   0.508   7.804   1.895 -0.0495  0.9163  0.0508
    5bbb    H19  179   0.656   7.414   2.116 -2.3225  3.3430  0.4508
    6bbb     N1  180   0.541   9.847   2.431 -1.0814  0.1735  0.3313
    6bbb     C1  181   0.633   9.885   2.319 -0.9646 -0.3030 -0.2273
    6bbb     H1  182   0.591   9.972   2.269 -1.4694 -0.6994 -0.5107
    6bbb     H2  183   0.641   9.802   2.249  0.6369  0.5182 -1.0510
    6bbb     C2  184   0.485   9.980   2.483 -0.0952  0.3285  0.4770
    6bbb     H3  185   0.573  10.041   2.503 -0.1725  0.6557 -0.1873
    6bbb     H4  186   0.447   9.948   2.581 -4.3145 -0.8699 -1.3126
    6bbb     C3  187   0.430   9.746   2.388 -0.1498 -0.7030 -0.6842
    6bbb     H5  188   0.406   9.785   2.289 -1.2321  1.9821  0.5267
    6bbb     H6  189   0.346   9.763   2.456 -0.7297 -0.2149 -1.5038
    6bbb     C4  190   0.481   9.595   2.391 -0.4650 -0.6095 -0.5278
    6bbb     H7  191   0.397   9.525   2.384 -0.4997 -0.5417 -0.8113
    6bbb     H8  192   0.521   9.572   2.490  0.2305 -1.9200 -1.0810
    6bbb     C5  193   0.784   9.924   2.354  1.1785  0.0220 -0.7674
    6bbb     H9  194   0.789  10.023   2.402 -1.0151  0.9484 -2.3041
    6bbb    H10  195   0.833   9.931   2.256 -1.1300 -0.7148 -2.0562
    6bbb     C6  196   0.390  10.074   2.413  0.0409 -0.3843 -0.3225
    6bbb    H11  197   0.294  10.025   2.390 -0.4282  0.2210  0.3374
    6bbb    H12  198   0.434  10.119   2.323  0.9824  2.0441  1.2663
    6bbb     C7  199   0.600   9.555   2.284 -0.5085 -0.2050 -0.6991
    6bbb    H13  200   0.631   9.451   2.302  2.1117  0.4691 -0.9137
    6bbb    H14  201   0.686   9.620   2.299 -0.6317  0.0851 -1.2304
    6bbb     C8  202   0.360  10.200   2.484 -0.6747 -0.3137 -0.0229
    6bbb    H15  203   0.329  10.279   2.414 -1.1363  2.4461  3.0334
    6bbb    H16  204   0.300  10.189   2.575  1.8604  2.7415  2.2874
    6bbb     C9  205   0.849   9.821   2.450  0.7580 -0.7088  0.0869
    6bbb    H17  206   0.955   9.849   2.457  0.4340  1.5590 -2.4456
    6bbb    H18  207   0.852   9.721   2.406 -0.2662 -0.5543 -0.3799
    6bbb     O1  208   0.557   9.576   2.144 -0.3554  0.6756 -0.1175
    6bbb    H19  209   0.601   9.803   2.502 -2.2312  0.0297  1.2275
    7bbb     N1  210   0.156  10.243   1.420 -0.1978  0.3085 -0.3824
    7bbb     C1  211   0.155  10.264   1.272  0.3412  0.1971  0.0746
    7bbb     H1  212   0.115  10.362   1.247  2.0366  0.9697  0.2306
    7bbb     H2  213   0.083  10.189   1.237 -0.5667  0.8059  0.5869
    7bbb     C2  214   0.232  10.356   1.491  0.0752 -0.3495  0.1028
    7bbb     H3  215   0.161  10.438   1.485  1.6233  0.9259 -1.9318
    7bbb     H4  216   0.325  10.379   1.440 -0.2586 -1.2277 -0.9654
    7bbb     C3  217   0.016  10.242   1.477  0.9737  0.0794 -0.5744
    7bbb     H5  218  -0.046  10.297   1.406  0.3397 -0.8797 -0.7882
    7bbb     H6  219   0.010  10.299   1.569 -3.8774 -0.8032 -0.0819
    7bbb     C4  220  -0.047  10.102   1.489  0.6752 -0.2047 -0.5350
    7bbb     H7  221  -0.037  10.050   1.393  2.5716  0.2519 -0.6212
    7bbb     H8  222  -0.156  10.111   1.503  0.6739  1.6174 -1.4621
    7bbb     C5  223   0.292  10.256   1.206 -0.4144  0.4235  0.4145
    7bbb     H9  224   0.358  10.185   1.258 -1.8565 -0.2787  1.3363
    7bbb    H10  225   0.341  10.354   1.209 -0.3814  0.5003 -1.5846
    7bbb     C6  226   0.261  10.345   1.641  0.1349 -0.7472  0.0960
    7bbb    H11  227   0.305  10.250   1.674 -1.1528 -1.7012 -0.8205
    7bbb    H12  228   0.167  10.346   1.697 -0.9294  0.2357 -1.6067
    7bbb     C7  229   0.001  10.016   1.611  0.4995 -0.0477 -0.6471
    7bbb    H13  230  -0.069   9.934   1.630 -1.9015  1.8956 -0.7203
    7bbb    H14  231   0.001  10.075   1.703 -3.1765 -0.6235 -0.1451
    7bbb     C8  232   0.348  10.462   1.701  0.3700  0.0977  0.2400
    7bbb    H15  233   0.300  10.558   1.678  0.2473  0.5182  2.1308
    7bbb    H16  234   0.350  10.462   1.810  0.1497  2.4117  0.3061
    7bbb     C9  235   0.293  10.229   1.053 -0.1933 -0.1718  0.2066
    7bbb    H17  236   0.267  10.124   1.036  0.1709  0.1452 -2.9892
    7bbb    H18  237   0.391  10.240   1.006 -0.7241 -2.9518 -1.7919
    7bbb     O1  238   0.140   9.974   1.582 -0.2237 -0.8454  0.5561
    7bbb    H19  239   0.202  10.152   1.435  0.1945  0.5701  0.0400
    8bbb     N1  240   0.156   8.478   2.790  0.0086 -0.3706 -0.0047
    8bbb     C1  241   0.229   8.461   2.926  0.2765  0.0975 -0.6775
    8bbb     H1  242   0.183   8.379   2.982 -0.3609  0.9758  0.1230
    8bbb     H2  243   0.213   8.550   2.987  0.3047 -0.4308  0.1238
    8bbb     C2  244   0.008   8.499   2.793 -0.1844 -0.4494  0.1697
    8bbb     H3  245  -0.020   8.604   2.783  0.4889 -0.0523  1.9736
    8bbb     H4  246  -0.032   8.463   2.889 -1.2913 -0.3365 -0.2318
    8bbb     C3  247   0.215   8.598   2.711 -0.8143  0.3681 -0.1617
    8bbb     H5  248   0.321   8.580   2.690  0.1323  3.1877  1.4978
    8bbb     H6  249   0.211   8.697   2.757  0.7627  0.1309  0.5538
    8bbb     C4  250   0.158   8.630   2.561  0.3370 -0.5570 -1.1480
    8bbb     H7  251   0.057   8.674   2.564  1.2643  1.8792 -2.9912
    8bbb     H8  252   0.164   8.537   2.503 -2.4647 -1.5675 -0.0153
    8bbb     C5  253   0.382   8.423   2.921 -0.3656  0.3990 -0.0429
    8bbb     H9  254   0.435   8.505   2.871  0.2123  1.6964  2.5137
    8bbb    H10  255   0.388   8.336   2.855 -0.6327 -0.7696  1.4108
    8bbb     C6  256  -0.066   8.414   2.684 -0.4723  0.9298  0.5169
    8bbb    H11  257  -0.058   8.312   2.722  1.5136  1.4578  1.6835
    8bbb    H12  258  -0.017   8.414   2.586  1.3036 -1.0136  1.3315
    8bbb     C7  259   0.231   8.748   2.485 -0.2039  0.8792  0.2610
    8bbb    H13  260   0.174   8.775   2.395  1.8087  2.4553 -0.6194
    8bbb    H14  261   0.332   8.709   2.467 -0.2991  0.4278  0.6693
    8bbb     C8  262  -0.218   8.446   2.678  0.8733 -0.1985  0.0205
    8bbb    H15  263  -0.264   8.424   2.775  2.8453 -1.0807  0.8125
    8bbb    H16  264  -0.237   8.553   2.666 -0.8293 -0.3451  1.1139
    8bbb     C9  265   0.440   8.386   3.058 -0.6501  0.6495  0.3131
    8bbb    H17  266   0.397   8.296   3.104 -0.1359  0.9617  1.4500
    8bbb    H18  267   0.408   8.473   3.117  0.0180  2.1888 -1.4837
    8bbb     O1  268   0.243   8.861   2.574 -0.1143  0.4469  0.2564
    8bbb    H19  269   0.175   8.390   2.740  1.9345  0.1283 -0.2330
    9bbb     N1  270  -0.677   9.313   2.604  0.4757 -0.4626 -0.2713
    9bbb     C1  271  -0.689   9.317   2.761 -0.2178 -0.2220  0.3251
    9bbb     H1  272  -0.754   9.232   2.783 -0.2949 -0.5024 -0.9113
    9bbb     H2  273  -0.738   9.410   2.787  0.7270  0.5769 -0.6376
    9bbb     C2  274  -0.818   9.337   2.548  0.4225 -0.1931  0.0169
    9bbb     H3  275  -0.893   9.290   2.612  0.6994 -0.9794 -0.2325
    9bbb     H4  276  -0.823   9.279   2.456  1.0105 -1.7701  0.9396
    9bbb     C3  277  -0.581   9.416   2.553  0.6777 -0.3783 -0.4441
    9bbb     H5  278  -0.491   9.402   2.613  0.1369 -0.7081  0.3102
    9bbb     H6  279  -0.625   9.514   2.576 -0.1094 -0.8604  0.1433
    9bbb     C4  280  -0.532   9.405   2.407  0.5881  0.1192  0.3054
    9bbb     H7  281  -0.458   9.485   2.402  0.1223  0.5804  0.7347
    9bbb     H8  282  -0.604   9.426   2.327  0.9474 -0.8524 -0.2980
    9bbb     C5  283  -0.557   9.295   2.840  0.6616 -0.1299 -0.0156
    9bbb     H9  284  -0.578   9.302   2.947  0.8542 -0.5341  0.0480
    9bbb    H10  285  -0.494   9.384   2.825 -0.0315  0.4455  0.3928
    9bbb     C6  286  -0.873   9.479   2.536 -0.3093  0.1588  0.1774
    9bbb    H11  287  -0.837   9.529   2.445  0.8632  0.1505  0.6147
    9bbb    H12  288  -0.849   9.537   2.626 -0.8591  0.6274  0.0316
    9bbb     C7  289  -0.462   9.275   2.370 -0.0452 -0.5937  0.1485
    9bbb    H13  290  -0.408   9.291   2.277 -0.5713  0.8293  0.0651
    9bbb    H14  291  -0.539   9.198   2.354 -0.2625 -0.1897 -0.8074
    9bbb     C8  292  -1.025   9.470   2.515 -0.0891 -0.1636  0.7216
    9bbb    H15  293  -1.084   9.415   2.589  0.3465 -1.4324  0.1613
    9bbb    H16  294  -1.067   9.571   2.504 -3.1370 -1.5501 -1.8236
    9bbb     C9  295  -0.477   9.170   2.802  0.1018 -0.0865 -0.4707
    9bbb    H17  296  -0.389   9.158   2.867  0.9598 -2.1571 -1.9096
    9bbb    H18  297  -0.445   9.176   2.697 -3.1516  0.5079 -1.5456
    9bbb     O1  298  -0.380   9.240   2.477 -0.2881 -0.3273 -0.1710
    9bbb    H19  299  -0.654   9.216   2.578  0.6947 -0.4345 -0.1885
   10bbb     N1  300   1.029   8.289   0.448 -0.2494 -0.5112  0.3078
   10bbb     C1  301   0.991   8.401   0.542 -0.2508 -0.2304 -0.9653
   10bbb     H1  302   0.977   8.486   0.475  2.5263  1.4479  0.4270
   10bbb     H2  303   1.081   8.412   0.603 -0.5951 -0.0008 -0.4916
   10bbb     C2  304   1.129   8.347   0.350  0.2430  0.4754 -0.6776
   10bbb     H3  305   1.205   8.273   0.326 -0.3511  0.1733 -1.7066
   10bbb     H4  306   1.174   8.435   0.397 -1.1210  0.2581  1.1678
   10bbb     C3  307   1.074   8.167   0.527 -0.0892  1.0121  0.0084
   10bbb     H5  308   1.099   8.088   0.458  0.6553 -1.0327  2.4575
   10bbb     H6  309   0.988   8.135   0.586  2.1881 -1.0378  2.4867
   10bbb     C4  310   1.200   8.194   0.622  0.0612  0.3760 -0.5107
   10bbb     H7  311   1.171   8.266   0.700  1.1688  0.8063 -0.4816
   10bbb     H8  312   1.280   8.230   0.556  0.0266 -3.1288 -2.7381
   10bbb     C5  313   0.863   8.391   0.631  0.3643 -0.3548 -0.4018
   10bbb     H9  314   0.870   8.300   0.691 -0.9356 -1.1890 -1.4523
   10bbb    H10  315   0.777   8.367   0.568  0.0329 -1.0946  0.3203
   10bbb     C6  316   1.064   8.396   0.222 -0.4014 -0.0513 -0.0678
   10bbb    H11  317   0.999   8.482   0.240 -0.1538 -0.1198  1.2211
   10bbb    H12  318   0.994   8.315   0.199  0.3486 -0.6841 -0.1587
   10bbb     C7  319   1.249   8.062   0.690 -0.1788  0.0990  0.0346
   10bbb    H13  320   1.323   8.088   0.768 -0.5162 -0.1752  0.4516
   10bbb    H14  321   1.294   7.995   0.616  0.3765  0.1088  0.3490
   10bbb     C8  322   1.151   8.433   0.101  0.1015  0.0166  0.3364
   10bbb    H15  323   1.168   8.346   0.037 -0.6532 -0.9090  1.3566
   10bbb    H16  324   1.110   8.506   0.029  0.3480  0.3182  0.4998
   10bbb     C9  325   0.832   8.502   0.728  0.8247 -0.1102 -0.2961
   10bbb    H17  326   0.851   8.604   0.693  2.2827  0.2641  1.4376
   10bbb    H18  327   0.903   8.488   0.811 -0.2443  1.3112  0.8955
   10bbb     O1  328   1.141   7.978   0.744 -0.4931  0.3179  0.1451
   10bbb    H19  329   0.946   8.260   0.393 -1.5259 -1.2159  2.4621
   11bbb     N1  330   0.728   7.450   0.036 -0.1517  0.7139  0.6528
   11bbb     C1  331   0.774   7.483  -0.106 -0.7357 -0.0340  0.4784
   11bbb     H1  332   0.703   7.558  -0.143 -0.7505 -0.2061  0.1478
   11bbb     H2  333   0.759   7.388  -0.158 -0.8595 -0.2539  0.9164
   11bbb     C2  334   0.621   7.343   0.029 -0.5562  1.4305 -0.0201
   11bbb     H3  335   0.610   7.295   0.127 -1.1815  1.7570  0.0736
   11bbb     H4  336   0.656   7.272  -0.046 -0.1663 -0.7229  2.0441
   11bbb     C3  337   0.842   7.387   0.115  0.3381  0.1372 -0.9578
   11bbb     H5  338   0.931   7.390   0.052  0.7150  1.6403 -0.4036
   11bbb     H6  339   0.816   7.283   0.135  2.4947 -0.0439  1.4603
   11bbb     C4  340   0.888   7.450   0.253 -0.0813 -1.0878 -0.2836
   11bbb     H7  341   0.924   7.554   0.243  0.7272 -1.1423  1.5597
   11bbb     H8  342   0.975   7.389   0.276  1.2193 -0.5254 -3.2544
   11bbb     C5  343   0.906   7.556  -0.133  0.6747  0.4877 -0.2318
   11bbb     H9  344   0.937   7.536  -0.236  0.9736  3.8593 -0.9144
   11bbb    H10  345   0.985   7.503  -0.079 -0.9216  1.1451  3.0438
   11bbb     C6  346   0.478   7.379  -0.020  0.1787 -0.4142 -0.5728
   11bbb    H11  347   0.458   7.380  -0.128 -0.5560 -2.7879 -0.5216
   11bbb    H12  348   0.452   7.478   0.019  5.0614  0.1022  2.2597
   11bbb     C7  349   0.773   7.436   0.351 -0.0807  0.1510 -0.0956
   11bbb    H13  350   0.736   7.333   0.353  1.7209 -0.5494  1.5973
   11bbb    H14  351   0.693   7.500   0.313 -1.2582  0.0006  1.9497
   11bbb     C8  352   0.380   7.268   0.026 -0.0177 -0.4966 -0.6056
   11bbb    H15  353   0.396   7.240   0.131  1.3939  0.5479 -0.5189
   11bbb    H16  354   0.277   7.306   0.027 -0.6799 -2.1956 -0.5194
   11bbb     C9  355   0.902   7.715  -0.110  0.6378  0.8648  0.3342
   11bbb    H17  356   0.982   7.761  -0.170 -1.4043  0.3987 -3.0482
   11bbb    H18  357   0.904   7.731  -0.002 -2.8030 -2.1740  1.0483
   11bbb     O1  358   0.802   7.497   0.481  0.5629  0.0277 -1.1050
   11bbb    H19  359   0.694   7.533   0.087  0.3790  0.6035  1.1942
   12bbb     N1  360   1.553   7.291   1.917 -0.1496 -0.6213 -0.3748
   12bbb     C1  361   1.575   7.412   1.835  0.1260  0.5115 -0.3347
   12bbb     H1  362   1.567   7.497   1.902  0.6848  1.2009 -1.1137
   12bbb     H2  363   1.490   7.423   1.768  0.2372  1.7188 -0.3015
   12bbb     C2  364   1.666   7.275   2.026 -0.1280 -0.3355 -0.2460
   12bbb     H3  365   1.651   7.355   2.097 -1.2695 -0.5895 -0.1816
   12bbb     H4  366   1.761   7.290   1.973  1.0502  2.9572  2.4648
   12bbb     C3  367   1.410   7.297   1.973 -0.0722 -0.5795  0.1954
   12bbb     H5  368   1.347   7.328   1.889 -0.1526  0.2989  0.5743
   12bbb     H6  369   1.406   7.378   2.045  0.3051  1.1112 -1.6168
   12bbb     C4  370   1.348   7.168   2.032  0.3211  0.1378 -0.2214
   12bbb     H7  371   1.333   7.176   2.141 -0.4691 -1.6097 -0.1628
   12bbb     H8  372   1.420   7.088   2.011  0.4345  0.4172 -0.9048
   12bbb     C5  373   1.700   7.412   1.739  0.7225  0.1839  0.3244
   12bbb     H9  374   1.704   7.314   1.690 -2.1275  1.0207 -1.8920
   12bbb    H10  375   1.797   7.428   1.786  2.1125 -0.9300 -1.9951
   12bbb     C6  376   1.653   7.144   2.106  0.0994 -0.9639 -0.2052
   12bbb    H11  377   1.628   7.057   2.044 -0.3963 -0.8959 -0.1089
   12bbb    H12  378   1.576   7.151   2.184 -0.0617 -2.4553 -0.2065
   12bbb     C7  379   1.212   7.140   1.959 -0.3714 -0.0209 -0.5495
   12bbb    H13  380   1.188   7.038   1.990 -2.3237  1.0560  1.8364
   12bbb    H14  381   1.222   7.135   1.850  0.8757 -0.0111 -0.4464
   12bbb     C8  382   1.778   7.116   2.182 -0.2784  0.0248  0.6106
   12bbb    H15  383   1.777   7.016   2.228 -0.4653 -0.5948 -0.6931
   12bbb    H16  384   1.861   7.123   2.110  0.6246 -1.2273  1.4922
   12bbb     C9  385   1.681   7.526   1.640  0.4558  0.0728  0.0937
   12bbb    H17  386   1.764   7.524   1.568 -0.6437 -1.6304 -1.1955
   12bbb    H18  387   1.684   7.624   1.689 -1.2352  1.4864 -2.3902
   12bbb     O1  388   1.107   7.236   2.003  0.1214  0.1388  0.0751
   12bbb    H19  389   1.558   7.211   1.852 -1.3876 -0.2071 -1.0237
   13bbb     N1  390   0.139   6.771   2.287  0.0106 -0.4466 -0.6380
   13bbb     C1  391   0.034   6.689   2.229 -0.1029 -0.5211  0.4221
   13bbb     H1  392   0.041   6.682   2.120 -0.3033  1.6735  0.2274
   13bbb     H2  393  -0.056   6.747   2.252 -0.3311 -1.2384  1.3921
   13bbb     C2  394   0.281   6.730   2.270 -0.1495  0.1548 -0.1664
   13bbb     H3  395   0.300   6.765   2.169  0.8715 -0.6744 -0.2837
   13bbb     H4  396   0.290   6.621   2.271  0.4654  0.2022  0.8918
   13bbb     C3  397   0.118   6.922   2.251 -0.0990 -0.4404 -0.4151
   13bbb     H5  398   0.189   6.982   2.308  0.3035  1.6433 -2.9260
   13bbb     H6  399   0.019   6.957   2.278  0.5019  0.4888  0.6592
   13bbb     C4  400   0.144   6.963   2.100 -0.4563 -0.9334 -0.8909
   13bbb     H7  401   0.063   6.913   2.045 -1.2146  1.5285 -2.1636
   13bbb     H8  402   0.243   6.927   2.070  0.7363  2.0358 -0.9064
   13bbb     C5  403   0.016   6.551   2.295 -0.2485  0.0999 -0.7801
   13bbb     H9  404  -0.041   6.566   2.387 -1.5284  0.7328 -1.6497
   13bbb    H10  405   0.115   6.509   2.315 -0.3673  0.4836  0.7271
   13bbb     C6  406   0.395   6.773   2.363  0.3426 -0.0546 -0.2716
   13bbb    H11  407   0.412   6.880   2.352 -2.3254  0.5178  0.5119
   13bbb    H12  408   0.490   6.724   2.336  0.3281  0.2421 -0.8851
   13bbb     C7  409   0.130   7.121   2.076  0.3071 -0.2849 -0.0531
   13bbb    H13  410   0.050   7.166   2.136  1.6710  2.9596 -0.4519
   13bbb    H14  411   0.110   7.133   1.968  0.6510  1.2454  0.0332
   13bbb     C8  412   0.373   6.753   2.515 -0.6774  0.1954 -0.6303
   13bbb    H15  413   0.468   6.786   2.559 -2.1095  2.3532  1.0164
   13bbb    H16  414   0.299   6.813   2.569 -0.9893  0.5879 -1.4711
   13bbb     C9  415  -0.079   6.465   2.216 -0.0488  0.0640  0.0653
   13bbb    H17  416  -0.168   6.527   2.197  1.0806  2.4530  2.0753
   13bbb    H18  417  -0.113   6.380   2.276 -3.5691  2.2599  1.4630
   13bbb     O1  418   0.255   7.184   2.114 -0.5488  0.0478 -0.1452
   13bbb    H19  419   0.117   6.756   2.386 -0.1753 -1.1146 -0.7711
   14bbb     N1  420   0.813  10.453   2.773 -0.2054  0.4734 -0.6221
   14bbb     C1  421   0.853  10.395   2.911  0.6822  0.2183 -0.0025
   14bbb     H1  422   0.956  10.427   2.928  1.2539 -1.1523 -0.6947
   14bbb     H2  423   0.840  10.287   2.902 -1.6890  0.3356  1.2459
   14bbb     C2  424   0.917  10.401   2.672  0.5119 -0.6650  0.2242
   14bbb     H3  425   0.888  10.444   2.576 -0.4536 -2.6076 -0.4043
   14bbb     H4  426   0.905  10.294   2.656  2.5871 -1.6004  3.8445
   14bbb     C3  427   0.677  10.397   2.736  0.2659 -0.1061 -0.6628
   14bbb     H5  428   0.604  10.431   2.809 -0.6921 -0.6591 -1.3513
   14bbb     H6  429   0.689  10.289   2.728  2.0786  0.1501 -2.5322
   14bbb     C4  430   0.613  10.449   2.611  0.0361  0.4133  0.5378
   14bbb     H7  431   0.676  10.420   2.526  0.0022 -1.2677  1.0559
   14bbb     H8  432   0.601  10.557   2.621  0.8337  0.7344 -1.5184
   14bbb     C5  433   0.770  10.432   3.039  0.6487  0.2535 -0.1286
   14bbb     H9  434   0.803  10.360   3.115 -0.9205  0.3240  0.6597
   14bbb    H10  435   0.662  10.422   3.021  0.3674  2.0489  0.3968
   14bbb     C6  436   1.065  10.425   2.707 -0.1111  0.1726  0.1848
   14bbb    H11  437   1.111  10.351   2.774 -0.5151  0.8178  1.1862
   14bbb    H12  438   1.073  10.523   2.754  0.2107  0.0224  0.4465
   14bbb     C7  439   0.479  10.392   2.592  0.0251 -0.2670 -0.5167
   14bbb    H13  440   0.427  10.464   2.528 -1.2071  0.9939  1.7900
   14bbb    H14  441   0.419  10.400   2.683 -1.8113  3.3614 -1.8407
   14bbb     C8  442   1.147  10.426   2.579  0.3817 -1.0028 -0.0773
   14bbb    H15  443   1.092  10.494   2.512 -0.4786 -1.4980  0.1208
   14bbb    H16  444   1.255  10.447   2.588  0.3330 -0.4081 -0.7358
   14bbb     C9  445   0.778  10.581   3.083  0.0705  0.0171 -0.2246
   14bbb    H17  446   0.742  10.584   3.187  0.0704  0.8620 -0.2438
   14bbb    H18  447   0.709  10.640   3.021 -0.3346  1.6293  1.6421
   14bbb     O1  448   0.487  10.254   2.541  0.0872  0.3317 -0.2015
   14bbb    H19  449   0.817  10.556   2.777 -0.5564  0.4694  1.6919
   15bbb     N1  450   0.552   9.826   2.921  0.0261 -0.7931  0.9024
   15bbb     C1  451   0.593   9.770   3.056 -0.1481  0.0304 -0.1920
   15bbb     H1  452   0.548   9.828   3.137  0.5346 -0.7624  0.7747
   15bbb     H2  453   0.700   9.785   3.070 -0.7030  3.0182  1.7439
   15bbb     C2  454   0.504   9.968   2.946  0.7207 -0.2493 -0.5207
   15bbb     H3  455   0.596  10.021   2.970  0.3191  2.6104 -4.3910
   15bbb     H4  456   0.428   9.965   3.024  1.6738  1.2122  0.5099
   15bbb     C3  457   0.673   9.828   2.833 -0.0117 -0.3817 -0.2588
   15bbb     H5  458   0.762   9.859   2.887  0.9303  1.4653 -2.6890
   15bbb     H6  459   0.652   9.902   2.756 -1.3309  0.4769  0.8754
   15bbb     C4  460   0.710   9.701   2.760 -0.8918 -0.6113 -0.0147
   15bbb     H7  461   0.628   9.661   2.698 -0.5396  0.8929 -1.5261
   15bbb     H8  462   0.738   9.630   2.838 -1.2161  2.0931  2.7070
   15bbb     C5  463   0.576   9.622   3.097  0.0519  0.5166 -0.1104
   15bbb     H9  464   0.651   9.610   3.177  0.9657  0.9299 -0.8800
   15bbb    H10  465   0.599   9.551   3.017 -0.8978 -0.0174  0.0755
   15bbb     C6  466   0.440  10.037   2.826  0.0365  0.8086 -0.0947
   15bbb    H11  467   0.389   9.967   2.758 -0.3677  1.5317 -0.5466
   15bbb    H12  468   0.522  10.069   2.759 -0.1851  1.1661 -0.1988
   15bbb     C7  469   0.822   9.713   2.657  0.4422 -0.1385  0.3495
   15bbb    H13  470   0.849   9.616   2.613  1.9603  0.0652  0.7706
   15bbb    H14  471   0.912   9.754   2.703  0.6437 -0.0084 -0.1589
   15bbb     C8  472   0.344  10.153   2.858  0.8060  0.4929 -0.7840
   15bbb    H15  473   0.249  10.104   2.882  1.5941 -0.0385  1.4843
   15bbb    H16  474   0.327  10.224   2.776  0.1863  2.1907  0.7589
   15bbb     C9  475   0.431   9.598   3.148  0.1908 -0.0187  0.2829
   15bbb    H17  476   0.366   9.582   3.062 -0.1730  1.6352  0.2166
   15bbb    H18  477   0.431   9.501   3.200  0.7532  0.5656  1.4038
   15bbb     O1  478   0.772   9.814   2.569  0.1507 -0.2496 -0.3835
   15bbb    H19  479   0.471   9.776   2.882 -0.6581  1.5469 -0.8957
   16bbb     N1  480   0.651  10.697   1.333 -0.2316  1.2514  0.4717
   16bbb     C1  481   0.732  10.810   1.383 -0.2778 -0.0548 -0.3374
   16bbb     H1  482   0.757  10.851   1.285 -1.6460  0.6446 -0.4201
   16bbb     H2  483   0.825  10.778   1.430  0.0182  2.2875  0.8106
   16bbb     C2  484   0.736  10.590   1.260 -0.1730 -0.3401 -1.0677
   16bbb     H3  485   0.763  10.523   1.342 -1.9084  0.3728  0.1252
   16bbb     H4  486   0.825  10.637   1.216  0.8568 -2.3547 -1.2653
   16bbb     C3  487   0.581  10.618   1.447 -0.3769  0.4401  0.6261
   16bbb     H5  488   0.532  10.529   1.406 -2.1337  1.1558  1.0684
   16bbb     H6  489   0.508  10.683   1.495 -0.3051  2.2470 -1.5558
   16bbb     C4  490   0.672  10.577   1.565  0.6325 -0.4721 -0.8548
   16bbb     H7  491   0.747  10.654   1.585 -0.2743  0.2165 -0.0357
   16bbb     H8  492   0.726  10.485   1.538 -2.6172 -2.3593 -1.3928
   16bbb     C5  493   0.669  10.920   1.464 -0.4709  0.1875 -0.2689
   16bbb     H9  494   0.639  10.889   1.565 -0.6249  1.3813  0.0657
   16bbb    H10  495   0.581  10.957   1.410  0.5075  1.6469 -0.9107
   16bbb     C6  496   0.671  10.501   1.157  0.0991 -0.4211  0.0572
   16bbb    H11  497   0.582  10.453   1.199 -1.1625  2.6434  1.1109
   16bbb    H12  498   0.749  10.424   1.145  1.6310  1.0859  0.0529
   16bbb     C7  499   0.589  10.535   1.687  0.7607  0.1950  0.0270
   16bbb    H13  500   0.549  10.628   1.729  1.0295  0.3316 -0.0146
   16bbb    H14  501   0.662  10.492   1.756  0.8610  0.6955  0.2393
   16bbb     C8  502   0.649  10.574   1.019  1.8582  0.2325 -0.2528
   16bbb    H15  503   0.584  10.519   0.950  0.7428  0.4003  0.6370
   16bbb    H16  504   0.592  10.667   1.034  0.3920 -0.7027  0.1472
   16bbb     C9  505   0.765  11.038   1.482 -0.0821 -0.8115  0.5410
   16bbb    H17  506   0.718  11.119   1.539  0.7552  2.3020 -2.8080
   16bbb    H18  507   0.785  11.084   1.384  0.8310  0.1030  1.1291
   16bbb     O1  508   0.484  10.446   1.654 -0.3098  0.5041  1.2185
   16bbb    H19  509   0.585  10.738   1.265  0.0968 -0.7007 -1.1411
   17bbb     N1  510   0.032  10.019   0.697 -0.1399  0.0974  0.2719
   17bbb     C1  511   0.123   9.902   0.726 -0.2748 -0.4553 -0.0327
   17bbb     H1  512   0.090   9.850   0.815 -0.8748  0.0835  0.0670
   17bbb     H2  513   0.225   9.941   0.727 -0.5456  0.6813 -3.3138
   17bbb     C2  514  -0.119   9.976   0.700  0.0760 -0.1515 -0.1426
   17bbb     H3  515  -0.143   9.956   0.804 -1.6539  0.9860 -0.2868
   17bbb     H4  516  -0.123   9.885   0.639 -0.0442  1.8298 -3.3094
   17bbb     C3  517   0.060  10.136   0.792  0.2874 -0.0185  0.2912
   17bbb     H5  518   0.037  10.110   0.896 -1.6864  1.5398  0.3093
   17bbb     H6  519   0.001  10.223   0.762 -0.7407  0.5450  3.5890
   17bbb     C4  520   0.202  10.189   0.770  0.3588  0.3146 -0.3824
   17bbb     H7  521   0.210  10.221   0.666 -3.0541  1.8361 -0.3113
   17bbb     H8  522   0.284  10.121   0.797 -0.2262 -0.7396 -1.1727
   17bbb     C5  523   0.118   9.798   0.603 -0.6235  0.1015  0.1542
   17bbb     H9  524   0.016   9.768   0.576 -0.7938  1.1722 -0.4473
   17bbb    H10  525   0.166   9.703   0.631  1.0614  1.3775  1.8414
   17bbb     C6  526  -0.224  10.070   0.629 -0.0825  0.1342 -0.4076
   17bbb    H11  527  -0.173  10.124   0.549  1.7494  0.9384  1.2221
   17bbb    H12  528  -0.252  10.148   0.701 -0.6976 -1.1216  0.7554
   17bbb     C7  529   0.228  10.320   0.842  0.0364  0.1300 -0.3968
   17bbb    H13  530   0.164  10.399   0.800  0.1871  0.7483  0.5055
   17bbb    H14  531   0.324  10.364   0.811 -0.3771  0.7154 -0.8654
   17bbb     C8  532  -0.351  10.002   0.574  0.3792 -0.1980  0.3700
   17bbb    H15  533  -0.395   9.927   0.641 -0.0042 -2.4995 -2.2968
   17bbb    H16  534  -0.422  10.084   0.554  1.6950  0.7594 -0.5735
   17bbb     C9  535   0.186   9.843   0.469 -0.1401 -0.3597 -0.3636
   17bbb    H17  536   0.198   9.763   0.395 -2.3250 -0.1976 -0.9636
   17bbb    H18  537   0.289   9.877   0.485 -0.5050  0.7664 -0.2782
   17bbb     O1  538   0.200  10.306   0.984 -0.3239  0.3007  0.2930
   17bbb    H19  539   0.055  10.046   0.600  2.1202  0.2661  0.7986
   18bbb     N1  540  -0.594   8.071   2.654 -0.4679  0.2657 -0.5996
   18bbb     C1  541  -0.642   8.117   2.796 -0.0505 -0.6900  0.5236
   18bbb     H1  542  -0.726   8.049   2.812 -0.5013 -0.4601 -0.8027
   18bbb     H2  543  -0.682   8.218   2.789 -1.3248 -1.3108 -2.3448
   18bbb     C2  544  -0.725   8.070   2.575 -0.6894 -0.6305  0.6360
   18bbb     H3  545  -0.769   8.169   2.568 -0.1701 -0.4732 -0.7937
   18bbb     H4  546  -0.792   8.006   2.633 -0.9581 -0.0957  0.9173
   18bbb     C3  547  -0.486   8.171   2.602  0.3466  0.4484  0.4977
   18bbb     H5  548  -0.482   8.132   2.500 -0.5091 -0.0704  0.6539
   18bbb     H6  549  -0.391   8.141   2.647 -0.6232 -0.4119  2.0575
   18bbb     C4  550  -0.510   8.323   2.598  1.4851 -0.1398 -0.3175
   18bbb     H7  551  -0.507   8.354   2.703  2.0457 -1.4688  0.0909
   18bbb     H8  552  -0.612   8.344   2.565  1.2631  1.5608  1.2830
   18bbb     C5  553  -0.529   8.100   2.905 -0.7165  0.9684 -0.0697
   18bbb     H9  554  -0.456   8.182   2.902 -1.4320  1.7188  1.6429
   18bbb    H10  555  -0.468   8.010   2.891 -1.0821  1.0695 -2.6874
   18bbb     C6  556  -0.710   8.004   2.432  0.3276 -0.3093  0.4903
   18bbb    H11  557  -0.811   7.969   2.408 -0.3789  0.0683  2.6959
   18bbb    H12  558  -0.648   7.913   2.432 -0.0396 -0.5928  2.0709
   18bbb     C7  559  -0.403   8.400   2.523  0.4217  0.1986  0.6185
   18bbb    H13  560  -0.407   8.510   2.527  1.8932  0.3390 -0.6423
   18bbb    H14  561  -0.412   8.367   2.419  1.2748  3.8970 -0.7989
   18bbb     C8  562  -0.667   8.105   2.323 -0.1292  0.1893 -0.1184
   18bbb    H15  563  -0.561   8.134   2.327 -0.0908  0.3148 -1.4333
   18bbb    H16  564  -0.689   8.052   2.229 -2.0034 -2.8056  1.8636
   18bbb     C9  565  -0.596   8.103   3.042 -0.1958 -0.1744  0.2655
   18bbb    H17  566  -0.675   8.179   3.046 -0.0347 -0.0461  2.3465
   18bbb    H18  567  -0.524   8.136   3.118 -0.6321  2.9884 -0.5187
   18bbb     O1  568  -0.273   8.365   2.573 -0.0215  0.1553  0.1114
   18bbb    H19  569  -0.558   7.976   2.671  1.1932  1.3415  2.8793
   19bbb     N1  570   0.641   8.016   3.123  0.2534 -0.0572  0.4024
   19bbb     C1  571   0.599   8.070   2.983  0.0109  1.1750 -0.5603
   19bbb     H1  572   0.681   8.072   2.911  0.0145  0.4862 -0.5893
   19bbb     H2  573   0.574   8.173   3.005  0.0378  0.5330  3.0890
   19bbb     C2  574   0.738   7.904   3.099 -0.5828  0.3812  0.6877
   19bbb     H3  575   0.823   7.945   3.044 -1.0104  0.7266  0.2762
   19bbb     H4  576   0.684   7.824   3.050  0.5251 -1.7957  2.8305
   19bbb     C3  577   0.716   8.130   3.194  0.4241 -0.1316  0.2614
   19bbb     H5  578   0.792   8.171   3.127 -0.6594 -0.2125 -1.0748
   19bbb     H6  579   0.773   8.086   3.276  1.5370 -0.6349 -0.7509
   19bbb     C4  580   0.637   8.252   3.247 -0.2816  0.3273 -0.2151
   19bbb     H7  581   0.690   8.286   3.337  0.4393 -0.5175 -0.3123
   19bbb     H8  582   0.531   8.228   3.259 -0.3660 -1.9874 -3.9613
   19bbb     C5  583   0.476   7.999   2.925 -0.4097 -0.1790  0.2437
   19bbb     H9  584   0.451   8.051   2.832 -0.8723  0.9118  0.9483
   19bbb    H10  585   0.392   8.020   2.993 -0.2950  1.5059 -0.0799
   19bbb     C6  586   0.790   7.831   3.224 -0.0945  0.3748 -1.0823
   19bbb    H11  587   0.716   7.800   3.299  2.8678  0.9866  2.3881
   19bbb    H12  588   0.854   7.901   3.279 -2.2969  2.9063 -1.5704
   19bbb     C7  589   0.656   8.385   3.166  0.2820 -0.1893 -0.3935
   19bbb    H13  590   0.761   8.415   3.160  0.0330  0.7486 -0.2065
   19bbb    H14  591   0.596   8.465   3.212 -0.2782 -0.0494 -1.3352
   19bbb     C8  592   0.873   7.705   3.197  0.5174 -0.2197 -0.9354
   19bbb    H15  593   0.914   7.663   3.290  0.5527  0.4915 -0.6234
   19bbb    H16  594   0.807   7.633   3.146 -0.0494  1.0833 -2.0894
   19bbb     C9  595   0.497   7.851   2.892  0.5453  0.3507  0.2085
   19bbb    H17  596   0.405   7.807   2.850  0.4320  1.1568 -0.4185
   19bbb    H18  597   0.505   7.798   2.988  0.1413 -1.2800 -0.6256
   19bbb     O1  598   0.585   8.373   3.038 -0.2115 -0.6569  0.0940
   19bbb    H19  599   0.563   7.978   3.179  0.7877  0.0193  1.2168
   20bbb     N1  600  -1.370   9.021   2.409  0.3417 -0.3704 -0.4787
   20bbb     C1  601  -1.488   8.984   2.497  0.1176 -0.4336  0.5302
   20bbb     H1  602  -1.521   8.888   2.457 -1.5945  0.9313 -1.5709
   20bbb     H2  603  -1.571   9.052   2.476  0.8595  0.1836 -0.4684
   20bbb     C2  604  -1.412   8.985   2.261 -1.5316 -0.2682  0.0786
   20bbb     H3  605  -1.491   9.056   2.235 -2.5782 -1.5017 -0.2189
   20bbb     H4  606  -1.452   8.884   2.254  1.2296 -1.4964  0.7779
   20bbb     C3  607  -1.352   9.170   2.411 -0.9470 -0.4508  0.7863
   20bbb     H5  608  -1.384   9.206   2.509  2.1892  1.2226  1.3265
   20bbb     H6  609  -1.410   9.206   2.326 -0.5209 -0.9657  0.2680
   20bbb     C4  610  -1.198   9.212   2.411  0.5202  0.4341 -0.4208
   20bbb     H7  611  -1.143   9.147   2.342  0.4596  1.1799 -1.1851
   20bbb     H8  612  -1.150   9.198   2.509 -0.1829 -0.7766 -0.2324
   20bbb     C5  613  -1.462   8.991   2.649 -0.4846 -0.5180  0.0002
   20bbb     H9  614  -1.453   9.096   2.680  0.8088 -1.1756  2.0656
   20bbb    H10  615  -1.373   8.934   2.679  0.2196  0.4734 -0.1727
   20bbb     C6  616  -1.297   8.993   2.159  0.3151  0.6629 -0.6130
   20bbb    H11  617  -1.212   8.936   2.200  1.7059  2.2423 -1.1380
   20bbb    H12  618  -1.275   9.098   2.134 -0.0193  0.3442 -2.3619
   20bbb     C7  619  -1.173   9.352   2.364  0.0362  0.3916 -0.1287
   20bbb    H13  620  -1.252   9.412   2.412 -1.1732  0.6462 -2.3331
   20bbb    H14  621  -1.184   9.351   2.255  1.3918 -3.7723 -0.3862
   20bbb     C8  622  -1.330   8.940   2.016 -0.2865 -0.4537  0.4865
   20bbb    H15  623  -1.422   8.978   1.971 -0.4178  1.3148  2.1075
   20bbb    H16  624  -1.251   8.970   1.946 -0.2710  0.8621  1.0436
   20bbb     C9  625  -1.572   8.937   2.742 -0.0522 -0.3231 -0.1446
   20bbb    H17  626  -1.668   8.962   2.696  0.5568 -0.5061 -1.5757
   20bbb    H18  627  -1.570   8.991   2.837 -0.9303 -1.2823  0.4310
   20bbb     O1  628  -1.044   9.395   2.399 -0.2547 -0.8579  0.2592
   20bbb    H19  629  -1.283   8.979   2.446 -1.7597 -1.3018  4.0778
   21bbb     N1  630  -0.930   8.840   3.033 -0.4814 -0.1339  0.2048
   21bbb     C1  631  -1.025   8.915   3.123 -0.1131 -0.9129 -0.0063
   21bbb     H1  632  -1.111   8.850   3.142  1.6149 -2.4489  3.2989
   21bbb     H2  633  -1.060   9.003   3.069 -1.5806 -1.7230 -0.4446
   21bbb     C2  634  -0.993   8.808   2.900  0.6872  0.1968 -0.1203
   21bbb     H3  635  -0.913   8.793   2.828  0.3248  0.6545 -0.6353
   21bbb     H4  636  -1.050   8.891   2.856 -0.7137 -0.0245  1.2068
   21bbb     C3  637  -0.807   8.930   3.002  0.6891 -0.3313  0.0116
   21bbb     H5  638  -0.786   8.982   3.095 -2.2544  1.6904 -0.3067
   21bbb     H6  639  -0.848   9.002   2.931  0.7844  1.0871  1.3522
   21bbb     C4  640  -0.674   8.870   2.947 -0.1315 -0.3512 -0.2162
   21bbb     H7  641  -0.696   8.836   2.845 -1.2468 -0.6145  0.1039
   21bbb     H8  642  -0.635   8.791   3.012 -0.3148 -1.6600 -1.6538
   21bbb     C5  643  -0.966   8.954   3.261 -0.8153 -0.0885  0.3127
   21bbb     H9  644  -0.869   9.006   3.257 -1.1683  0.5161 -1.3194
   21bbb    H10  645  -0.941   8.865   3.321  0.2126  1.0021  1.5562
   21bbb     C6  646  -1.085   8.683   2.906 -0.4066 -0.9046  0.4585
   21bbb    H11  647  -1.177   8.704   2.962 -1.9889 -3.6226 -0.9130
   21bbb    H12  648  -1.025   8.606   2.957  1.1485 -0.0614 -0.0260
   21bbb     C7  649  -0.558   8.981   2.941  0.2364  0.2722 -0.8183
   21bbb    H13  650  -0.458   8.935   2.944 -0.1749 -0.7204 -1.7530
   21bbb    H14  651  -0.564   9.044   3.031  0.5796  2.8609 -2.4885
   21bbb     C8  652  -1.121   8.632   2.765  0.3391 -0.1279  0.2953
   21bbb    H15  653  -1.036   8.629   2.695 -1.4499  0.9865 -2.0443
   21bbb    H16  654  -1.149   8.526   2.776 -0.0523 -0.0435  0.1038
   21bbb     C9  655  -1.069   9.031   3.337  0.3723 -0.3954 -0.5610
   21bbb    H17  656  -1.037   9.037   3.442  0.3321 -0.4201 -0.5473
   21bbb    H18  657  -1.167   8.982   3.338  0.0301  0.2579  0.8579
   21bbb     O1  658  -0.572   9.061   2.818 -0.3411  0.5489 -0.1391
   21bbb    H19  659  -0.900   8.754   3.081 -2.5962 -0.7515  0.5302
   22bbb     N1  660   1.707   8.733   0.038 -0.2048  0.0327  0.2130
   22bbb     C1  661   1.797   8.612  -0.004 -0.8123 -0.2169  0.1528
   22bbb     H1  662   1.768   8.592  -0.107 -0.8066  1.2080 -0.1526
   22bbb     H2  663   1.781   8.528   0.063 -0.1236  2.1662  3.5816
   22bbb     C2  664   1.756   8.853  -0.052  0.7939 -0.2623  0.3971
   22bbb     H3  665   1.746   8.829  -0.158  1.1450  1.1351  0.0177
   22bbb     H4  666   1.862   8.875  -0.035  0.4577  2.5861 -0.6181
   22bbb     C3  667   1.565   8.700   0.003 -0.0899 -0.1504  1.2896
   22bbb     H5  668   1.564   8.662  -0.099  0.2895  1.8997  0.4742
   22bbb     H6  669   1.495   8.783   0.009  0.9058  0.8627 -0.4225
   22bbb     C4  670   1.496   8.595   0.099 -0.2661  0.1141  0.0544
   22bbb     H7  671   1.470   8.639   0.196  0.8244 -2.2016  1.4546
   22bbb     H8  672   1.582   8.533   0.125 -1.1052 -0.9938  0.2453
   22bbb     C5  673   1.953   8.623   0.004  0.2374 -0.0140 -0.3473
   22bbb     H9  674   1.995   8.702  -0.060 -0.0343  0.8574  0.5165
   22bbb    H10  675   2.001   8.529  -0.025  0.0313  0.5799 -2.8607
   22bbb     C6  676   1.689   8.990  -0.027 -0.3613  0.3970 -0.1733
   22bbb    H11  677   1.581   8.968  -0.032 -0.0308 -1.5585  0.4043
   22bbb    H12  678   1.721   9.058  -0.107  1.3426  0.5480  0.5920
   22bbb     C7  679   1.374   8.515   0.046  0.1365 -0.0394  0.3862
   22bbb    H13  680   1.402   8.435  -0.023 -1.2464 -0.9454  0.8187
   22bbb    H14  681   1.330   8.581  -0.029  0.2936  2.3397  2.2571
   22bbb     C8  682   1.737   9.052   0.105  0.5577  0.4753 -0.5921
   22bbb    H15  683   1.728   9.161   0.101 -1.2685  0.5040  1.8435
   22bbb    H16  684   1.668   9.022   0.185  0.6119  0.8080 -0.4194
   22bbb     C9  685   2.001   8.666   0.140  0.2445 -0.1982 -0.1622
   22bbb    H17  686   1.982   8.773   0.156 -1.9112 -0.4745 -0.6012
   22bbb    H18  687   2.106   8.636   0.147  0.0247 -1.1059 -0.6141
   22bbb     O1  688   1.280   8.474   0.151 -0.4114 -0.1957  0.8019
   22bbb    H19  689   1.709   8.757   0.138 -1.6166  0.3282  0.1948
   23bbb     N1  690   0.435   8.576   0.651 -0.2181 -0.0496  0.2768
   23bbb     C1  691   0.421   8.427   0.636 -0.2139 -0.6786  0.2619
   23bbb     H1  692   0.319   8.399   0.663 -0.5456 -0.3012 -0.5502
   23bbb     H2  693   0.484   8.380   0.712 -0.0334 -0.0534  0.4982
   23bbb     C2  694   0.317   8.624   0.565 -0.2211  0.1465 -0.0598
   23bbb     H3  695   0.222   8.576   0.589  0.2615 -0.0841  1.5408
   23bbb     H4  696   0.342   8.585   0.466 -3.0302 -1.9416 -0.0858
   23bbb     C3  697   0.409   8.610   0.794  0.5014  0.3100  0.3544
   23bbb     H5  698   0.305   8.600   0.824  0.0517  0.6622 -1.0076
   23bbb     H6  699   0.419   8.719   0.796  0.0343  0.4112 -1.2614
   23bbb     C4  700   0.505   8.552   0.904  0.0436 -0.1268 -0.3141
   23bbb     H7  701   0.498   8.443   0.918 -1.7941  0.1278  1.1762
   23bbb     H8  702   0.481   8.603   0.998  1.9837  2.2015 -0.9815
   23bbb     C5  703   0.458   8.363   0.502  0.4688 -0.2369 -0.2253
   23bbb     H9  704   0.541   8.419   0.456 -2.6896  3.1351 -2.4605
   23bbb    H10  705   0.381   8.378   0.425  0.4308 -2.3879 -0.6545
   23bbb     C6  706   0.291   8.780   0.556 -0.4885  0.9346  0.3060
   23bbb    H11  707   0.280   8.827   0.654  0.5807  0.4239  0.6902
   23bbb    H12  708   0.207   8.801   0.488  1.4028  3.2695 -1.4748
   23bbb     C7  709   0.656   8.581   0.884 -0.7883 -0.5141  0.2680
   23bbb    H13  710   0.708   8.545   0.973 -1.3253 -0.7927  0.4721
   23bbb    H14  711   0.661   8.691   0.876 -3.0005 -0.1423  2.5532
   23bbb     C8  712   0.404   8.853   0.478 -0.2488 -0.4203  0.2551
   23bbb    H15  713   0.405   8.821   0.373  0.7012 -0.4919  0.2779
   23bbb    H16  714   0.391   8.961   0.480 -2.2196 -0.6356  1.0090
   23bbb     C9  715   0.483   8.208   0.520 -0.5312  0.0056  0.4148
   23bbb    H17  716   0.515   8.168   0.423 -0.5497 -0.8105  0.7384
   23bbb    H18  717   0.389   8.162   0.552 -0.2787 -0.9977 -0.2240
   23bbb     O1  718   0.696   8.494   0.773  0.0213  0.3160 -0.0463
   23bbb    H19  719   0.523   8.620   0.620 -1.0413  1.9516  0.6502
   24bbb     N1  720   0.225   7.037  -0.254 -0.4124 -0.2848  0.1710
   24bbb     C1  721   0.323   7.047  -0.366  0.1230  0.3193 -0.6707
   24bbb     H1  722   0.416   7.080  -0.321  0.0508  0.2183 -0.4483
   24bbb     H2  723   0.280   7.128  -0.426 -2.2811  0.8566  1.5945
   24bbb     C2  724   0.081   7.023  -0.314 -0.2524 -0.0379 -0.1748
   24bbb     H3  725   0.071   6.937  -0.381 -1.5387 -0.6550  0.7489
   24bbb     H4  726   0.072   7.110  -0.379  0.4163  0.7481  0.7638
   24bbb     C3  727   0.262   6.922  -0.158 -0.6601 -0.7072  0.0260
   24bbb     H5  728   0.228   6.827  -0.200 -0.4654 -0.8132  0.1057
   24bbb     H6  729   0.208   6.951  -0.068  0.1485  1.4759 -0.1199
   24bbb     C4  730   0.415   6.919  -0.107 -0.8600  0.2699  0.3687
   24bbb     H7  731   0.489   6.923  -0.188  1.3199 -0.2737  2.2357
   24bbb     H8  732   0.432   6.822  -0.059 -1.0585 -1.3537 -2.5872
   24bbb     C5  733   0.348   6.916  -0.449  0.2022  0.1192 -0.2315
   24bbb     H9  734   0.310   6.826  -0.398  0.2705 -0.7675 -1.6821
   24bbb    H10  735   0.455   6.895  -0.455 -0.1120 -1.3468 -1.2651
   24bbb     C6  736  -0.031   7.021  -0.209  0.1281 -0.0342 -0.0641
   24bbb    H11  737  -0.023   7.117  -0.156 -0.0621 -0.2365  0.3397
   24bbb    H12  738  -0.019   6.941  -0.135  0.4136 -0.7029 -0.8180
   24bbb     C7  739   0.447   7.035  -0.010  0.4595  0.0681 -0.7515
   24bbb    H13  740   0.556   7.036   0.002  0.2737 -1.6948  2.1510
   24bbb    H14  741   0.406   7.017   0.091  1.9627  2.9198  0.4803
   24bbb     C8  742  -0.176   7.021  -0.282  0.7182  0.0074 -0.0807
   24bbb    H15  743  -0.192   6.915  -0.307  0.1616  0.8388 -3.7464
   24bbb    H16  744  -0.248   7.051  -0.205  1.2386  0.2818  0.3051
   24bbb     C9  745   0.309   6.928  -0.601  0.0267 -0.5197  0.0942
   24bbb    H17  746   0.292   6.828  -0.643 -0.6177  0.4938 -2.1983
   24bbb    H18  747   0.395   6.967  -0.657  0.0746 -0.7063  0.0388
   24bbb     O1  748   0.392   7.155  -0.063  0.1970 -0.0991  0.2151
   24bbb    H19  749   0.232   7.126  -0.204  1.1791 -1.7120  2.7138
   25bbb     N1  750   0.489   8.067  -0.350 -0.2348  0.1915  0.1579
   25bbb     C1  751   0.515   8.119  -0.493  0.1861 -0.3451 -0.0784
   25bbb     H1  752   0.432   8.184  -0.519  0.6858  1.8740  3.2115
   25bbb     H2  753   0.517   8.031  -0.556 -1.3292 -0.2683 -0.2663
   25bbb     C2  754   0.380   7.960  -0.340  0.5582 -0.3986 -0.5297
   25bbb     H3  755   0.370   7.928  -0.236 -0.5177  0.6106 -0.3063
   25bbb     H4  756   0.409   7.879  -0.408  0.6622  1.1769 -2.4532
   25bbb     C3  757   0.620   8.007  -0.291 -0.1342 -0.3637  0.2923
   25bbb     H5  758   0.694   8.088  -0.293 -0.2020 -0.3067  0.0730
   25bbb     H6  759   0.644   7.927  -0.361 -2.4271  0.8101 -2.0255
   25bbb     C4  760   0.629   7.955  -0.146 -0.1021  0.0334  0.1557
   25bbb     H7  761   0.560   7.871  -0.134  0.4435 -0.5409 -0.5797
   25bbb     H8  762   0.606   8.041  -0.082  1.0494  0.8937 -0.5364
   25bbb     C5  763   0.642   8.207  -0.526 -0.1828  0.3722  0.0024
   25bbb     H9  764   0.728   8.161  -0.477  0.0103  2.4085  1.6917
   25bbb    H10  765   0.633   8.305  -0.479 -1.9246  0.2457  0.0149
   25bbb     C6  766   0.249   8.021  -0.389  0.8080  0.0218 -0.3940
   25bbb    H11  767   0.243   8.052  -0.494 -0.9369  0.3887 -0.2153
   25bbb    H12  768   0.220   8.109  -0.331  0.8409 -0.9850  1.2235
   25bbb     C7  769   0.765   7.906  -0.105  0.4642  0.2289  0.2004
   25bbb    H13  770   0.762   7.898   0.004  0.8389  0.2596  0.2128
   25bbb    H14  771   0.833   7.984  -0.141 -0.3398  0.2018 -1.5005
   25bbb     C8  772   0.144   7.914  -0.358  0.1430 -0.5052 -1.0243
   25bbb    H15  773   0.147   7.890  -0.251  3.0427 -0.4655 -1.0324
   25bbb    H16  774   0.039   7.934  -0.383  0.4730  3.1084 -0.0249
   25bbb     C9  775   0.673   8.223  -0.679  1.2565 -0.1296  0.4575
   25bbb    H17  776   0.764   8.284  -0.689  0.3000  1.3761  0.6696
   25bbb    H18  777   0.584   8.265  -0.726  1.5414 -0.4559 -0.4024
   25bbb     O1  778   0.783   7.774  -0.162 -0.6448 -0.0643 -0.2708
   25bbb    H19  779   0.457   8.148  -0.295 -0.6782  0.2264 -0.1529
   26bbb     N1  780   1.990   7.608   2.373  0.0557 -0.0107  0.0484
   26bbb     C1  781   1.935   7.720   2.286  0.1183  1.0703 -0.4228
   26bbb     H1  782   1.956   7.691   2.183 -1.0417  0.3762 -0.4787
   26bbb     H2  783   1.986   7.813   2.311 -1.0335  0.8842  3.2184
   26bbb     C2  784   1.970   7.647   2.525  0.6383 -0.6447  0.1716
   26bbb     H3  785   1.997   7.558   2.583 -0.0780 -1.9382 -1.3854
   26bbb     H4  786   1.863   7.669   2.535  0.7523  0.2423 -0.4825
   26bbb     C3  787   1.923   7.477   2.337  0.5570  0.2114  0.2186
   26bbb     H5  788   1.956   7.458   2.235 -0.9259 -0.1723 -0.2187
   26bbb     H6  789   1.815   7.490   2.339  0.6154  1.1342 -1.0874
   26bbb     C4  790   1.960   7.352   2.422 -0.1718  0.0290 -0.5612
   26bbb     H7  791   1.890   7.356   2.507 -1.4375  1.3473 -1.6193
   26bbb     H8  792   2.064   7.359   2.456 -0.4980 -0.0175  0.5071
   26bbb     C5  793   1.789   7.764   2.297 -0.4023  0.3713 -0.0388
   26bbb     H9  794   1.757   7.806   2.394 -0.4317 -1.8337  0.9718
   26bbb    H10  795   1.713   7.686   2.279  1.6075 -1.4390 -1.0679
   26bbb     C6  796   2.034   7.776   2.581  0.0808 -0.5677  0.0012
   26bbb    H11  797   2.008   7.865   2.522 -1.1969 -0.5055  0.6146
   26bbb    H12  798   2.144   7.769   2.576  0.0944 -0.1664 -0.3533
   26bbb     C7  799   1.939   7.213   2.345 -0.1256 -0.9301 -0.3508
   26bbb    H13  800   1.942   7.124   2.410 -0.7916 -0.1271  0.8208
   26bbb    H14  801   2.018   7.199   2.271  1.1618  0.1869  0.7491
   26bbb     C8  802   2.003   7.794   2.725 -0.5691  0.8582 -0.3575
   26bbb    H15  803   2.016   7.703   2.784  1.2282  1.2405 -0.0900
   26bbb    H16  804   2.076   7.864   2.768  2.1369 -2.2639  0.5015
   26bbb     C9  805   1.759   7.866   2.193 -0.7579  0.7316 -0.9240
   26bbb    H17  806   1.653   7.895   2.190 -0.2195  2.9463 -0.1688
   26bbb    H18  807   1.801   7.824   2.101  1.7454  2.7091 -0.7988
   26bbb     O1  808   1.804   7.220   2.283 -0.1245  0.6332  0.4071
   26bbb    H19  809   2.092   7.604   2.357  0.0759  0.2890  0.0963
   27bbb     N1  810   1.352   7.871   1.674  0.1727 -0.0186 -0.3417
   27bbb     C1  811   1.383   7.902   1.825  0.4364 -0.5139  0.3090
   27bbb     H1  812   1.307   7.972   1.860 -1.3748 -1.9158 -0.6276
   27bbb     H2  813   1.474   7.962   1.828 -0.2324  0.5632 -0.2176
   27bbb     C2  814   1.348   7.990   1.590 -0.1437  0.3383  0.0506
   27bbb     H3  815   1.328   7.957   1.488  0.9882  1.4548 -0.5569
   27bbb     H4  816   1.447   8.035   1.586 -1.1172  2.5646 -0.3362
   27bbb     C3  817   1.452   7.775   1.622 -0.2707  0.1385  0.4630
   27bbb     H5  818   1.480   7.703   1.699  1.6972 -0.7590 -0.9950
   27bbb     H6  819   1.547   7.822   1.593 -1.0270  0.2983 -1.9233
   27bbb     C4  820   1.400   7.686   1.500 -0.4397  0.3026 -1.6036
   27bbb     H7  821   1.372   7.750   1.416  1.0463  1.2733 -1.4069
   27bbb     H8  822   1.308   7.634   1.528 -1.4223  1.4396 -2.6039
   27bbb     C5  823   1.371   7.787   1.925 -0.4084  0.6860 -0.2688
   27bbb     H9  824   1.457   7.725   1.899 -0.1821  1.9892 -3.0564
   27bbb    H10  825   1.271   7.741   1.918  0.0019 -0.5668  1.6073
   27bbb     C6  826   1.238   8.093   1.638 -0.1167  0.8809 -0.0245
   27bbb    H11  827   1.263   8.142   1.732 -0.0403 -2.9955  2.1941
   27bbb    H12  828   1.152   8.030   1.661  0.5809  0.2518  0.9281
   27bbb     C7  829   1.508   7.584   1.457  0.0954 -0.1537 -0.1464
   27bbb    H13  830   1.589   7.645   1.415 -0.2406  1.0331  0.8408
   27bbb    H14  831   1.462   7.526   1.376 -1.2428 -0.3526  0.7119
   27bbb     C8  832   1.212   8.188   1.524 -0.0223  0.1677  0.6783
   27bbb    H15  833   1.305   8.238   1.495  1.6720 -2.9273  0.3616
   27bbb    H16  834   1.139   8.262   1.558 -0.9228 -0.1903 -0.4281
   27bbb     C9  835   1.389   7.825   2.075  0.3158 -0.6740 -0.2092
   27bbb    H17  836   1.407   7.735   2.134  0.0594 -0.8290 -0.3635
   27bbb    H18  837   1.469   7.899   2.090 -0.7999  0.6489 -0.5374
   27bbb     O1  838   1.553   7.496   1.567 -0.5545 -0.0995 -0.6914
   27bbb    H19  839   1.259   7.828   1.669 -0.2612  1.0765 -3.2844
   28bbb     N1  840   0.163   6.493   2.858  0.2464  0.2103 -0.2739
   28bbb     C1  841   0.164   6.376   2.762  0.0976 -0.3529  0.6576
   28bbb     H1  842   0.122   6.293   2.818  1.8147 -2.5195 -1.0511
   28bbb     H2  843   0.270   6.355   2.745 -0.1174  0.6504 -2.9194
   28bbb     C2  844   0.230   6.466   2.989  0.1410  0.2034  0.5725
   28bbb     H3  845   0.252   6.557   3.044  2.1885 -0.8806  1.6426
   28bbb     H4  846   0.321   6.407   2.981  1.1183  1.4005  2.1640
   28bbb     C3  847   0.228   6.618   2.789 -0.0934  0.3632 -0.5530
   28bbb     H5  848   0.195   6.698   2.856  2.3705 -0.4923  1.8626
   28bbb     H6  849   0.175   6.625   2.694 -1.4561  1.6814  0.2729
   28bbb     C4  850   0.387   6.616   2.790  0.1205  0.0554  0.0710
   28bbb     H7  851   0.432   6.565   2.876  0.4253  0.3985  0.1201
   28bbb     H8  852   0.421   6.721   2.793 -1.2553  0.5018  1.2081
   28bbb     C5  853   0.100   6.400   2.624  0.5840 -0.4059 -0.3606
   28bbb     H9  854   0.136   6.491   2.575  0.0112 -0.3547 -0.6938
   28bbb    H10  855  -0.008   6.420   2.631  0.9007  1.6068 -0.5677
   28bbb     C6  856   0.137   6.387   3.080 -0.1848 -0.2104 -0.4479
   28bbb    H11  857   0.189   6.334   3.161 -0.9315 -2.7881 -1.5594
   28bbb    H12  858   0.095   6.301   3.028 -0.0660  0.4165 -1.6064
   28bbb     C7  859   0.438   6.559   2.654 -0.1693 -0.1043  0.0953
   28bbb    H13  860   0.416   6.452   2.646 -1.6028  0.2185 -0.5482
   28bbb    H14  861   0.547   6.573   2.651 -0.0843 -0.8367 -1.0741
   28bbb     C8  862   0.022   6.476   3.142  0.4519  0.5580  0.6144
   28bbb    H15  863  -0.047   6.522   3.071  0.6826 -0.1230 -0.0668
   28bbb    H16  864  -0.034   6.405   3.205 -1.7376  1.7876  0.1564
   28bbb     C9  865   0.112   6.276   2.534  1.1229  0.6118  0.1582
   28bbb    H17  866   0.042   6.292   2.451 -1.3758 -0.8901  1.8732
   28bbb    H18  867   0.101   6.189   2.599 -0.6593  0.4831 -0.2785
   28bbb     O1  868   0.367   6.611   2.538 -0.0077  0.0809  0.3479
   28bbb    H19  869   0.062   6.512   2.872  0.1396 -0.7261  0.2892
   29bbb     N1  870   0.020   6.162   1.752 -0.0187 -0.3030 -0.7774
   29bbb     C1  871   0.137   6.075   1.722 -0.3999 -0.2674 -0.2671
   29bbb     H1  872   0.103   5.971   1.717  1.3350 -0.9811  1.3509
   29bbb     H2  873   0.207   6.090   1.804 -0.7284  3.3761 -0.5075
   29bbb     C2  874  -0.102   6.081   1.708  0.2806 -0.2740 -0.0382
   29bbb     H3  875  -0.107   5.984   1.759  1.2642 -0.2695  0.0913
   29bbb     H4  876  -0.100   6.050   1.604 -0.6067  2.5381 -0.9750
   29bbb     C3  877   0.005   6.186   1.901 -0.2450 -0.1068 -0.2932
   29bbb     H5  878   0.012   6.090   1.952 -1.1011 -0.7655 -1.3842
   29bbb     H6  879  -0.095   6.230   1.913 -0.8048 -0.9114 -1.7323
   29bbb     C4  880   0.121   6.283   1.949  0.2078 -0.1684  0.1889
   29bbb     H7  881   0.123   6.373   1.886  0.3950 -0.4280 -0.1776
   29bbb     H8  882   0.220   6.238   1.940  0.8707  1.3321 -0.3941
   29bbb     C5  883   0.223   6.110   1.597 -0.0169 -0.0579  0.1589
   29bbb     H9  884   0.153   6.142   1.519 -1.9941 -1.7730  1.1359
   29bbb    H10  885   0.287   6.026   1.567 -1.1553 -1.2646  0.9920
   29bbb     C6  886  -0.241   6.150   1.727  0.2257 -0.2261  0.0655
   29bbb    H11  887  -0.245   6.236   1.659  1.9204 -0.4394 -0.3587
   29bbb    H12  888  -0.259   6.182   1.830 -0.0394 -0.5569  0.1209
   29bbb     C7  889   0.106   6.339   2.093  0.6037  0.2017 -0.5379
   29bbb    H13  890   0.191   6.402   2.122 -0.6277  3.0189 -2.6459
   29bbb    H14  891   0.083   6.253   2.157 -3.7190  1.1495 -0.5143
   29bbb     C8  892  -0.352   6.059   1.687 -0.0049  0.7370  0.1903
   29bbb    H15  893  -0.357   5.967   1.747  3.2642  1.0514  1.1417
   29bbb    H16  894  -0.447   6.108   1.711 -2.2790 -2.7286 -0.9832
   29bbb     C9  895   0.317   6.226   1.632 -0.8398 -0.2249 -0.3764
   29bbb    H17  896   0.386   6.235   1.548 -0.0967  0.3339  0.2836
   29bbb    H18  897   0.377   6.210   1.722  0.3856  1.3858 -0.8594
   29bbb     O1  898  -0.018   6.424   2.089 -0.0528  0.2038 -0.1845
   29bbb    H19  899   0.032   6.247   1.696  1.2052  1.0594  1.4017
   30ccc     C1  900   1.216  10.396   2.165 -0.6686 -0.0818 -0.5671
   30ccc     C2  901   1.129  10.300   2.096  0.0865  0.3992 -0.7952
   30ccc     H1  902   1.320  10.362   2.178 -0.5669  0.1615 -0.7420
   30ccc     H2  903   1.155  10.285   1.991 -0.5040  0.7158 -0.9936
   30ccc     C3  904   1.142  10.164   2.159  0.1986 -0.2211  0.3288
   30ccc     C4  905   1.120  10.168   2.309 -0.8050  0.1323  0.0258
   30ccc     C5  906   1.187  10.292   2.377 -0.1996  0.4925 -0.3668
   30ccc     H3  907   1.012  10.181   2.323 -0.8369 -1.2486  1.3404
   30ccc     H4  908   1.242  10.127   2.135  0.0954  0.5548 -1.4210
   30ccc     H5  909   1.296  10.281   2.378 -0.3150 -1.0269  1.7101
   30ccc     O1  910   1.135  10.300   2.511  0.7286 -0.0697 -0.1202
   30ccc     O2  911   1.164  10.040   2.372  0.3609 -0.2680 -0.3094
   30ccc     O3  912   1.041  10.085   2.097 -0.4025 -0.0672 -0.2462
   30ccc     O4  913   0.991  10.344   2.102  0.1471  0.6991  0.2547
   30ccc     C6  914   1.216  10.537   2.101  0.5082  0.6314 -0.0958
   30ccc     H6  915   1.085  10.004   2.065 -0.0346 -0.1675  0.4693
   30ccc     H7  916   0.951  10.267   2.059  0.3248  0.3583  0.6926
   30ccc     H8  917   1.148  10.027   2.467  0.4503 -1.7367 -0.4826
   30ccc     H9  918   1.111  10.567   2.106  0.3705  0.8827 -2.9718
   30ccc    H10  919   1.254  10.527   1.999  2.2826  0.0195  0.5795
   30ccc     O5  920   1.295  10.622   2.178 -0.7915 -0.4963 -0.3541
   30ccc    H11  921   1.299  10.708   2.133  0.2765  0.7181  1.8899
   30ccc     O6  922   1.167  10.413   2.299 -0.1141  0.0044  0.0003
   31ccc     C1  923   0.807  10.986   3.030  0.3602 -0.6420 -0.5493
   31ccc     C2  924   0.904  11.031   2.920  0.3765  0.0506  0.1463
   31ccc     H1  925   0.827  11.036   3.125  0.9522  0.8618 -1.4133
   31ccc     H2  926   0.921  11.139   2.916  3.1468 -0.2545  1.0393
   31ccc     C3  927   1.045  10.972   2.934  0.1233  0.4952  0.3410
   31ccc     C4  928   1.034  10.818   2.954 -0.6880 -0.9937 -0.9052
   31ccc     C5  929   0.936  10.784   3.070 -0.6870  0.2290  0.0434
   31ccc     H3  930   0.995  10.777   2.860 -1.5662  0.1421 -1.0617
   31ccc     H4  931   1.079  11.016   3.029  1.2161  0.3001  0.0528
   31ccc     H5  932   0.973  10.824   3.165  1.0753 -1.5591  0.1785
   31ccc     O1  933   0.917  10.634   3.076  0.2369 -0.1224 -0.1101
   31ccc     O2  934   1.164  10.767   2.987 -0.1501 -0.1360 -0.8205
   31ccc     O3  935   1.141  11.006   2.833  0.2299  0.2576 -0.1940
   31ccc     O4  936   0.851  10.982   2.796 -0.1882 -0.1809 -0.1467
   31ccc     C6  937   0.664  11.030   3.001  0.6464 -0.1724 -0.5519
   31ccc     H6  938   1.225  10.962   2.854 -0.1810 -0.4237  0.0395
   31ccc     H7  939   0.927  10.995   2.737  0.2002  1.8750  0.7242
   31ccc     H8  940   1.155  10.679   3.028  2.4129 -0.1438 -0.1053
   31ccc     H9  941   0.629  10.987   2.906  1.3331  0.0828 -0.9289
   31ccc    H10  942   0.656  11.139   2.990 -1.2332 -0.2348 -0.1365
   31ccc     O5  943   0.572  10.990   3.104 -0.0946  0.3798 -0.1427
   31ccc    H11  944   0.610  11.036   3.181  2.0426 -0.6594 -0.5059
   31ccc     O6  945   0.802  10.843   3.046 -0.3047 -0.1496  0.0026
   32ccc     C1  946   0.226  10.544   2.958 -0.4973  0.0071  0.0528
   32ccc     C2  947   0.307  10.607   3.074 -0.0719 -0.4097 -0.3876
   32ccc     H1  948   0.123  10.532   2.993 -0.9617  0.9452 -0.9379
   32ccc     H2  949   0.263  10.705   3.093  0.4688  0.2746 -2.3926
   32ccc     C3  950   0.303  10.509   3.190  0.6160  0.5934 -0.0667
   32ccc     C4  951   0.361  10.375   3.142  0.4153  0.2603  0.0798
   32ccc     C5  952   0.287  10.318   3.014  0.2565  0.8099 -0.0564
   32ccc     H3  953   0.465  10.397   3.116  0.3158 -1.2109 -1.7792
   32ccc     H4  954   0.197  10.493   3.214  1.1530 -0.4544  1.8036
   32ccc     H5  955   0.188  10.282   3.041  0.9832  0.3440  2.1892
   32ccc     O1  956   0.375  10.210   2.988 -0.2938 -0.9989  0.0599
   32ccc     O2  957   0.365  10.282   3.253  0.3080  0.5454 -0.1502
   32ccc     O3  958   0.376  10.553   3.315 -0.5388  0.7323 -0.2643
   32ccc     O4  959   0.448  10.629   3.046 -0.5788 -0.3328 -0.6698
   32ccc     C6  960   0.219  10.640   2.840 -0.3941 -1.0522 -0.8079
   32ccc     H6  961   0.347  10.643   3.336  0.7220  1.0942  0.0500
   32ccc     H7  962   0.485  10.654   3.133 -2.0002 -0.2744 -0.0486
   32ccc     H8  963   0.438  10.326   3.301  1.8964 -1.7668 -0.2734
   32ccc     H9  964   0.159  10.727   2.871 -1.3237 -1.5603 -1.1639
   32ccc    H10  965   0.157  10.584   2.769 -1.6013 -0.4152 -0.2897
   32ccc     O5  966   0.352  10.673   2.793 -0.0355 -0.3968  0.7037
   32ccc    H11  967   0.405  10.663   2.874  0.1989  0.3902  0.6520
   32ccc     O6  968   0.296  10.423   2.916  0.1531  0.7222  0.6597
   33ccc     C1  969   0.090   9.533   3.353  0.4326 -0.3272 -0.0996
   33ccc     C2  970  -0.007   9.621   3.260  0.2854 -0.3186  0.1472
   33ccc     H1  971   0.089   9.566   3.457 -0.8257 -1.4600  0.2772
   33ccc     H2  972  -0.103   9.602   3.310  1.7764 -3.4718  2.1769
   33ccc     C3  973   0.035   9.771   3.283  0.4456  0.0180  0.2286
   33ccc     C4  974   0.180   9.776   3.234  0.4736 -0.2896 -0.1838
   33ccc     C5  975   0.272   9.690   3.316 -0.4396  0.2389  0.0455
   33ccc     H3  976   0.182   9.745   3.129 -1.4343  0.4181 -0.4640
   33ccc     H4  977   0.024   9.793   3.389 -0.3447  0.6710  0.0143
   33ccc     H5  978   0.282   9.727   3.418 -2.8507  0.2396  0.3386
   33ccc     O1  979   0.399   9.699   3.244 -0.3195 -0.8060 -0.3856
   33ccc     O2  980   0.220   9.915   3.263  0.3695 -0.0331  0.0233
   33ccc     O3  981  -0.041   9.864   3.204 -0.2427  0.2373 -0.3612
   33ccc     O4  982   0.005   9.584   3.116 -0.2553  0.4953  0.0990
   33ccc     C6  983   0.049   9.386   3.345  0.1071 -0.1678 -0.6604
   33ccc     H6  984  -0.133   9.847   3.228 -0.0607  2.1491  2.0737
   33ccc     H7  985  -0.079   9.615   3.077 -0.1836 -0.0870 -0.5280
   33ccc     H8  986   0.142   9.953   3.219  1.4137 -0.7912 -2.6935
   33ccc     H9  987   0.121   9.338   3.278 -0.8111 -0.2114 -1.6458
   33ccc    H10  988  -0.052   9.373   3.303 -0.7121  0.7359  0.9390
   33ccc     O5  989   0.051   9.343   3.482 -0.6179  0.1513  0.3505
   33ccc    H11  990   0.104   9.262   3.484 -0.1427  0.4459  0.0116
   33ccc     O6  991   0.224   9.551   3.304 -0.6988 -0.1459 -0.3685
   34ccc     C1  992   0.731  10.667   0.597 -0.0791  0.4639  0.2184
   34ccc     C2  993   0.878  10.684   0.561 -1.6634 -0.0602 -0.1348
   34ccc     H1  994   0.681  10.764   0.591 -1.4646 -0.1647  0.9666
   34ccc     H2  995   0.893  10.733   0.463 -0.2298 -0.8808 -0.3573
   34ccc     C3  996   0.941  10.774   0.673 -0.5148  0.4256  0.3310
   34ccc     C4  997   0.931  10.716   0.818  0.2855  0.4023  0.8772
   34ccc     C5  998   0.776  10.686   0.838  0.4611  0.1976  0.0321
   34ccc     H3  999   0.980  10.618   0.825 -1.0505 -0.4126 -0.4539
   34ccc     H4 1000   0.883  10.867   0.668 -0.2351  0.8332  3.1154
   34ccc     H5 1001   0.714  10.775   0.855 -1.1179 -1.3414  3.1611
   34ccc     O1 1002   0.770  10.605   0.958  0.1322 -0.2798 -0.3087
   34ccc     O2 1003   0.989  10.816   0.907  0.1127 -0.3322 -0.6832
   34ccc     O3 1004   1.085  10.809   0.643 -0.1412 -0.1490 -0.0900
   34ccc     O4 1005   0.947  10.561   0.563 -0.0716 -0.2944  0.6189
   34ccc     C6 1006   0.648  10.581   0.501  0.6248 -0.0894 -0.0990
   34ccc     H6 1007   1.090  10.865   0.564  0.5295 -1.4059 -0.9969
   34ccc     H7 1008   1.038  10.590   0.543  0.0488 -0.8690  0.3069
   34ccc     H8 1009   1.075  10.782   0.936 -0.5803 -0.8768  0.8060
   34ccc     H9 1010   0.667  10.473   0.503 -2.0598 -0.6190  1.4189
   34ccc    H10 1011   0.670  10.611   0.398  0.3582  1.9473  0.4000
   34ccc     O5 1012   0.511  10.590   0.516  0.5148 -0.2489 -0.3077
   34ccc    H11 1013   0.474  10.531   0.447 -0.6674 -0.9557  0.8916
   34ccc     O6 1014   0.708  10.619   0.732  0.2134  0.4664 -0.2979
   35ccc     C1 1015   1.106  11.294   1.469 -0.2806  0.0126 -0.6386
   35ccc     C2 1016   1.237  11.216   1.464 -0.1445  1.1765 -0.8327
   35ccc     H1 1017   1.108  11.357   1.559 -2.9124 -1.2993  0.4529
   35ccc     H2 1018   1.316  11.292   1.471  0.8783  0.1345 -0.6422
   35ccc     C3 1019   1.241  11.114   1.580 -0.6224 -0.2943 -0.2237
   35ccc     C4 1020   1.118  11.020   1.588 -0.1365  0.4943  0.4005
   35ccc     C5 1021   0.983  11.092   1.572 -0.0221 -0.7101 -0.8208
   35ccc     H3 1022   1.150  10.957   1.504 -1.1366  0.9211 -0.3276
   35ccc     H4 1023   1.245  11.179   1.668 -0.8214  1.3001 -1.3596
   35ccc     H5 1024   0.946  11.127   1.669  0.7238 -1.1050 -0.3807
   35ccc     O1 1025   0.884  10.991   1.536  0.1056  0.4474 -0.1180
   35ccc     O2 1026   1.129  10.946   1.711  0.1843 -0.4695  1.1419
   35ccc     O3 1027   1.354  11.032   1.569 -0.7017  0.1519 -0.1560
   35ccc     O4 1028   1.249  11.146   1.342  0.2775  0.2010 -0.1900
   35ccc     C6 1029   1.083  11.390   1.354  0.1189 -0.0477 -0.3868
   35ccc     H6 1030   1.428  11.090   1.595  0.6562 -0.8906 -1.5080
   35ccc     H7 1031   1.335  11.100   1.346 -1.0558 -2.4705  0.4247
   35ccc     H8 1032   1.224  10.927   1.702 -0.0699 -0.5824 -4.0107
   35ccc     H9 1033   1.157  11.471   1.352  1.0478 -0.8261  0.8769
   35ccc    H10 1034   0.984  11.439   1.360  1.1617  2.2865 -0.9887
   35ccc     O5 1035   1.098  11.321   1.226 -0.3519 -0.1274 -0.1814
   35ccc    H11 1036   1.147  11.243   1.258  1.6661  0.8230 -0.7439
   35ccc     O6 1037   0.997  11.200   1.474  0.0991  0.5150 -0.1278
   36ccc     C1 1038  -0.501   9.651   0.397 -0.3549  0.2599 -0.1062
   36ccc     C2 1039  -0.396   9.571   0.322  0.3089  0.1039 -0.0094
   36ccc     H1 1040  -0.563   9.692   0.316  1.0605  1.9930 -0.3728
   36ccc     H2 1041  -0.438   9.487   0.266  2.4230 -0.4310 -0.9143
   36ccc     C3 1042  -0.320   9.662   0.218 -0.1589 -0.6823 -0.5898
   36ccc     C4 1043  -0.275   9.801   0.277  0.1839 -0.0480  0.6599
   36ccc     C5 1044  -0.374   9.861   0.378  0.1954  0.3152  0.5940
   36ccc     H3 1045  -0.194   9.764   0.342  0.7800  1.2683  0.6905
   36ccc     H4 1046  -0.401   9.687   0.149  0.5821 -2.0585 -2.0284
   36ccc     H5 1047  -0.456   9.920   0.336  0.0408 -1.2253 -1.4348
   36ccc     O1 1048  -0.298   9.951   0.451 -0.0311  0.4764  0.2325
   36ccc     O2 1049  -0.227   9.889   0.173  0.1249 -0.0027 -0.9507
   36ccc     O3 1050  -0.205   9.593   0.160  0.8033 -0.1202  0.1062
   36ccc     O4 1051  -0.302   9.518   0.420  0.2895 -0.5176 -0.0794
   36ccc     C6 1052  -0.591   9.564   0.487 -0.0620  0.6991 -0.5231
   36ccc     H6 1053  -0.191   9.643   0.078  0.0466 -1.3504 -0.7969
   36ccc     H7 1054  -0.267   9.442   0.370  1.1417 -0.7406  0.8083
   36ccc     H8 1055  -0.186   9.953   0.233 -1.3695 -1.5593  1.9377
   36ccc     H9 1056  -0.540   9.538   0.581 -0.2906 -2.5543 -1.1709
   36ccc    H10 1057  -0.608   9.465   0.444 -0.0642 -0.0174  1.0314
   36ccc     O5 1058  -0.715   9.622   0.503  0.3464  0.2863 -0.0590
   36ccc    H11 1059  -0.694   9.703   0.552  0.9340  2.3604 -3.4121
   36ccc     O6 1060  -0.436   9.766   0.470  0.1274  0.3413 -0.2901
   37ccc     C1 1061   0.297  10.064   0.125  0.1640 -0.0431  0.2317
   37ccc     C2 1062   0.224  10.197   0.092  0.5610  0.4494 -0.0402
   37ccc     H1 1063   0.273   9.997   0.041  0.9079 -0.1937  0.1267
   37ccc     H2 1064   0.237  10.230  -0.012  0.8099  0.4692 -0.0047
   37ccc     C3 1065   0.074  10.176   0.112 -0.2085 -0.0525  0.3072
   37ccc     C4 1066   0.041  10.124   0.259  0.3458 -0.1600  0.4209
   37ccc     C5 1067   0.116   9.995   0.278  0.7068 -0.5296  1.1296
   37ccc     H3 1068   0.083  10.198   0.330 -0.8696  2.2806 -1.2603
   37ccc     H4 1069   0.041  10.097   0.043 -1.8792 -0.6024  1.6660
   37ccc     H5 1070   0.075   9.916   0.213  0.4292  1.0782 -0.7674
   37ccc     O1 1071   0.100   9.947   0.419 -0.1817 -0.5248  0.3465
   37ccc     O2 1072  -0.097  10.096   0.277 -0.0873  1.0612 -0.5216
   37ccc     O3 1073  -0.005  10.303   0.095  0.2079 -0.2535  0.2696
   37ccc     O4 1074   0.277  10.295   0.170  0.3418 -0.2355 -0.0683
   37ccc     C6 1075   0.452  10.069   0.117 -0.1317 -0.3632  0.2731
   37ccc     H6 1076   0.009  10.330   0.003 -2.3705 -0.8239 -0.3723
   37ccc     H7 1077   0.245  10.378   0.130 -3.2569 -1.4874 -0.0946
   37ccc     H8 1078  -0.141  10.177   0.308  0.7787  0.4706  2.5689
   37ccc     H9 1079   0.506  10.112   0.202 -0.6144 -0.5627  0.6863
   37ccc    H10 1080   0.488  10.123   0.028  1.2840  0.6260  1.3886
   37ccc     O5 1081   0.501   9.934   0.104  0.0193 -0.2195  0.5498
   37ccc    H11 1082   0.585   9.943   0.056 -0.0007 -1.2546  0.2896
   37ccc     O6 1083   0.262  10.013   0.249 -0.0267 -0.7574 -0.0244
   38ccc     C1 1084  -0.569   8.478   2.144  0.0132 -0.4171  0.2959
   38ccc     C2 1085  -0.663   8.594   2.187  0.5231 -0.2339 -0.5457
   38ccc     H1 1086  -0.599   8.441   2.045  0.8519 -2.0824  0.6151
   38ccc     H2 1087  -0.644   8.684   2.127  0.6520 -0.1912 -0.4406
   38ccc     C3 1088  -0.811   8.552   2.170  0.4118 -0.4440 -0.2045
   38ccc     C4 1089  -0.844   8.422   2.245  0.6981  0.1144 -0.6002
   38ccc     C5 1090  -0.736   8.316   2.222 -0.1205 -0.6519 -0.2885
   38ccc     H3 1091  -0.836   8.459   2.348 -1.1893 -2.0048  0.3945
   38ccc     H4 1092  -0.828   8.518   2.067 -2.2700 -2.9457  0.9086
   38ccc     H5 1093  -0.757   8.273   2.123 -4.1660  0.8755 -0.2693
   38ccc     O1 1094  -0.751   8.221   2.326 -0.0824  0.0852 -0.0773
   38ccc     O2 1095  -0.975   8.368   2.217  0.4630  0.4931  0.1464
   38ccc     O3 1096  -0.902   8.660   2.212  0.4394  0.0111 -0.4681
   38ccc     O4 1097  -0.625   8.620   2.319 -0.3328 -0.3233 -0.1651
   38ccc     C6 1098  -0.416   8.507   2.144  0.4441 -0.6598 -0.4466
   38ccc     H6 1099  -0.993   8.628   2.217 -0.1174  1.5852  3.0798
   38ccc     H7 1100  -0.528   8.614   2.316 -0.2879  0.5792 -1.7265
   38ccc     H8 1101  -0.966   8.335   2.126  0.4141  1.4175 -0.1980
   38ccc     H9 1102  -0.403   8.565   2.052  3.1706  1.3066  1.0273
   38ccc    H10 1103  -0.370   8.411   2.120 -0.4464 -1.4776  0.9724
   38ccc     O5 1104  -0.376   8.569   2.269  0.0180 -0.0782 -0.0252
   38ccc    H11 1105  -0.288   8.606   2.252  0.4996 -0.9619  0.4951
   38ccc     O6 1106  -0.598   8.370   2.225  0.2355  0.3068 -0.0743
   39ccc     C1 1107  -0.723   8.093   3.442 -0.1047 -0.3290 -0.2424
   39ccc     C2 1108  -0.756   7.961   3.515 -0.1503 -0.0733  0.7904
   39ccc     H1 1109  -0.806   8.157   3.410  0.8235  1.1473  0.2427
   39ccc     H2 1110  -0.825   7.985   3.597 -2.0643  0.0106 -0.7720
   39ccc     C3 1111  -0.826   7.859   3.420  0.0549  0.2638 -0.6442
   39ccc     C4 1112  -0.780   7.859   3.269 -0.2687  0.3266  0.0557
   39ccc     C5 1113  -0.723   7.992   3.219  0.1436 -0.5255 -0.0645
   39ccc     H3 1114  -0.708   7.777   3.261 -2.4142 -1.6138 -0.6526
   39ccc     H4 1115  -0.931   7.889   3.429  0.1029 -0.2205  3.0713
   39ccc     H5 1116  -0.810   8.053   3.191  1.2297  1.5093  0.7537
   39ccc     O1 1117  -0.660   7.983   3.082  0.0103  0.1877 -0.0168
   39ccc     O2 1118  -0.887   7.797   3.185 -0.1653  0.5151 -0.1188
   39ccc     O3 1119  -0.826   7.726   3.480  0.7811 -1.0190  0.0795
   39ccc     O4 1120  -0.636   7.900   3.576 -0.0192  0.2447  0.9568
   39ccc     C6 1121  -0.639   8.173   3.543 -0.6206  0.1307  0.4857
   39ccc     H6 1122  -0.735   7.706   3.509  0.7480 -3.0275 -0.9641
   39ccc     H7 1123  -0.668   7.887   3.667  0.7636  0.5248  1.2866
   39ccc     H8 1124  -0.844   7.743   3.116 -3.1568 -1.7748 -0.3734
   39ccc     H9 1125  -0.539   8.129   3.554 -0.9879 -1.0101 -0.5341
   39ccc    H10 1126  -0.695   8.175   3.637  0.2078 -0.1139  0.9995
   39ccc     O5 1127  -0.622   8.306   3.487 -0.0903  1.0303  0.1403
   39ccc    H11 1128  -0.555   8.348   3.544 -1.5736  2.3729  0.9646
   39ccc     O6 1129  -0.647   8.066   3.321  0.0565  0.2954  0.1461
   40ccc     C1 1130   1.211   7.473   3.161 -0.2958 -0.1038 -0.8252
   40ccc     C2 1131   1.328   7.523   3.080 -0.6095  0.1193  0.6711
   40ccc     H1 1132   1.144   7.407   3.103 -1.6592  2.3131 -2.1598
   40ccc     H2 1133   1.394   7.437   3.066 -1.8783 -1.3998  3.4076
   40ccc     C3 1134   1.285   7.582   2.950 -0.2237  0.2875  0.3049
   40ccc     C4 1135   1.179   7.689   2.979 -0.3792 -0.5695 -0.5845
   40ccc     C5 1136   1.067   7.639   3.069  0.1801 -1.0180  0.1227
   40ccc     H3 1137   1.227   7.772   3.032  2.3995 -2.2993 -0.1884
   40ccc     H4 1138   1.238   7.500   2.894 -1.1765 -0.5823  2.2682
   40ccc     H5 1139   1.011   7.560   3.016 -0.3896 -0.3454 -0.2856
   40ccc     O1 1140   0.979   7.747   3.111 -0.1620 -0.1309 -0.1386
   40ccc     O2 1141   1.112   7.731   2.857 -0.7464  0.1962  0.5756
   40ccc     O3 1142   1.397   7.627   2.872  0.1468  0.0205 -0.4836
   40ccc     O4 1143   1.397   7.624   3.156  0.3445  0.0109  0.0693
   40ccc     C6 1144   1.251   7.407   3.293  0.2058 -1.0750 -0.1308
   40ccc     H6 1145   1.428   7.554   2.816  0.2387 -0.9794  0.8266
   40ccc     H7 1146   1.470   7.648   3.096  1.4814  1.0007  1.7456
   40ccc     H8 1147   1.164   7.810   2.834 -0.0462 -0.1409  0.9551
   40ccc     H9 1148   1.305   7.480   3.354  0.7073 -0.4512 -1.3024
   40ccc    H10 1149   1.316   7.322   3.273 -0.6638 -1.4884 -1.3265
   40ccc     O5 1150   1.134   7.361   3.358 -0.1567  0.4242  0.2498
   40ccc    H11 1151   1.120   7.283   3.302 -2.4307  2.5606 -2.5131
   40ccc     O6 1152   1.129   7.585   3.186 -0.1326  0.2319  0.5685
   41ccc     C1 1153   0.617   7.470   2.765 -0.3629  0.4007 -0.3792
   41ccc     C2 1154   0.777   7.450   2.764 -0.1969 -0.2292  0.3530
   41ccc     H1 1155   0.561   7.470   2.671  1.3669  1.7831 -1.4857
   41ccc     H2 1156   0.809   7.357   2.716 -0.3887  0.1490 -0.5268
   41ccc     C3 1157   0.854   7.566   2.693 -0.6003 -0.2574 -0.2320
   41ccc     C4 1158   0.806   7.700   2.757  0.4696 -0.2326 -0.2479
   41ccc     C5 1159   0.646   7.710   2.765 -0.1913  0.9212 -0.3159
   41ccc     H3 1160   0.833   7.699   2.864 -2.3740  1.1335  0.5845
   41ccc     H4 1161   0.822   7.561   2.588 -0.7810  0.8849 -0.2428
   41ccc     H5 1162   0.608   7.717   2.662 -0.4601 -0.1178 -0.3009
   41ccc     O1 1163   0.616   7.837   2.820 -0.5995 -0.5646 -0.4944
   41ccc     O2 1164   0.862   7.809   2.680  0.1217 -0.2251 -0.3913
   41ccc     O3 1165   0.999   7.565   2.689 -0.0671  0.2170 -0.0916
   41ccc     O4 1166   0.826   7.449   2.898  0.8346 -0.2454  0.2431
   41ccc     C6 1167   0.552   7.356   2.838 -0.5235  0.7103 -0.3892
   41ccc     H6 1168   1.033   7.634   2.749 -0.0779  0.1986 -0.0647
   41ccc     H7 1169   0.821   7.357   2.929 -1.8684  0.6196  2.7644
   41ccc     H8 1170   0.861   7.886   2.739 -1.6304  1.4580 -2.4444
   41ccc     H9 1171   0.560   7.368   2.947 -1.4453 -1.3902 -0.0284
   41ccc    H10 1172   0.597   7.261   2.806 -1.4026  0.7198 -1.7165
   41ccc     O5 1173   0.411   7.358   2.817 -0.0748  0.1941 -0.2073
   41ccc    H11 1174   0.387   7.269   2.850 -0.3689  0.7553  1.1257
   41ccc     O6 1175   0.591   7.594   2.835 -0.1544  0.3743  0.2384
   42ccc     C1 1176  -1.423   8.692   1.692 -0.3291 -0.1676 -0.9779
   42ccc     C2 1177  -1.508   8.572   1.742  0.3353 -0.0923  0.6285
   42ccc     H1 1178  -1.327   8.657   1.651 -0.0567  0.3772 -0.8122
   42ccc     H2 1179  -1.530   8.506   1.658  3.0674 -0.0086 -0.2524
   42ccc     C3 1180  -1.446   8.485   1.857  0.1051 -0.1819  0.9343
   42ccc     C4 1181  -1.401   8.578   1.973 -0.1291 -0.7815 -0.2909
   42ccc     C5 1182  -1.332   8.708   1.921 -0.0231 -0.1313  0.2328
   42ccc     H3 1183  -1.484   8.614   2.034  0.5973 -0.7826  0.7287
   42ccc     H4 1184  -1.348   8.441   1.834  0.6093 -1.1849  4.4406
   42ccc     H5 1185  -1.228   8.685   1.897  0.1284 -1.5384  2.0306
   42ccc     O1 1186  -1.339   8.797   2.040 -0.3333  0.8356 -0.0409
   42ccc     O2 1187  -1.310   8.502   2.060 -0.3921 -0.3592 -0.1371
   42ccc     O3 1188  -1.541   8.386   1.894  0.1077  0.0230 -0.6815
   42ccc     O4 1189  -1.632   8.624   1.785  0.1593 -0.0521  0.1744
   42ccc     C6 1190  -1.495   8.770   1.578 -0.5324  0.2976 -1.3399
   42ccc     H6 1191  -1.632   8.419   1.883 -0.5703 -1.5747 -0.0572
   42ccc     H7 1192  -1.691   8.606   1.709 -1.6833 -1.1202  1.7765
   42ccc     H8 1193  -1.341   8.410   2.056 -1.8369  0.0979  0.0487
   42ccc     H9 1194  -1.584   8.821   1.615  0.4808  0.7250  0.6513
   42ccc    H10 1195  -1.516   8.697   1.499  2.6470 -0.6904 -1.4312
   42ccc     O5 1196  -1.398   8.854   1.527 -0.1576 -0.0714  0.3346
   42ccc    H11 1197  -1.359   8.888   1.609  0.0206 -0.3764  0.3798
   42ccc     O6 1198  -1.400   8.773   1.807  0.1390 -0.2862 -0.0936
   43ccc     C1 1199  -1.616   8.696   3.084  0.3369 -0.9163  0.3089
   43ccc     C2 1200  -1.543   8.556   3.076  0.6435 -0.1093 -0.2166
   43ccc     H1 1201  -1.724   8.678   3.085  0.1965 -0.0932  0.0676
   43ccc     H2 1202  -1.575   8.502   3.165 -1.0913  0.7566 -0.2848
   43ccc     C3 1203  -1.603   8.481   2.948  0.4444 -0.4722 -0.4318
   43ccc     C4 1204  -1.573   8.572   2.820 -0.1343  1.0526 -0.6299
   43ccc     C5 1205  -1.620   8.717   2.845 -0.6969  0.1232 -0.4399
   43ccc     H3 1206  -1.465   8.555   2.808 -0.0003 -1.4024  2.7035
   43ccc     H4 1207  -1.712   8.475   2.958  0.0867  1.3476 -2.4853
   43ccc     H5 1208  -1.729   8.716   2.831 -0.6173 -4.0759 -2.1308
   43ccc     O1 1209  -1.559   8.794   2.741  0.3164 -0.2536 -0.1776
   43ccc     O2 1210  -1.646   8.503   2.715 -0.2292 -0.8384 -0.7678
   43ccc     O3 1211  -1.546   8.342   2.930  0.0282 -0.6175 -0.3690
   43ccc     O4 1212  -1.407   8.575   3.066 -0.1157 -0.0759  1.0443
   43ccc     C6 1213  -1.580   8.777   3.213 -0.3643 -0.1359 -0.3189
   43ccc     H6 1214  -1.622   8.283   2.917 -0.8559  0.5163 -0.4969
   43ccc     H7 1215  -1.406   8.666   3.099 -3.2006 -0.0243  1.2774
   43ccc     H8 1216  -1.601   8.423   2.684 -1.2099 -1.5386 -0.4186
   43ccc     H9 1217  -1.589   8.716   3.303  1.8438 -0.5413 -0.3030
   43ccc    H10 1218  -1.649   8.863   3.219  1.2981  1.2163  0.3958
   43ccc     O5 1219  -1.445   8.816   3.200 -0.2561 -0.2468  0.2066
   43ccc    H11 1220  -1.429   8.857   3.287 -2.6933 -0.5947  0.9057
   43ccc     O6 1221  -1.578   8.770   2.967  0.0427 -0.5491 -0.3431
   44ccc     C1 1222  -1.379   8.434   2.500 -0.2007 -0.1150 -0.2003
   44ccc     C2 1223  -1.288   8.459   2.378 -0.5394 -0.5424  0.5980
   44ccc     H1 1224  -1.478   8.474   2.476 -0.6900  0.1867  2.0876
   44ccc     H2 1225  -1.343   8.420   2.291 -2.8315 -0.0111  1.7312
   44ccc     C3 1226  -1.251   8.606   2.343 -0.4235  0.0956  0.1238
   44ccc     C4 1227  -1.195   8.670   2.469 -0.0615 -0.2768  0.0971
   44ccc     C5 1228  -1.292   8.652   2.590 -0.0825 -0.8524 -1.0793
   44ccc     H3 1229  -1.098   8.622   2.486 -0.1077 -0.0068  1.2255
   44ccc     H4 1230  -1.336   8.666   2.309  0.6878  2.0561  0.6466
   44ccc     H5 1231  -1.384   8.705   2.565  0.9003  0.6341 -1.6930
   44ccc     O1 1232  -1.227   8.710   2.706  0.2041  0.4756 -0.6806
   44ccc     O2 1233  -1.174   8.808   2.443  0.0711 -0.0499  0.5871
   44ccc     O3 1234  -1.155   8.613   2.235 -0.2168 -0.2659  0.6733
   44ccc     O4 1235  -1.167   8.387   2.404  0.0809  0.0387 -0.7496
   44ccc     C6 1236  -1.389   8.284   2.540  0.5692  0.0474 -0.1721
   44ccc     H6 1237  -1.205   8.595   2.154  0.8579  3.1729 -0.9458
   44ccc     H7 1238  -1.112   8.390   2.324  1.6772  1.9891  0.3476
   44ccc     H8 1239  -1.109   8.799   2.371 -0.2844  0.4602  0.1899
   44ccc     H9 1240  -1.296   8.257   2.592  0.5552 -0.7066 -0.5287
   44ccc    H10 1241  -1.383   8.209   2.460  0.6665 -0.4554  0.2998
   44ccc     O5 1242  -1.511   8.278   2.615 -0.0113  0.2047 -0.3102
   44ccc    H11 1243  -1.476   8.250   2.702  0.9862  0.4283 -0.6368
   44ccc     O6 1244  -1.307   8.509   2.604 -0.2151 -0.2757  0.5472
   45ccc     C1 1245  -1.403   9.304   3.392 -0.3877  0.5783 -0.6225
   45ccc     C2 1246  -1.379   9.446   3.339 -0.2586 -0.5731  0.1534
   45ccc     H1 1247  -1.398   9.299   3.502 -0.7367  1.0987 -0.5835
   45ccc     H2 1248  -1.445   9.512   3.396  0.8800  0.1587  0.6761
   45ccc     C3 1249  -1.235   9.493   3.365  0.7882 -0.2194 -0.5135
   45ccc     C4 1250  -1.145   9.391   3.295 -0.0940  0.4274  0.0920
   45ccc     C5 1251  -1.170   9.251   3.353  0.2132 -0.0488  0.1110
   45ccc     H3 1252  -1.164   9.389   3.187 -0.4432  0.1920  0.1551
   45ccc     H4 1253  -1.209   9.500   3.472 -1.8156  0.4542  0.1401
   45ccc     H5 1254  -1.143   9.243   3.459 -1.1460  0.1454  0.4876
   45ccc     O1 1255  -1.084   9.163   3.279  0.3180  0.0135  0.3597
   45ccc     O2 1256  -1.011   9.438   3.326 -0.2912  0.2149  0.2053
   45ccc     O3 1257  -1.205   9.626   3.318  0.0456 -0.1524  0.0080
   45ccc     O4 1258  -1.417   9.449   3.201 -0.4060 -0.4800 -0.3360
   45ccc     C6 1259  -1.545   9.245   3.371 -0.9202 -0.8263  0.3279
   45ccc     H6 1260  -1.275   9.689   3.345  0.4845 -0.2148  1.3874
   45ccc     H7 1261  -1.473   9.370   3.187 -0.1071 -0.1216 -4.9344
   45ccc     H8 1262  -1.035   9.532   3.337  0.1769  0.4529 -0.6671
   45ccc     H9 1263  -1.623   9.306   3.419  0.4726  0.2738  1.3004
   45ccc    H10 1264  -1.557   9.145   3.414  0.5165 -1.2884 -0.2662
   45ccc     O5 1265  -1.572   9.234   3.235 -0.6616 -0.4965 -0.3110
   45ccc    H11 1266  -1.668   9.216   3.235 -0.6065 -1.0470  1.7817
   45ccc     O6 1267  -1.306   9.215   3.334 -0.4670 -0.1916 -0.1213
   46ccc     C1 1268   2.012   9.321   0.310 -0.3194 -0.7396 -0.4943
   46ccc     C2 1269   2.161   9.278   0.313 -0.2520 -0.4106  0.3197
   46ccc     H1 1270   1.973   9.302   0.411 -2.2048 -1.4940 -1.3229
   46ccc     H2 1271   2.222   9.342   0.379 -0.7572  0.0002  0.3982
   46ccc     C3 1272   2.170   9.133   0.355  0.2122  0.2018 -0.3105
   46ccc     C4 1273   2.075   9.045   0.266  0.2542  0.2920  0.2625
   46ccc     C5 1274   1.936   9.104   0.241  0.2243 -0.0699 -0.5135
   46ccc     H3 1275   2.121   9.021   0.169 -1.6533 -0.8578 -0.4361
   46ccc     H4 1276   2.144   9.124   0.461 -1.1447 -1.0858 -0.7228
   46ccc     H5 1277   1.880   9.091   0.334  0.5612  0.1467 -0.2821
   46ccc     O1 1278   1.873   9.025   0.137 -0.2163  0.2462 -0.5261
   46ccc     O2 1279   2.047   8.924   0.335  0.1474  0.7476 -0.1940
   46ccc     O3 1280   2.302   9.087   0.332  0.2264  0.2389 -1.1987
   46ccc     O4 1281   2.224   9.289   0.186 -0.1964  0.4158  0.5434
   46ccc     C6 1282   1.994   9.472   0.279  0.4611 -0.0815 -0.0852
   46ccc     H6 1283   2.299   8.998   0.372 -3.3569  0.4750 -0.6386
   46ccc     H7 1284   2.295   9.224   0.198 -0.9393 -0.8686 -1.3977
   46ccc     H8 1285   2.128   8.879   0.366 -0.7380 -0.5994  0.2573
   46ccc     H9 1286   2.014   9.492   0.173 -0.6625  0.3505 -0.2336
   46ccc    H10 1287   2.069   9.524   0.340  1.9619 -0.6283 -1.4067
   46ccc     O5 1288   1.863   9.523   0.316 -0.6164 -0.3136  0.7952
   46ccc    H11 1289   1.885   9.616   0.335  1.0849 -0.0348 -2.1074
   46ccc     O6 1290   1.941   9.242   0.210 -0.6210  0.4203  1.0294
   47ccc     C1 1291   2.127   8.481   0.499 -0.4364 -0.0855 -1.0147
   47ccc     C2 1292   2.026   8.413   0.597 -0.2173 -0.1928  0.5258
   47ccc     H1 1293   2.151   8.578   0.544 -1.2352 -0.0563 -0.6363
   47ccc     H2 1294   2.075   8.416   0.695  1.4765  0.4469 -0.3048
   47ccc     C3 1295   1.897   8.506   0.606  0.6524  0.4454  0.2964
   47ccc     C4 1296   1.848   8.535   0.464 -0.4435 -0.1726  0.0826
   47ccc     C5 1297   1.963   8.590   0.373  0.3075 -0.1009  0.1923
   47ccc     H3 1298   1.815   8.442   0.417  0.3146  0.4705 -1.8484
   47ccc     H4 1299   1.938   8.595   0.655  6.1221 -2.5808  2.0883
   47ccc     H5 1300   1.994   8.692   0.398 -1.5879  0.5067  0.2610
   47ccc     O1 1301   1.913   8.597   0.237 -0.2368 -0.1132 -0.1133
   47ccc     O2 1302   1.738   8.629   0.484  0.0791  0.2348  0.0822
   47ccc     O3 1303   1.793   8.443   0.691  0.3031  0.1886 -0.5364
   47ccc     O4 1304   1.998   8.274   0.555  0.3584  0.7620 -0.0364
   47ccc     C6 1305   2.267   8.409   0.493  0.8798 -0.5969  0.1533
   47ccc     H6 1306   1.830   8.437   0.781 -0.9863 -0.4833 -0.0160
   47ccc     H7 1307   1.925   8.237   0.607 -0.2929  1.0954 -0.6922
   47ccc     H8 1308   1.689   8.596   0.561 -0.9704  0.8094 -0.3234
   47ccc     H9 1309   2.256   8.310   0.447  0.2814 -0.0051 -0.9942
   47ccc    H10 1310   2.304   8.392   0.595  1.0954  0.0147  0.1800
   47ccc     O5 1311   2.365   8.487   0.418 -0.3127  0.0407 -0.7237
   47ccc    H11 1312   2.339   8.503   0.325 -0.3889  1.9291 -0.4266
   47ccc     O6 1313   2.068   8.501   0.370 -0.6771  0.8462 -0.1316
   48ccc     C1 1314   0.748   8.944   0.250 -0.4753  0.0231  0.4994
   48ccc     C2 1315   0.883   8.894   0.302 -1.1935  0.4806  0.3751
   48ccc     H1 1316   0.744   9.054   0.246  0.8043  0.0435 -1.2355
   48ccc     H2 1317   0.966   8.946   0.252 -0.0173 -1.3489  0.3241
   48ccc     C3 1318   0.900   8.933   0.447  0.9639  0.4714  0.2013
   48ccc     C4 1319   0.782   8.877   0.531 -0.4605 -0.1809 -0.0200
   48ccc     C5 1320   0.639   8.906   0.480  0.1337 -0.3208  0.4896
   48ccc     H3 1321   0.787   8.768   0.542 -1.8743 -0.4075 -1.3613
   48ccc     H4 1322   0.893   9.043   0.449  0.8966  0.7110 -4.0496
   48ccc     H5 1323   0.624   9.010   0.510 -1.1971 -0.5473  0.6527
   48ccc     O1 1324   0.536   8.827   0.537  0.1856 -0.2034 -0.1272
   48ccc     O2 1325   0.793   8.951   0.657 -0.1821 -0.3958 -0.0700
   48ccc     O3 1326   1.026   8.891   0.502 -0.3191 -0.1516 -0.1644
   48ccc     O4 1327   0.889   8.752   0.293 -0.4448  0.0183 -0.2990
   48ccc     C6 1328   0.715   8.898   0.107 -0.1991 -0.0735  0.5826
   48ccc     H6 1329   1.099   8.947   0.470  0.4944 -1.1434 -0.0918
   48ccc     H7 1330   0.980   8.744   0.325 -0.7810  2.2290  1.5372
   48ccc     H8 1331   0.883   8.935   0.691 -0.8985 -0.7205  1.7770
   48ccc     H9 1332   0.692   8.791   0.106  1.6996 -0.5211 -0.2875
   48ccc    H10 1333   0.803   8.898   0.040 -1.7589  0.1624 -1.5876
   48ccc     O5 1334   0.619   8.998   0.051 -0.4194  0.2205  0.4502
   48ccc    H11 1335   0.534   8.960   0.079 -0.5520  0.6608  0.6427
   48ccc     O6 1336   0.639   8.896   0.333  0.4577 -0.0964 -0.0274
   49ccc     C1 1337   0.396   8.075   0.916  0.8079  0.1144 -0.3373
   49ccc     C2 1338   0.509   8.072   1.020  0.5545 -0.6554  0.2784
   49ccc     H1 1339   0.370   7.973   0.885  0.1981  0.6438 -1.6106
   49ccc     H2 1340   0.474   8.010   1.104  1.7165 -1.5281  0.1446
   49ccc     C3 1341   0.642   8.017   0.959  0.2451  0.7372 -0.1886
   49ccc     C4 1342   0.677   8.091   0.830 -0.0410 -0.1102 -0.5070
   49ccc     C5 1343   0.562   8.103   0.727  0.7984  0.0079 -0.3788
   49ccc     H3 1344   0.695   8.196   0.856  1.0612 -0.7869  1.7290
   49ccc     H4 1345   0.624   7.910   0.942  0.7475  0.6502 -0.1765
   49ccc     H5 1346   0.537   8.001   0.694 -1.0089  0.7200 -1.3178
   49ccc     O1 1347   0.589   8.192   0.624  0.2161 -0.1708 -0.1568
   49ccc     O2 1348   0.793   8.049   0.767  0.0555  0.0013 -0.0364
   49ccc     O3 1349   0.745   8.026   1.057  0.8286  0.7235  0.1217
   49ccc     O4 1350   0.538   8.202   1.075 -0.3946  0.0353  0.0517
   49ccc     C6 1351   0.268   8.147   0.964 -0.7319 -0.2928  0.0666
   49ccc     H6 1352   0.718   7.961   1.124 -1.5685  1.3003 -0.1870
   49ccc     H7 1353   0.634   8.198   1.093 -0.5897  0.3776  1.2941
   49ccc     H8 1354   0.868   8.067   0.826  0.3524  3.0007 -1.1146
   49ccc     H9 1355   0.225   8.099   1.052 -1.5550 -1.3656 -0.8919
   49ccc    H10 1356   0.189   8.157   0.888 -0.3695  0.5027 -0.2145
   49ccc     O5 1357   0.315   8.284   0.992  0.7848  0.7872 -0.3098
   49ccc    H11 1358   0.405   8.260   1.020  0.8194  1.0336 -0.2125
   49ccc     O6 1359   0.445   8.151   0.800 -0.1018 -0.2904 -0.3072
   50ccc     C1 1360  -0.441   6.948  -0.601  0.2238 -0.0351  0.7071
   50ccc     C2 1361  -0.444   7.046  -0.723 -0.3034 -0.2021 -0.3127
   50ccc     H1 1362  -0.534   6.951  -0.543 -0.6777 -2.2029 -0.4887
   50ccc     H2 1363  -0.544   7.037  -0.767 -0.0784  2.0781 -1.4177
   50ccc     C3 1364  -0.417   7.197  -0.674 -0.2575  0.8586  0.4005
   50ccc     C4 1365  -0.296   7.217  -0.578  0.2302  0.0551  0.6302
   50ccc     C5 1366  -0.308   7.110  -0.465  0.4645 -0.2280  0.0530
   50ccc     H3 1367  -0.205   7.185  -0.629  0.0070 -0.6924  0.6791
   50ccc     H4 1368  -0.509   7.225  -0.622 -0.0243 -0.4689  1.5636
   50ccc     H5 1369  -0.390   7.127  -0.395 -0.2376 -0.5681 -0.6770
   50ccc     O1 1370  -0.184   7.110  -0.395 -0.4268 -0.3320  0.5024
   50ccc     O2 1371  -0.304   7.353  -0.521 -0.0113  0.1650  0.0719
   50ccc     O3 1372  -0.398   7.279  -0.792  0.0204 -0.2098  0.4074
   50ccc     O4 1373  -0.348   7.005  -0.817  0.0259  0.5262 -0.5333
   50ccc     C6 1374  -0.437   6.807  -0.649 -0.0441  0.2336 -0.4965
   50ccc     H6 1375  -0.321   7.244  -0.840  0.1393 -0.8018  1.0171
   50ccc     H7 1376  -0.375   7.063  -0.891  2.2234  1.7369 -0.4826
   50ccc     H8 1377  -0.327   7.414  -0.593  0.2532 -0.4349 -0.5238
   50ccc     H9 1378  -0.337   6.795  -0.692 -0.1606 -2.3230 -0.2192
   50ccc    H10 1379  -0.508   6.794  -0.732  0.6193 -3.3904 -0.6589
   50ccc     O5 1380  -0.458   6.712  -0.538  0.3130 -0.0525  0.9653
   50ccc    H11 1381  -0.426   6.629  -0.576  1.3462  0.8367 -0.2293
   50ccc     O6 1382  -0.327   6.979  -0.520 -0.2117  0.3191  0.4528
   51ccc     C1 1383   0.206   7.158  -0.964  0.7852 -0.3323 -0.5051
   51ccc     C2 1384   0.081   7.241  -0.944  0.4245 -0.0845  0.0361
   51ccc     H1 1385   0.196   7.080  -1.040  1.6429  0.1190 -1.1073
   51ccc     H2 1386   0.056   7.301  -1.032  0.9952  0.4752  0.2483
   51ccc     C3 1387  -0.037   7.148  -0.904  0.1027  0.6126 -0.3530
   51ccc     C4 1388   0.001   7.071  -0.771  0.3390  0.6600 -0.3154
   51ccc     C5 1389   0.146   7.022  -0.764 -0.2147  0.3471 -0.2443
   51ccc     H3 1390  -0.009   7.139  -0.685  1.7937  1.1353 -0.4967
   51ccc     H4 1391  -0.045   7.069  -0.981 -1.6053  1.2598 -0.8999
   51ccc     H5 1392   0.136   6.920  -0.804 -0.0146 -0.7381  2.2910
   51ccc     O1 1393   0.184   7.003  -0.625  0.5806 -0.0199 -0.1036
   51ccc     O2 1394  -0.085   6.957  -0.761  0.4145 -1.4623 -0.1887
   51ccc     O3 1395  -0.163   7.216  -0.901  0.2684 -0.5724 -0.7888
   51ccc     O4 1396   0.116   7.335  -0.840  0.2959  0.2689 -0.0554
   51ccc     C6 1397   0.330   7.229  -1.026 -0.3588  0.2665 -0.3594
   51ccc     H6 1398  -0.186   7.246  -0.990 -1.3468  0.6014 -0.0237
   51ccc     H7 1399   0.056   7.409  -0.856  0.3281  0.3549  0.2203
   51ccc     H8 1400  -0.172   6.993  -0.782  0.9371 -0.3072 -0.4713
   51ccc     H9 1401   0.298   7.296  -1.106  2.0709  0.7013 -1.0432
   51ccc    H10 1402   0.398   7.158  -1.075  0.1736  0.4068  0.1554
   51ccc     O5 1403   0.395   7.310  -0.926  0.1395 -0.0444  0.2888
   51ccc    H11 1404   0.320   7.323  -0.865  1.4383 -1.2030  2.2055
   51ccc     O6 1405   0.243   7.106  -0.830  0.3904  0.0695  0.2602
   52ccc     C1 1406  -0.033   7.525  -0.272 -0.6138 -0.2406  0.2403
   52ccc     C2 1407   0.012   7.405  -0.361 -0.3413  0.4772 -0.7424
   52ccc     H1 1408  -0.133   7.552  -0.306 -2.0225 -3.2279  1.5684
   52ccc     H2 1409  -0.070   7.332  -0.369 -0.7634  0.9968 -1.2766
   52ccc     C3 1410   0.045   7.448  -0.505 -0.5921  0.0292 -0.2381
   52ccc     C4 1411   0.138   7.573  -0.517  0.2119 -0.0734 -0.3428
   52ccc     C5 1412   0.078   7.685  -0.425 -0.4179 -0.1868 -0.4568
   52ccc     H3 1413   0.233   7.555  -0.466  0.8876 -0.9736 -1.8768
   52ccc     H4 1414  -0.054   7.470  -0.548 -1.5894 -2.3843  0.6003
   52ccc     H5 1415  -0.018   7.709  -0.471 -0.8143 -1.8665 -0.5832
   52ccc     O1 1416   0.177   7.793  -0.434 -0.1237  0.5069 -0.0210
   52ccc     O2 1417   0.158   7.597  -0.659  0.4798 -0.5919 -0.5574
   52ccc     O3 1418   0.093   7.335  -0.571 -0.1312 -0.1114  0.2305
   52ccc     O4 1419   0.127   7.348  -0.306 -0.2409 -0.0248  0.3618
   52ccc     C6 1420  -0.048   7.505  -0.119 -0.4571 -0.1343  0.1858
   52ccc     H6 1421   0.115   7.364  -0.662  0.1354 -1.5822 -0.2121
   52ccc     H7 1422   0.163   7.304  -0.384 -1.5121 -1.0824  0.3487
   52ccc     H8 1423   0.122   7.687  -0.670  0.4018 -0.7397 -1.5678
   52ccc     H9 1424  -0.104   7.413  -0.102 -1.5646  0.4597 -0.1400
   52ccc    H10 1425  -0.089   7.597  -0.076  0.6385  1.1088 -1.3157
   52ccc     O5 1426   0.079   7.490  -0.067 -0.4925 -0.3344  0.3150
   52ccc    H11 1427   0.111   7.427  -0.133 -3.3865 -1.2498 -0.3766
   52ccc     O6 1428   0.058   7.642  -0.290 -0.2876  0.3495 -0.0459
   53ccc     C1 1429   0.559   8.139  -1.093 -0.0717  0.1462  0.1629
   53ccc     C2 1430   0.545   7.991  -1.133  0.2084  0.4053  0.1113
   53ccc     H1 1431   0.647   8.181  -1.142  0.2598 -1.6143 -0.8474
   53ccc     H2 1432   0.538   7.996  -1.242 -0.2680 -0.4216  0.0992
   53ccc     C3 1433   0.666   7.910  -1.087  0.5769  0.0501 -0.1412
   53ccc     C4 1434   0.699   7.927  -0.937 -0.4124 -0.0566 -0.1468
   53ccc     C5 1435   0.704   8.078  -0.890  0.0351  0.3565  0.9295
   53ccc     H3 1436   0.620   7.876  -0.880  1.2788 -1.8568  0.6771
   53ccc     H4 1437   0.750   7.950  -1.145  1.1432 -0.7563  0.1097
   53ccc     H5 1438   0.792   8.127  -0.933 -0.0357 -0.9519 -0.7990
   53ccc     O1 1439   0.695   8.095  -0.745  0.2920 -0.2296 -0.0427
   53ccc     O2 1440   0.819   7.859  -0.904  0.3159 -0.3233  0.5911
   53ccc     O3 1441   0.643   7.766  -1.120  0.2174 -0.4379 -0.0494
   53ccc     O4 1442   0.426   7.935  -1.071 -0.4368 -0.1124  0.0193
   53ccc     C6 1443   0.441   8.235  -1.132 -0.2511  0.1621 -0.1307
   53ccc     H6 1444   0.722   7.719  -1.089  0.3098 -1.1280 -1.2543
   53ccc     H7 1445   0.360   8.006  -1.080 -0.3049  0.1152  0.7274
   53ccc     H8 1446   0.784   7.803  -0.831 -0.8876  0.1119  0.3812
   53ccc     H9 1447   0.448   8.271  -1.235  1.6162 -1.3853 -0.6133
   53ccc    H10 1448   0.455   8.329  -1.077 -0.1326  0.2117 -0.2437
   53ccc     O5 1449   0.315   8.178  -1.106 -0.7871  1.0287 -0.6120
   53ccc    H11 1450   0.240   8.239  -1.118 -0.7236  1.6684  1.6944
   53ccc     O6 1451   0.589   8.144  -0.952 -0.4246 -0.0761  0.6949
   54ccc     C1 1452   1.808   7.855   3.091 -0.0045 -0.7992  0.3380
   54ccc     C2 1453   1.660   7.812   3.092 -0.3276 -0.1196 -0.1860
   54ccc     H1 1454   1.817   7.958   3.128 -0.7073 -0.3085 -0.8079
   54ccc     H2 1455   1.610   7.827   3.188 -1.2161 -0.5464 -0.5657
   54ccc     C3 1456   1.585   7.891   2.981 -0.0721 -0.0936  0.0744
   54ccc     C4 1457   1.653   7.865   2.844  0.0707  0.1538  0.0367
   54ccc     C5 1458   1.810   7.890   2.840  0.5796 -0.4267 -0.1691
   54ccc     H3 1459   1.628   7.762   2.816  1.1897  0.4608 -2.3873
   54ccc     H4 1460   1.610   7.994   3.009 -1.6154 -0.0119  1.2881
   54ccc     H5 1461   1.824   7.999   2.844 -0.3340 -0.3236  0.5736
   54ccc     O1 1462   1.865   7.834   2.719 -0.0974 -0.0356  0.0036
   54ccc     O2 1463   1.583   7.951   2.755  0.3431  0.1169  0.0845
   54ccc     O3 1464   1.440   7.868   2.968 -0.6754 -0.8714 -0.5697
   54ccc     O4 1465   1.665   7.674   3.066  0.3875  0.4409 -0.1642
   54ccc     C6 1466   1.896   7.774   3.184 -0.0549 -1.0610 -0.4080
   54ccc     H6 1467   1.436   7.780   2.928 -2.4595 -1.0680 -0.0543
   54ccc     H7 1468   1.756   7.650   3.089  0.2524 -1.5862 -1.4434
   54ccc     H8 1469   1.575   7.895   2.676  0.8800 -1.1499  0.8843
   54ccc     H9 1470   1.861   7.771   3.287  1.5360 -0.4544  0.1759
   54ccc    H10 1471   1.989   7.832   3.188 -0.8863  0.2063  0.9480
   54ccc     O5 1472   1.921   7.645   3.123 -0.4037 -0.2413 -0.3138
   54ccc    H11 1473   1.977   7.606   3.192 -2.1450  0.3500  1.5057
   54ccc     O6 1474   1.871   7.838   2.958  0.1107  0.8543 -0.2209
   55ccc     C1 1475   1.831   8.150   1.896  0.0433 -0.4690 -0.3875
   55ccc     C2 1476   1.960   8.233   1.920 -0.3716  0.5413 -0.3368
   55ccc     H1 1477   1.742   8.215   1.895  0.0522 -0.4584 -0.7716
   55ccc     H2 1478   1.973   8.321   1.857 -0.3427  1.4017  0.8435
   55ccc     C3 1479   1.972   8.283   2.067  0.1654  0.0985  0.8188
   55ccc     C4 1480   1.957   8.174   2.174  0.2367  0.2558 -0.5737
   55ccc     C5 1481   1.827   8.099   2.143 -0.2317 -0.3139 -0.7371
   55ccc     H3 1482   2.043   8.107   2.162  0.0917 -0.0299 -0.0728
   55ccc     H4 1483   1.879   8.339   2.078  0.6629  1.0266  0.4521
   55ccc     H5 1484   1.746   8.171   2.160  1.2984  1.1832  0.7160
   55ccc     O1 1485   1.825   7.986   2.234 -0.0662  0.0830 -0.3688
   55ccc     O2 1486   1.943   8.238   2.299 -0.0783  0.2861 -0.6029
   55ccc     O3 1487   2.073   8.374   2.086 -0.4747 -0.5569 -0.0744
   55ccc     O4 1488   2.067   8.143   1.900  0.2725  0.3930  0.2222
   55ccc     C6 1489   1.837   8.088   1.753 -0.0125 -0.0675 -0.0487
   55ccc     H6 1490   2.074   8.377   2.184  0.4624 -0.6271 -0.0691
   55ccc     H7 1491   2.143   8.172   1.954  1.3077  1.4308 -1.6963
   55ccc     H8 1492   1.986   8.180   2.364 -2.4759 -0.7720  0.1608
   55ccc     H9 1493   1.900   7.998   1.751  1.0570  0.6137  1.3193
   55ccc    H10 1494   1.889   8.154   1.682 -0.5384 -0.4601 -0.8197
   55ccc     O5 1495   1.702   8.065   1.709 -0.1356 -0.2125  0.3233
   55ccc    H11 1496   1.665   8.155   1.703  0.1661 -0.1732 -2.6298
   55ccc     O6 1497   1.822   8.051   2.005 -0.1185  0.8139  0.0349
   56ccc     C1 1498   1.023   8.385   1.200  0.1616  0.3681 -0.4281
   56ccc     C2 1499   0.969   8.301   1.084 -0.4052  1.3735  0.6282
   56ccc     H1 1500   1.115   8.435   1.166  0.4159  1.0489  1.1746
   56ccc     H2 1501   0.984   8.378   1.007  3.3118  0.9922  0.7803
   56ccc     C3 1502   1.068   8.186   1.047  0.3621  0.0260  0.3996
   56ccc     C4 1503   1.102   8.107   1.172  0.2495  0.1071  0.0419
   56ccc     C5 1504   1.147   8.196   1.294 -0.3328 -0.8636  0.4231
   56ccc     H3 1505   1.009   8.062   1.210 -0.4519 -0.8378 -2.5640
   56ccc     H4 1506   1.157   8.243   1.016 -0.3024  1.2088  0.6044
   56ccc     H5 1507   1.245   8.244   1.278 -1.3673  1.8798  1.6273
   56ccc     O1 1508   1.154   8.116   1.412  0.1000  0.4226 -0.1635
   56ccc     O2 1509   1.208   8.014   1.133  0.4022 -0.0833 -0.4684
   56ccc     O3 1510   1.009   8.110   0.933  0.2395 -0.2200  0.0133
   56ccc     O4 1511   0.831   8.263   1.094 -0.0064  0.5759  0.5235
   56ccc     C6 1512   0.932   8.490   1.248  0.7356 -0.2199 -0.4563
   56ccc     H6 1513   1.073   8.059   0.881 -1.0038 -2.4284  0.5267
   56ccc     H7 1514   0.841   8.174   1.055 -1.1672  0.6050  0.1451
   56ccc     H8 1515   1.215   7.953   1.208 -0.7026 -2.2628 -2.0151
   56ccc     H9 1516   0.909   8.563   1.169  1.0357 -0.1664 -0.4931
   56ccc    H10 1517   0.989   8.544   1.325  0.4630  1.5406 -1.4270
   56ccc     O5 1518   0.818   8.416   1.297  0.3707  0.0358 -0.1575
   56ccc    H11 1519   0.811   8.346   1.230 -1.6276  0.1819 -0.1365
   56ccc     O6 1520   1.053   8.299   1.318  0.1605  0.2580 -0.3974
   57ccc     C1 1521   1.280   7.832   2.474  0.1358 -0.4598 -0.5491
   57ccc     C2 1522   1.134   7.794   2.499 -1.0154  0.3072  0.0510
   57ccc     H1 1523   1.301   7.936   2.503  1.6776 -0.9245  0.0685
   57ccc     H2 1524   1.104   7.809   2.604 -0.6474  1.8204 -0.0321
   57ccc     C3 1525   1.033   7.882   2.412  0.3138  0.3442  0.1995
   57ccc     C4 1526   1.082   7.904   2.266  0.5500 -0.0410 -0.2012
   57ccc     C5 1527   1.237   7.917   2.250  0.0955 -0.4879 -0.4238
   57ccc     H3 1528   1.041   7.819   2.210 -1.0598 -0.2055  1.1388
   57ccc     H4 1529   1.032   7.977   2.466  0.5144  0.3809  0.1388
   57ccc     H5 1530   1.265   8.017   2.287  0.7937 -0.1775 -1.7382
   57ccc     O1 1531   1.265   7.891   2.110  0.1586 -0.1250 -0.1139
   57ccc     O2 1532   1.018   8.025   2.221 -0.0080  0.3920  0.8667
   57ccc     O3 1533   0.896   7.835   2.420 -0.7825  0.3201 -0.0942
   57ccc     O4 1534   1.131   7.656   2.479 -0.6687 -0.2336 -0.3865
   57ccc     C6 1535   1.379   7.743   2.541 -0.3618  0.2200  0.1944
   57ccc     H6 1536   0.878   7.817   2.514 -1.4757 -2.1424 -0.6347
   57ccc     H7 1537   1.071   7.625   2.549 -0.7770  1.1525  0.1620
   57ccc     H8 1538   0.924   7.999   2.228 -0.1623  0.9107  0.7332
   57ccc     H9 1539   1.391   7.643   2.499  1.5102  0.0687  0.9921
   57ccc    H10 1540   1.341   7.731   2.643  0.5134  1.1039  0.6382
   57ccc     O5 1541   1.500   7.804   2.541  1.1462 -0.6801  0.3633
   57ccc    H11 1542   1.559   7.726   2.541  1.6949 -0.2757  1.0371
   57ccc     O6 1543   1.302   7.827   2.335 -0.6898  0.0091  0.1337
   58ccc     C1 1544  -0.235   6.751   3.321  0.9247 -0.4646  0.6273
   58ccc     C2 1545  -0.180   6.876   3.396  0.0140 -0.1043 -0.2474
   58ccc     H1 1546  -0.274   6.682   3.397 -0.3669  0.6803  1.0471
   58ccc     H2 1547  -0.254   6.932   3.454  0.1475 -1.7664  1.6422
   58ccc     C3 1548  -0.071   6.818   3.490 -0.7462 -0.8894  0.6199
   58ccc     C4 1549   0.034   6.743   3.400 -0.3891 -0.3596  0.3442
   58ccc     C5 1550  -0.026   6.627   3.316 -0.2927  0.4896 -0.0624
   58ccc     H3 1551   0.067   6.815   3.324 -2.0216 -1.7319 -1.8127
   58ccc     H4 1552  -0.118   6.745   3.557 -1.2704 -0.9258  0.2189
   58ccc     H5 1553  -0.059   6.547   3.383  0.2559  0.2265 -0.1056
   58ccc     O1 1554   0.079   6.579   3.229 -0.7253  0.5969  0.3153
   58ccc     O2 1555   0.151   6.703   3.473 -0.4127  0.2189 -0.6408
   58ccc     O3 1556  -0.015   6.919   3.571  0.0873 -0.6590 -0.4924
   58ccc     O4 1557  -0.120   6.968   3.302 -0.3009  0.0520 -0.3734
   58ccc     C6 1558  -0.350   6.795   3.226  0.1048 -0.3194 -0.1361
   58ccc     H6 1559   0.082   6.914   3.573  0.1430  0.3675 -0.1659
   58ccc     H7 1560  -0.112   7.045   3.360 -1.5540 -0.6526  0.7826
   58ccc     H8 1561   0.214   6.660   3.412  1.2657  1.5001  0.1143
   58ccc     H9 1562  -0.315   6.829   3.128  0.4023  2.5910  0.8916
   58ccc    H10 1563  -0.406   6.877   3.272 -2.3038 -1.8512 -0.1456
   58ccc     O5 1564  -0.436   6.682   3.214  0.5034 -0.1865 -0.0065
   58ccc    H11 1565  -0.465   6.672   3.307 -0.6758 -1.5797 -0.4767
   58ccc     O6 1566  -0.140   6.688   3.240 -0.2678  0.1110 -0.1417
   59ccc     C1 1567   0.240   5.918   2.375 -0.0025  1.2995 -0.4478
   59ccc     C2 1568   0.365   5.867   2.451 -0.6776  0.1145 -0.3187
   59ccc     H1 1569   0.255   5.917   2.266 -1.0517 -2.7414 -0.7101
   59ccc     H2 1570   0.409   5.783   2.398  3.1699  1.2159  0.8223
   59ccc     C3 1571   0.474   5.976   2.456  0.2645 -0.2415 -0.5300
   59ccc     C4 1572   0.418   6.106   2.511  0.2991 -0.2628 -0.0878
   59ccc     C5 1573   0.297   6.156   2.423 -0.8400  0.3099  0.6927
   59ccc     H3 1574   0.383   6.095   2.615  0.2509  1.5640  0.1196
   59ccc     H4 1575   0.498   5.998   2.351 -0.6029  0.9344 -0.4942
   59ccc     H5 1576   0.332   6.172   2.320  0.0645  0.0010  0.9404
   59ccc     O1 1577   0.244   6.275   2.476  0.1388 -0.8072 -0.2148
   59ccc     O2 1578   0.529   6.202   2.518 -0.0775 -0.7162  0.0561
   59ccc     O3 1579   0.586   5.925   2.541  0.2832  0.4291 -0.0270
   59ccc     O4 1580   0.323   5.834   2.580  0.1906  0.9343 -0.1871
   59ccc     C6 1581   0.118   5.819   2.388 -0.3709 -0.4087 -0.2262
   59ccc     H6 1582   0.616   5.998   2.599  0.8092  0.5646 -0.4552
   59ccc     H7 1583   0.391   5.769   2.605 -0.6357  0.3642  0.6875
   59ccc     H8 1584   0.578   6.182   2.599  3.1879  3.1575 -0.6850
   59ccc     H9 1585   0.086   5.807   2.492  1.2129  0.6182  0.4145
   59ccc    H10 1586   0.152   5.722   2.348 -0.0225 -1.0407  1.4896
   59ccc     O5 1587   0.021   5.864   2.300  0.1211  0.3135 -0.3434
   59ccc    H11 1588  -0.020   5.941   2.344 -0.6585  0.0710 -0.6278
   59ccc     O6 1589   0.194   6.047   2.429  0.2381 -0.8050  0.1793
   60ccc     C1 1590  -0.380   5.683   1.499  0.4869 -0.9333  0.0720
   60ccc     C2 1591  -0.397   5.671   1.347  0.1515 -0.4528 -0.5146
   60ccc     H1 1592  -0.480   5.661   1.538  1.4684 -0.8107  2.9070
   60ccc     H2 1593  -0.456   5.583   1.322  1.6971 -1.1207 -2.0490
   60ccc     C3 1594  -0.471   5.795   1.297  0.1596  0.1833  0.4633
   60ccc     C4 1595  -0.419   5.930   1.349  0.2620 -0.7713  0.5096
   60ccc     C5 1596  -0.424   5.922   1.499  0.0601  0.1161 -0.5291
   60ccc     H3 1597  -0.312   5.947   1.333  0.0933  3.0020  2.2771
   60ccc     H4 1598  -0.573   5.784   1.336 -0.4023 -2.5133 -1.4792
   60ccc     H5 1599  -0.523   5.918   1.546 -0.4826  0.6010 -1.6032
   60ccc     O1 1600  -0.345   6.033   1.546  0.6142 -0.5607  0.3077
   60ccc     O2 1601  -0.501   6.035   1.301 -0.0300  0.1169 -0.3913
   60ccc     O3 1602  -0.470   5.791   1.150  0.0501 -0.2130  0.4149
   60ccc     O4 1603  -0.267   5.662   1.287 -0.1228 -0.1961  0.2001
   60ccc     C6 1604  -0.289   5.574   1.551 -0.0974 -0.3499  0.1377
   60ccc     H6 1605  -0.560   5.785   1.115  0.7524 -0.5955 -1.5109
   60ccc     H7 1606  -0.285   5.633   1.196 -1.6316  2.0082 -0.2606
   60ccc     H8 1607  -0.497   6.036   1.204  1.8341  2.8150 -0.3778
   60ccc     H9 1608  -0.187   5.611   1.536 -0.3898  0.4488  0.0667
   60ccc    H10 1609  -0.301   5.476   1.504  1.1188 -1.2651  1.6243
   60ccc     O5 1610  -0.328   5.566   1.688  0.7397 -0.0476 -0.5347
   60ccc    H11 1611  -0.285   5.491   1.732 -0.1622 -0.2156  0.0892
   60ccc     O6 1612  -0.336   5.809   1.532  0.2747 -0.0774  0.0942
   61ccc     C1 1613   0.449   6.551   1.845 -0.1357 -0.1559 -0.2694
   61ccc     C2 1614   0.346   6.667   1.863  0.4975  0.0498  0.4871
   61ccc     H1 1615   0.529   6.575   1.775 -0.1449  1.2694  0.1716
   61ccc     H2 1616   0.399   6.750   1.911 -0.2025 -0.0063  1.3897
   61ccc     C3 1617   0.305   6.713   1.723  0.2000  0.2757 -0.4037
   61ccc     C4 1618   0.235   6.590   1.655 -0.1598 -0.2889  0.5236
   61ccc     C5 1619   0.320   6.462   1.668  0.0742 -0.4526  0.2334
   61ccc     H3 1620   0.150   6.560   1.719 -0.5481 -1.5013 -0.5124
   61ccc     H4 1621   0.401   6.739   1.675 -0.1836  1.5252 -0.5464
   61ccc     H5 1622   0.401   6.469   1.593 -0.3599  1.9166 -0.0896
   61ccc     O1 1623   0.234   6.345   1.634 -0.4839 -0.2801 -0.0162
   61ccc     O2 1624   0.203   6.624   1.521  0.1482  0.5522 -1.0500
   61ccc     O3 1625   0.219   6.829   1.735 -0.1096 -0.1727 -0.2701
   61ccc     O4 1626   0.240   6.628   1.949  0.7999 -0.0912 -0.2843
   61ccc     C6 1627   0.521   6.509   1.980 -0.3534  0.5334 -0.4027
   61ccc     H6 1628   0.279   6.902   1.762  0.4979 -0.3655 -1.0710
   61ccc     H7 1629   0.301   6.578   2.005  1.0680  0.4127 -0.1248
   61ccc     H8 1630   0.154   6.708   1.520 -1.3326 -0.2175  0.8143
   61ccc     H9 1631   0.598   6.583   2.007  2.3313 -1.1321 -2.9639
   61ccc    H10 1632   0.565   6.409   1.973  2.2738  1.3914  2.0202
   61ccc     O5 1633   0.420   6.514   2.085  0.2529  1.0869  0.5085
   61ccc    H11 1634   0.462   6.502   2.171 -1.5478  1.2995  1.4787
   61ccc     O6 1635   0.371   6.441   1.797 -0.3557 -0.2096  0.0190
   62SOL     OW 1636   4.613   7.623   5.056 -0.2649 -0.0644  0.7313
   62SOL    HW1 1637   4.599   7.529   5.040 -2.2357  0.0732  1.4030
   62SOL    HW2 1638   4.704   7.629   5.085  0.2626 -1.5969 -0.4399
   63SOL     OW 1639   5.963   2.269   5.405 -0.4134  0.3502  0.2213
   63SOL    HW1 1640   5.909   2.274   5.484 -0.0323 -1.1686  0.6207
   63SOL    HW2 1641   6.049   2.244   5.438  0.0867  0.9923 -0.5777
   64SOL     OW 1642   8.693   7.778   5.320  0.2080  0.6936  0.4429
   64SOL    HW1 1643   8.731   7.798   5.234 -1.2145  0.5041 -0.2642
   64SOL    HW2 1644   8.616   7.833   5.325  0.8939  1.5498  2.1250
   65SOL     OW 1645   5.094   8.966   7.843  0.0906 -0.4250  0.3259
   65SOL    HW1 1646   5.105   9.017   7.763 -0.2436 -1.0796 -0.1519
   65SOL    HW2 1647   5.153   8.891   7.831 -0.9565 -1.2253  0.0898
   66SOL     OW 1648   6.289   3.105   6.474  0.0898  0.2806 -0.1813
   66SOL    HW1 1649   6.311   3.021   6.434 -4.0024 -1.4340  0.6364
   66SOL    HW2 1650   6.318   3.098   6.564  1.0519  0.3603 -0.4789
   67SOL     OW 1651   8.698   8.950   6.815  0.1462  0.1865  0.1108
   67SOL    HW1 1652   8.754   8.894   6.761  1.3965  0.3067  1.2361
   67SOL    HW2 1653   8.616   8.900   6.823  0.6734 -0.7692 -0.2131
   68SOL     OW 1654   7.032   4.128   4.697 -0.0403 -0.3091  0.4809
   68SOL    HW1 1655   6.993   4.208   4.661 -0.8579 -0.9191 -0.0167
   68SOL    HW2 1656   6.958   4.069   4.709  0.7346 -1.5509 -0.6334
   69SOL     OW 1657   1.144   1.557   5.611 -0.4173  0.0281 -0.1871
   69SOL    HW1 1658   1.054   1.566   5.578 -1.0729 -1.3350  1.0829
   69SOL    HW2 1659   1.186   1.497   5.549 -0.8995 -0.6307  0.1131
   70SOL     OW 1660   1.662   5.695   4.201  0.1545 -0.3396 -0.5099
   70SOL    HW1 1661   1.575   5.668   4.231  0.2352  0.7406  0.8109
   70SOL    HW2 1662   1.720   5.676   4.275  0.9446 -0.5375 -1.1710
   71SOL     OW 1663   5.908   2.552   5.267 -0.7284  0.2733 -0.2757
   71SOL    HW1 1664   5.929   2.463   5.294 -0.3444  0.0474 -1.2586
   71SOL    HW2 1665   5.920   2.605   5.346 -1.5311 -0.6239  0.4595
   72SOL     OW 1666   3.117   7.219   1.973  0.4100 -0.2460 -0.0613
   72SOL    HW1 1667   3.185   7.215   1.906  0.5384 -0.8697  0.0958
   72SOL    HW2 1668   3.123   7.307   2.010  0.6674 -0.0691 -0.5269
   73SOL     OW 1669   2.906   0.675   4.988 -0.4893 -0.1049  0.1938
   73SOL    HW1 1670   2.892   0.605   5.052 -0.9980  0.4925  0.7444
   73SOL    HW2 1671   2.939   0.630   4.911  1.0629 -0.7503  1.1759
   74SOL     OW 1672   8.205   3.682   2.637 -0.0647 -0.2625 -0.0764
   74SOL    HW1 1673   8.140   3.620   2.669 -0.5832  0.1844 -0.2581
   74SOL    HW2 1674   8.287   3.655   2.679 -0.5970 -0.0980  1.1022
   75SOL     OW 1675   3.873   5.688   0.670  0.5930 -0.2714  0.3776
   75SOL    HW1 1676   3.792   5.687   0.721  0.6918 -0.2455  0.5327
   75SOL    HW2 1677   3.893   5.781   0.658 -0.0709 -0.2425 -0.7179
   76SOL     OW 1678   3.122   1.474   3.354 -0.1916 -0.7772  0.4741
   76SOL    HW1 1679   3.150   1.384   3.337 -3.2441 -2.1531  1.8545
   76SOL    HW2 1680   3.053   1.491   3.289  0.9081  0.9531 -0.3222
   77SOL     OW 1681   7.875   5.421   7.196 -0.2444  0.1773 -0.1584
   77SOL    HW1 1682   7.930   5.356   7.240 -0.4003  0.6255  0.7314
   77SOL    HW2 1683   7.920   5.504   7.212 -1.6489  0.6967  1.4622
   78SOL     OW 1684   4.877   1.803   3.594  0.0001  0.4235 -0.1904
   78SOL    HW1 1685   4.910   1.719   3.561 -0.1689  0.6479 -0.9468
   78SOL    HW2 1686   4.902   1.804   3.687 -0.8468 -0.8924  0.0841
   79SOL     OW 1687   1.518   7.054   1.720 -0.3799 -0.3112  0.5041
   79SOL    HW1 1688   1.552   7.099   1.643 -1.0487 -1.1925 -0.3182
   79SOL    HW2 1689   1.499   6.965   1.691  0.2367 -0.9373  1.9248
   80SOL     OW 1690   3.761   6.333   3.985 -0.0941  0.0232 -0.2426
   80SOL    HW1 1691   3.844   6.363   3.949  0.2210 -1.2569 -0.6123
   80SOL    HW2 1692   3.781   6.309   4.076 -0.5875  1.9007  0.4211
   81SOL     OW 1693   5.761   1.217   8.620  0.2878  0.0813  0.1565
   81SOL    HW1 1694   5.795   1.191   8.706  0.8495 -0.5854 -0.2590
   81SOL    HW2 1695   5.723   1.303   8.635 -0.0885 -0.2445  1.1926
   82SOL     OW 1696   5.926   5.731   7.227 -0.2741 -0.1679 -0.0048
   82SOL    HW1 1697   5.958   5.804   7.173  0.2847 -1.2537 -1.1829
   82SOL    HW2 1698   6.005   5.682   7.249 -0.4308  0.4573  2.1948
   83SOL     OW 1699   0.227   7.901   2.581  0.2936  0.3887 -0.0918
   83SOL    HW1 1700   0.293   7.970   2.584  0.5529  0.1746 -0.5957
   83SOL    HW2 1701   0.261   7.839   2.515 -0.9644  0.8520 -1.2228
   84SOL     OW 1702   4.258   2.509   0.013  0.2247 -0.0333  0.0095
   84SOL    HW1 1703   4.267   2.504  -0.082  0.0935  0.7369 -0.0459
   84SOL    HW2 1704   4.187   2.571   0.027 -0.3963 -0.8618  0.5953
   85SOL     OW 1705   8.724   0.491   7.387 -0.6136  0.1791  0.2389
   85SOL    HW1 1706   8.783   0.459   7.320  1.2692 -0.1653  1.9479
   85SOL    HW2 1707   8.657   0.423   7.396 -0.6191  0.0168 -0.9184
   86SOL     OW 1708   2.894   9.059   7.807 -0.2828  0.1227 -0.1725
   86SOL    HW1 1709   2.985   9.031   7.811 -0.3911 -0.2264 -0.1211
   86SOL    HW2 1710   2.884   9.118   7.881 -0.3016 -0.4503  0.2901
   87SOL     OW 1711   3.722   0.892   4.648 -0.3646 -0.0287  0.1660
   87SOL    HW1 1712   3.681   0.941   4.577 -1.7701 -1.3534  0.0216
   87SOL    HW2 1713   3.716   0.951   4.724  0.8326  1.2501 -0.7012
   88SOL     OW 1714   2.603   8.093   3.241  0.2857  0.3023  0.0507
   88SOL    HW1 1715   2.619   8.158   3.172  3.0694 -0.8310 -0.4903
   88SOL    HW2 1716   2.605   8.009   3.195 -1.0488 -0.3253  1.0718
   89SOL     OW 1717   8.249   4.953   4.961  0.3485 -0.2970 -0.6548
   89SOL    HW1 1718   8.234   4.858   4.960  1.1456 -0.4426 -2.3166
   89SOL    HW2 1719   8.182   4.988   4.901  0.5066  0.1051 -0.5975
   90SOL     OW 1720   1.025   3.361   3.606  0.3224  0.2073  0.1956
   90SOL    HW1 1721   1.070   3.413   3.540 -1.3071  0.0673 -1.0823
   90SOL    HW2 1722   0.973   3.424   3.655 -0.8673 -0.0543 -0.6957
   91SOL     OW 1723   3.880   4.466   1.428  0.5200 -0.4056  0.2201
   91SOL    HW1 1724   3.840   4.439   1.345 -0.0121  0.6308  0.1282
   91SOL    HW2 1725   3.957   4.410   1.436  1.0327  0.0228 -1.3819
   92SOL     OW 1726   5.365   8.282   5.979  0.0232 -0.5732  0.1092
   92SOL    HW1 1727   5.406   8.346   5.921  0.5048 -0.4878  0.5287
   92SOL    HW2 1728   5.380   8.318   6.067 -3.0055  0.6876  0.2174
   93SOL     OW 1729   1.537   6.567   7.986 -0.1779  0.7078 -0.0340
   93SOL    HW1 1730   1.503   6.552   8.074  1.0132 -0.0494  0.3135
   93SOL    HW2 1731   1.566   6.481   7.956  0.0648  1.0786 -0.8981
   94SOL     OW 1732   3.212   7.790   3.855  0.2646  0.5879  0.1738
   94SOL    HW1 1733   3.273   7.863   3.842  0.7197 -0.0469 -1.4779
   94SOL    HW2 1734   3.254   7.715   3.812 -2.5608  0.5878 -2.9749
   95SOL     OW 1735   4.912   7.105   5.491 -0.1152  0.1785 -0.1341
   95SOL    HW1 1736   4.974   7.147   5.432  0.6447 -1.6140 -0.6766
   95SOL    HW2 1737   4.895   7.019   5.452 -2.0962  0.1786  0.5928
   96SOL     OW 1738   2.764   4.141   3.656  0.0791 -0.1260  0.1206
   96SOL    HW1 1739   2.715   4.195   3.719 -1.5725 -1.5592  0.1440
   96SOL    HW2 1740   2.818   4.084   3.711 -1.1891 -1.2170  0.2966
   97SOL     OW 1741   0.980   2.289   8.402  0.7663 -0.1562 -0.3657
   97SOL    HW1 1742   0.956   2.345   8.328  1.5642 -1.1433 -1.3833
   97SOL    HW2 1743   1.049   2.337   8.447 -1.8045  1.9911  1.7068
   98SOL     OW 1744   9.045   6.052   3.348  0.9908 -0.5259  0.2681
   98SOL    HW1 1745   9.006   6.086   3.429  0.7788 -1.1415  0.4307
   98SOL    HW2 1746   8.986   5.982   3.321  0.3724  0.4839 -1.1016
   99SOL     OW 1747   8.073   6.744   1.891  0.1499 -0.5625 -0.2713
   99SOL    HW1 1748   8.101   6.832   1.918 -1.2600  0.8427 -2.9371
   99SOL    HW2 1749   8.138   6.717   1.826 -1.3493  0.2355 -2.2251
  100SOL     OW 1750   2.295   8.505   8.071 -0.1219  0.3222  0.2420
  100SOL    HW1 1751   2.248   8.468   8.146  1.6052  0.1233  1.2832
  100SOL    HW2 1752   2.284   8.439   8.002  0.5663 -0.8576  1.2076
  101SOL     OW 1753   4.056   2.010   1.620  0.3539  0.5091 -0.6296
  101SOL    HW1 1754   4.125   2.005   1.687  1.0091  1.6682 -1.2016
  101SOL    HW2 1755   4.082   1.947   1.553  0.0722 -0.1238 -0.1588
  102SOL     OW 1756   2.226   9.207   1.668 -0.5178  0.3536 -0.2769
  102SOL    HW1 1757   2.169   9.161   1.606  0.8483 -1.0632 -0.5525
  102SOL    HW2 1758   2.186   9.293   1.678 -1.6019  0.0950 -1.9592
  103SOL     OW 1759   3.627   3.918   1.409 -0.2933 -0.0608 -0.0740
  103SOL    HW1 1760   3.625   3.939   1.502 -0.0149 -0.5461  0.0435
  103SOL    HW2 1761   3.622   3.823   1.406 -0.0031 -0.0619 -0.5469
  104SOL     OW 1762   8.697   7.741   6.745 -0.1589 -0.6142 -0.0871
  104SOL    HW1 1763   8.658   7.821   6.710 -0.6367  0.2119  2.1403
  104SOL    HW2 1764   8.667   7.672   6.687 -2.5470  0.3825 -0.1559
  105SOL     OW 1765   6.724   1.814   6.087  0.5993  0.1214  0.0295
  105SOL    HW1 1766   6.767   1.730   6.097  2.6451  1.3243  2.4307
  105SOL    HW2 1767   6.686   1.832   6.173 -0.8407  1.1671 -0.7734
  106SOL     OW 1768   0.135   7.530   5.958  0.3804  0.4127 -0.3280
  106SOL    HW1 1769   0.167   7.440   5.957 -1.0470 -0.1248 -1.6136
  106SOL    HW2 1770   0.115   7.546   6.050  1.8029 -0.1229  0.1100
  107SOL     OW 1771   1.991   4.225   9.043 -0.3488 -0.1490  0.2190
  107SOL    HW1 1772   2.003   4.158   8.975 -0.4559 -0.8575  0.8918
  107SOL    HW2 1773   1.897   4.242   9.043 -0.4113 -0.4906  0.5100
  108SOL     OW 1774   0.064   4.995   8.099  0.7708  0.0261  0.4220
  108SOL    HW1 1775   0.100   4.982   8.012 -0.4107  1.3488 -0.3147
  108SOL    HW2 1776   0.130   4.960   8.158  1.8742 -0.3342 -0.9745
  109SOL     OW 1777   7.816   8.943   4.935  0.5313  0.2286  0.0903
  109SOL    HW1 1778   7.865   9.023   4.917  0.4608  0.0900 -0.7309
  109SOL    HW2 1779   7.747   8.941   4.869 -0.2888  0.1647  0.9236
  110SOL     OW 1780   4.144   7.198   1.485  0.6458  1.0391 -0.3459
  110SOL    HW1 1781   4.064   7.172   1.531  0.2534 -1.2180 -2.1484
  110SOL    HW2 1782   4.211   7.138   1.519  2.0281  3.7186  2.0999
  111SOL     OW 1783   5.823   5.774   9.194 -0.2564 -0.7929  0.2609
  111SOL    HW1 1784   5.776   5.853   9.166 -0.1316 -1.4791 -2.0145
  111SOL    HW2 1785   5.908   5.780   9.152  0.2276 -1.5472  1.0989
  112SOL     OW 1786   2.295   2.032   3.374  0.3759 -0.8045  0.2268
  112SOL    HW1 1787   2.231   2.009   3.306 -1.2037 -1.8938  1.9690
  112SOL    HW2 1788   2.263   1.986   3.452  1.8851  0.7239  1.8050
  113SOL     OW 1789   7.320   4.928   1.911 -0.0467  0.7949  0.2893
  113SOL    HW1 1790   7.265   4.986   1.858 -0.8855 -0.2102  0.0509
  113SOL    HW2 1791   7.294   4.946   2.001 -1.0207  0.0809  0.1599
  114SOL     OW 1792   4.390   1.410   8.025  0.2134  0.4378  0.3118
  114SOL    HW1 1793   4.428   1.485   7.979  1.0758 -0.2505 -0.1259
  114SOL    HW2 1794   4.464   1.368   8.068  0.1499 -1.3859 -1.2006
  115SOL     OW 1795   8.941   1.684   8.014 -0.0055 -1.1041 -0.6407
  115SOL    HW1 1796   8.994   1.704   8.091 -0.0621 -0.0831 -0.8468
  115SOL    HW2 1797   8.946   1.763   7.961 -0.6033 -1.5107 -1.3203
  116SOL     OW 1798   2.014   8.935   5.996 -0.2298  0.2267  0.1482
  116SOL    HW1 1799   1.981   8.860   5.946 -1.3519 -0.9407  2.4978
  116SOL    HW2 1800   2.077   8.898   6.057 -0.2591  1.2976  0.8527
  117SOL     OW 1801   8.248   6.149   7.698  0.5343  0.3699 -0.2465
  117SOL    HW1 1802   8.290   6.235   7.699  1.8683 -0.2590 -0.2845
  117SOL    HW2 1803   8.258   6.118   7.608 -0.0489  0.2237 -0.2635
  118SOL     OW 1804   6.632   5.661   0.926 -0.3928 -0.1125 -0.1976
  118SOL    HW1 1805   6.610   5.607   0.851  1.5093 -1.3513  0.0536
  118SOL    HW2 1806   6.638   5.750   0.892 -0.1532 -0.5728 -1.3833
  119SOL     OW 1807   5.100   5.113   8.895 -0.0724 -0.1185  0.5605
  119SOL    HW1 1808   5.189   5.096   8.864  0.5885  0.7693  1.8450
  119SOL    HW2 1809   5.058   5.160   8.824  1.0582  0.9861  0.5958
  120SOL     OW 1810   5.093   1.253   0.626  0.2379 -0.3651 -0.3505
  120SOL    HW1 1811   5.030   1.281   0.692 -0.7335  0.9476 -1.7514
  120SOL    HW2 1812   5.060   1.291   0.544  1.1583 -2.2602 -1.6717
  121SOL     OW 1813   5.329   1.831   4.191 -0.0251 -0.1381  0.3954
  121SOL    HW1 1814   5.284   1.766   4.136 -1.2614  1.0208 -0.0250
  121SOL    HW2 1815   5.390   1.875   4.131  0.0462 -0.2020  0.4213
  122SOL     OW 1816   1.695   0.327   8.782 -0.2433 -0.1871  0.2410
  122SOL    HW1 1817   1.756   0.337   8.855 -0.1922  0.0389  0.1688
  122SOL    HW2 1818   1.662   0.415   8.766  0.6394 -0.0091 -0.7705
  123SOL     OW 1819   4.943   8.142   8.816  0.7943  0.1717 -0.2350
  123SOL    HW1 1820   4.994   8.110   8.742 -0.0129  0.2347 -0.8376
  123SOL    HW2 1821   4.867   8.185   8.776  0.1600 -0.1053  0.6372
  124SOL     OW 1822   7.299   2.810   5.496  0.5217  0.1071 -0.3280
  124SOL    HW1 1823   7.242   2.887   5.495  0.7680  0.2849 -0.6678
  124SOL    HW2 1824   7.357   2.824   5.571  0.8068  0.4278 -0.6076
  125SOL     OW 1825   6.996   3.924   4.079 -0.5685  0.5905 -0.2926
  125SOL    HW1 1826   6.929   3.983   4.044 -0.6792 -0.7117 -2.4263
  125SOL    HW2 1827   6.955   3.838   4.077 -0.0932  0.2456  1.9537
  126SOL     OW 1828   7.958   0.967   4.796 -0.0083 -0.3527 -0.1172
  126SOL    HW1 1829   7.996   0.997   4.714  0.4411  0.5940  0.4283
  126SOL    HW2 1830   7.880   0.917   4.770  1.4036 -2.1080 -1.2471
  127SOL     OW 1831   8.173   4.553   5.301 -0.2423 -0.1720 -0.6044
  127SOL    HW1 1832   8.214   4.633   5.268 -1.0909  0.8334  0.6864
  127SOL    HW2 1833   8.111   4.528   5.232 -1.3966  1.4230 -0.1885
  128SOL     OW 1834   4.408   4.871   4.944 -0.8169 -0.2400  0.2753
  128SOL    HW1 1835   4.495   4.832   4.936 -0.8466  0.0303 -1.8833
  128SOL    HW2 1836   4.349   4.796   4.951 -0.4676 -0.4292  1.4652
  129SOL     OW 1837   7.656   1.436   8.695 -0.6602 -0.1386 -0.3725
  129SOL    HW1 1838   7.618   1.415   8.609  1.1252 -1.4782 -0.8948
  129SOL    HW2 1839   7.742   1.395   8.694 -0.3106  0.4049  1.8261
  130SOL     OW 1840   6.215   0.918   1.265 -0.6524 -0.0829  0.2930
  130SOL    HW1 1841   6.199   0.946   1.175 -0.4521  0.9875  0.5846
  130SOL    HW2 1842   6.207   0.998   1.317  1.4489 -0.2518  0.9685
  131SOL     OW 1843   8.048   3.183   2.607  0.5208 -0.4902 -0.2564
  131SOL    HW1 1844   8.072   3.187   2.515  3.5413  1.2429  0.4646
  131SOL    HW2 1845   8.106   3.116   2.644  0.0744 -0.4400  0.5615
  132SOL     OW 1846   6.898   5.574   3.572  0.0141 -0.8556 -0.3724
  132SOL    HW1 1847   6.841   5.609   3.641  0.1673 -0.6224 -0.3649
  132SOL    HW2 1848   6.863   5.486   3.555 -2.0617  0.2144 -2.2433
  133SOL     OW 1849   9.257   4.304   6.752 -0.5937 -0.3050 -0.3858
  133SOL    HW1 1850   9.328   4.355   6.713 -0.4682  0.0995  0.3366
  133SOL    HW2 1851   9.274   4.214   6.725  1.1154 -0.4615  1.0311
  134SOL     OW 1852   3.197   3.874   5.069 -0.1500 -0.0168 -0.1601
  134SOL    HW1 1853   3.290   3.877   5.089 -0.3999  1.0650  0.9599
  134SOL    HW2 1854   3.170   3.785   5.093  0.1148  0.4221  1.9872
  135SOL     OW 1855   7.128   4.781   2.500 -0.0108  0.2944 -0.3302
  135SOL    HW1 1856   7.146   4.864   2.456  0.2587 -0.1335 -1.0358
  135SOL    HW2 1857   7.202   4.771   2.561  0.8065 -0.1738 -1.3564
  136SOL     OW 1858   4.536   5.900   7.261  0.2674 -0.0258 -0.0831
  136SOL    HW1 1859   4.456   5.922   7.213 -0.0163 -0.1192  0.3441
  136SOL    HW2 1860   4.570   5.823   7.215 -0.9336 -1.1860  0.8947
  137SOL     OW 1861   8.217   2.770   1.802  0.5027  0.5936  0.0413
  137SOL    HW1 1862   8.234   2.864   1.805 -0.4677  0.7354  1.7976
  137SOL    HW2 1863   8.122   2.762   1.800  0.5779 -0.3609 -0.4449
  138SOL     OW 1864   4.992   4.275   3.854  0.1284  0.0468 -0.2316
  138SOL    HW1 1865   4.927   4.229   3.801  0.1438 -0.4714  0.1858
  138SOL    HW2 1866   5.072   4.271   3.803 -0.2862  1.1723 -1.0038
  139SOL     OW 1867   7.381   2.930   3.032 -0.5059  0.3907  0.0248
  139SOL    HW1 1868   7.397   2.839   3.006  0.2549  1.1377 -2.3699
  139SOL    HW2 1869   7.350   2.973   2.953  2.9380  3.0908 -0.1042
  140SOL     OW 1870   7.060   4.575   0.161 -0.2892  0.3954  0.6264
  140SOL    HW1 1871   7.047   4.615   0.246  1.4603 -0.1837  1.2080
  140SOL    HW2 1872   7.084   4.484   0.180 -1.7488 -0.2985 -0.5706
  141SOL     OW 1873   8.991   3.874   2.553 -0.0478  0.1520 -0.0143
  141SOL    HW1 1874   9.024   3.924   2.627  0.6905  0.7889 -0.7562
  141SOL    HW2 1875   8.905   3.912   2.534 -0.4449 -0.3173  0.7820
  142SOL     OW 1876   7.045   3.104   6.593 -0.5521 -0.0554 -0.1515
  142SOL    HW1 1877   7.002   3.185   6.564  0.8500  0.4509 -0.8731
  142SOL    HW2 1878   7.128   3.132   6.630 -0.6222 -1.0641  0.8310
  143SOL     OW 1879   8.571   7.872   3.840 -0.2533 -0.0429 -0.2426
  143SOL    HW1 1880   8.484   7.912   3.852  0.2826  1.3569 -0.7331
  143SOL    HW2 1881   8.608   7.867   3.928 -0.2399  0.8134 -0.1896
  144SOL     OW 1882   3.117   9.156   3.117  0.2280  0.1009 -0.6518
  144SOL    HW1 1883   3.189   9.140   3.056  0.7035 -0.3900  0.0220
  144SOL    HW2 1884   3.126   9.248   3.141  1.4920 -0.2761  0.4806
  145SOL     OW 1885   2.469   4.652   0.103 -0.5136 -0.2239  0.8591
  145SOL    HW1 1886   2.521   4.678   0.179 -2.6256  1.3042  1.8938
  145SOL    HW2 1887   2.520   4.681   0.028 -0.1257  1.8751  1.8568
  146SOL     OW 1888   8.203   6.518   2.785 -0.0064  0.0154  0.3960
  146SOL    HW1 1889   8.111   6.505   2.807  0.0953  1.0217  1.5021
  146SOL    HW2 1890   8.240   6.564   2.861  2.2144 -3.3427  1.5846
  147SOL     OW 1891   6.301   5.805   7.827 -0.0242 -0.7112  0.2451
  147SOL    HW1 1892   6.242   5.737   7.859  0.9387 -1.2365  0.9721
  147SOL    HW2 1893   6.315   5.863   7.902  1.3280 -1.2925  0.4844
  148SOL     OW 1894   0.206   3.235   4.753 -0.4300  0.1414  0.2222
  148SOL    HW1 1895   0.259   3.281   4.686 -1.2889  0.5556 -0.1858
  148SOL    HW2 1896   0.134   3.295   4.771 -2.6724 -1.7787 -1.6985
  149SOL     OW 1897   2.539   4.731   5.467 -0.1161  0.5344  0.0975
  149SOL    HW1 1898   2.501   4.697   5.386 -0.3963 -1.4923  1.0307
  149SOL    HW2 1899   2.494   4.814   5.481 -2.8676 -0.8437  0.1201
  150SOL     OW 1900   7.239   4.708   9.016 -0.1593 -0.2056  0.1718
  150SOL    HW1 1901   7.302   4.740   9.080  0.6111 -1.7332  0.2144
  150SOL    HW2 1902   7.157   4.751   9.040  0.6720  1.2440  0.5713
  151SOL     OW 1903   1.266   7.492   2.265 -0.1560  0.4612  0.0626
  151SOL    HW1 1904   1.254   7.403   2.297  2.4249 -0.9398 -2.4609
  151SOL    HW2 1905   1.229   7.547   2.335 -0.0051 -2.4439  2.6748
  152SOL     OW 1906   5.359   7.603   6.083 -0.2769  0.3290  0.1367
  152SOL    HW1 1907   5.310   7.528   6.117  0.6785  0.2934  1.5195
  152SOL    HW2 1908   5.292   7.660   6.045 -1.1055 -0.8373 -0.1931
  153SOL     OW 1909   7.834   2.784   0.056 -0.0747  0.4257  0.2725
  153SOL    HW1 1910   7.786   2.867   0.049 -0.0307  0.3725 -0.9827
  153SOL    HW2 1911   7.767   2.717   0.045 -0.2812  0.2381  2.3604
  154SOL     OW 1912   1.261   7.385   5.442 -0.1594  0.2874 -0.0466
  154SOL    HW1 1913   1.333   7.436   5.480 -0.0224  0.7269 -0.8744
  154SOL    HW2 1914   1.289   7.294   5.452 -0.3397  0.3602  1.3149
  155SOL     OW 1915   5.505   1.339   5.615  0.3551 -0.0791 -0.3783
  155SOL    HW1 1916   5.468   1.398   5.550  3.1636 -0.5373 -2.6530
  155SOL    HW2 1917   5.564   1.283   5.564  1.9722 -1.1550  2.4597
  156SOL     OW 1918   1.220   3.099   1.220  0.8406  0.0391  0.1770
  156SOL    HW1 1919   1.281   3.122   1.290 -0.9406  0.2094  1.7446
  156SOL    HW2 1920   1.184   3.183   1.191  2.5807  0.1218 -2.0090
  157SOL     OW 1921   5.407   1.386   6.473  0.1058  0.3194  0.0060
  157SOL    HW1 1922   5.451   1.314   6.428 -2.4254 -1.6288  0.4452
  157SOL    HW2 1923   5.453   1.465   6.443  2.5017 -1.3691 -1.0674
  158SOL     OW 1924   6.695   0.683   3.311 -0.0520  0.4157  0.1443
  158SOL    HW1 1925   6.746   0.724   3.241 -0.4386  2.4991  1.0308
  158SOL    HW2 1926   6.624   0.745   3.329 -1.2410 -1.0881  0.9134
  159SOL     OW 1927   3.119   0.724   9.107 -0.5237 -0.7427 -0.3276
  159SOL    HW1 1928   3.139   0.760   9.021  1.3086 -3.3463 -1.1257
  159SOL    HW2 1929   3.202   0.729   9.155 -1.8148  1.8980  1.8987
  160SOL     OW 1930   2.880   1.284   2.169  0.0002 -0.4000 -0.2358
  160SOL    HW1 1931   2.838   1.223   2.108 -0.8162  1.0860 -1.2028
  160SOL    HW2 1932   2.960   1.312   2.124  0.8460 -1.4151  0.5948
  161SOL     OW 1933   5.052   6.212   0.711  0.7054 -0.0632 -0.1968
  161SOL    HW1 1934   4.982   6.255   0.761  0.8929 -0.4094  0.3763
  161SOL    HW2 1935   5.017   6.126   0.689 -0.2172  0.8384 -2.5688
  162SOL     OW 1936   1.444   1.549   9.232 -0.3903  0.8766 -0.4498
  162SOL    HW1 1937   1.515   1.513   9.286 -0.8307 -1.1398 -1.1356
  162SOL    HW2 1938   1.409   1.621   9.284  0.5674  0.3427  1.0078
  163SOL     OW 1939   3.670   3.313   7.822 -0.5172  0.3271  0.0608
  163SOL    HW1 1940   3.598   3.270   7.777 -0.5706  0.7165 -0.2293
  163SOL    HW2 1941   3.749   3.274   7.784 -0.5703  0.1657  0.1156
  164SOL     OW 1942   1.951   4.114   5.094  0.0008  0.4924  0.1081
  164SOL    HW1 1943   1.916   4.202   5.112 -0.1110  0.5754 -0.4827
  164SOL    HW2 1944   1.981   4.118   5.004 -0.4362 -0.2118 -0.0821
  165SOL     OW 1945   6.069   2.998   4.171  0.3093 -0.0284  0.6764
  165SOL    HW1 1946   6.025   2.972   4.090  1.8334  1.8685 -0.8267
  165SOL    HW2 1947   6.002   2.985   4.239 -1.3926 -0.5708 -1.0114
  166SOL     OW 1948   0.937   1.710   2.320 -0.1595 -0.1128  0.0146
  166SOL    HW1 1949   0.926   1.628   2.273 -0.3014 -0.5726  0.8313
  166SOL    HW2 1950   0.866   1.766   2.288  0.8422  0.2740 -1.6966
  167SOL     OW 1951   6.912   3.747   9.097  0.2724  0.3880 -0.0115
  167SOL    HW1 1952   6.974   3.801   9.146 -1.2328  0.7063  1.6272
  167SOL    HW2 1953   6.937   3.657   9.119 -0.0461  0.5187  0.9072
  168SOL     OW 1954   1.990   1.863   1.067  0.2875  0.4877 -0.2241
  168SOL    HW1 1955   1.908   1.913   1.059  0.4934  0.8360 -0.1974
  168SOL    HW2 1956   1.969   1.794   1.130  0.5077  1.6675  1.2113
  169SOL     OW 1957   3.039   1.483   5.205  0.1556 -0.3198  0.8626
  169SOL    HW1 1958   2.959   1.430   5.199 -2.0202  2.7528  0.7977
  169SOL    HW2 1959   3.077   1.458   5.289 -0.2183 -2.6189  0.4260
  170SOL     OW 1960   6.064   4.858   4.216  0.4007  0.0828 -0.2931
  170SOL    HW1 1961   6.030   4.772   4.242  1.0174 -0.0685  0.0354
  170SOL    HW2 1962   5.990   4.900   4.171 -1.2265  0.9087  2.8743
  171SOL     OW 1963   6.871   9.059   7.214 -0.4314 -0.2497 -0.1456
  171SOL    HW1 1964   6.894   8.983   7.267  0.7868  0.5944  0.5725
  171SOL    HW2 1965   6.902   9.134   7.264  0.0172  0.6277 -1.6659
  172SOL     OW 1966   4.410   3.468   3.248 -0.0725 -0.1530  0.3750
  172SOL    HW1 1967   4.478   3.420   3.201 -0.1106 -0.0670  0.2310
  172SOL    HW2 1968   4.436   3.463   3.340 -0.7304 -1.5274  0.5171
  173SOL     OW 1969   3.155   8.485   0.818  0.1800  0.3115 -0.3497
  173SOL    HW1 1970   3.224   8.421   0.836  1.0646  0.8659 -1.6459
  173SOL    HW2 1971   3.195   8.570   0.839 -0.7831  0.5225  0.7784
  174SOL     OW 1972   6.066   0.201   3.626 -0.1468 -0.5024 -0.0965
  174SOL    HW1 1973   5.986   0.226   3.580 -0.3661  0.1170  0.5878
  174SOL    HW2 1974   6.055   0.108   3.647 -0.4975 -0.5251 -0.3834
  175SOL     OW 1975   8.427   7.216   7.553  0.5755 -0.0969 -0.0620
  175SOL    HW1 1976   8.415   7.196   7.460 -0.9576  0.5845 -0.0385
  175SOL    HW2 1977   8.338   7.214   7.589  1.0166  0.9527  1.1181
  176SOL     OW 1978   8.482   7.646   4.371  0.0838  0.0377  0.6402
  176SOL    HW1 1979   8.479   7.710   4.442  0.0335  0.5325  0.1966
  176SOL    HW2 1980   8.457   7.695   4.293 -0.3668 -0.6172  0.3561
  177SOL     OW 1981   8.913   1.001   7.839 -0.3727 -0.0871 -0.2330
  177SOL    HW1 1982   8.996   1.035   7.871 -0.9446 -0.2170  1.4908
  177SOL    HW2 1983   8.938   0.930   7.779  0.8032 -1.9901  2.3459
  178SOL     OW 1984   8.401   2.004   0.457  0.1722  0.1271  0.1207
  178SOL    HW1 1985   8.402   2.050   0.373 -1.1287 -0.6214 -0.3314
  178SOL    HW2 1986   8.489   1.969   0.467  0.0785 -0.5953 -1.4044
  179SOL     OW 1987   5.786   9.049   5.146 -0.3245 -0.2908  0.2008
  179SOL    HW1 1988   5.855   9.093   5.098  1.0509 -2.9038 -0.3638
  179SOL    HW2 1989   5.822   9.037   5.234 -0.0857 -1.5275 -0.0531
  180SOL     OW 1990   1.874   0.790   0.308  0.5039 -0.1855 -0.2696
  180SOL    HW1 1991   1.862   0.876   0.348 -1.1441 -0.0400 -0.9756
  180SOL    HW2 1992   1.939   0.803   0.239 -2.4081  1.5279 -3.0045
  181SOL     OW 1993   0.941   6.952   6.508 -1.0816 -0.2324 -0.3179
  181SOL    HW1 1994   1.002   6.985   6.574 -0.6829  0.5753 -1.0751
  181SOL    HW2 1995   0.859   6.940   6.556 -0.4415 -1.0387  0.6427
  182SOL     OW 1996   2.972   5.347   6.538 -0.4410  0.0320  0.0553
  182SOL    HW1 1997   2.941   5.340   6.629 -1.2526  3.8254  0.2739
  182SOL    HW2 1998   3.067   5.358   6.546 -0.5438  0.6949  0.5438
  183SOL     OW 1999   8.530   4.194   2.215 -0.0148  0.1501 -0.5437
  183SOL    HW1 2000   8.602   4.224   2.269  0.7535 -0.6926 -1.0754
  183SOL    HW2 2001   8.467   4.157   2.277 -0.0771  1.0277 -0.0681
  184SOL     OW 2002   1.381   0.747   3.632 -0.0954 -0.0486  0.1857
  184SOL    HW1 2003   1.392   0.686   3.560  0.2230  1.0056 -0.6832
  184SOL    HW2 2004   1.292   0.782   3.622  0.3479  0.9609 -0.4139
  185SOL     OW 2005   2.602   2.444   3.142 -0.2059 -0.0210  0.5750
  185SOL    HW1 2006   2.534   2.473   3.081  1.9172 -0.5631 -2.2800
  185SOL    HW2 2007   2.678   2.499   3.121  0.7926 -0.5759  2.4460
  186SOL     OW 2008   4.665   2.068   0.388  0.2253 -0.1883  0.2901
  186SOL    HW1 2009   4.630   2.052   0.476  0.4786 -2.5431  0.0451
  186SOL    HW2 2010   4.631   2.154   0.364 -0.4166  0.2194  2.4081
  187SOL     OW 2011   3.873   0.329   4.474 -0.0698 -0.3277 -0.0694
  187SOL    HW1 2012   3.790   0.347   4.429  0.1360 -0.2346 -0.4177
  187SOL    HW2 2013   3.851   0.331   4.567 -0.7537 -1.7517 -0.1873
  188SOL     OW 2014   8.099   0.065   4.708  0.4504  0.1443  0.1091
  188SOL    HW1 2015   8.026   0.069   4.646  0.2819  0.9408  0.3525
  188SOL    HW2 2016   8.173   0.035   4.655  0.7485  2.4698 -0.9223
  189SOL     OW 2017   8.345   4.494   5.064  0.2071 -0.2535  0.0874
  189SOL    HW1 2018   8.283   4.428   5.092  0.8526 -0.8910  0.0496
  189SOL    HW2 2019   8.419   4.445   5.027  0.6441  0.4829 -0.0620
  190SOL     OW 2020   4.120   3.679   2.513 -0.5393  0.3380  0.3460
  190SOL    HW1 2021   4.041   3.628   2.497 -0.2294  0.2377 -1.0023
  190SOL    HW2 2022   4.089   3.767   2.530 -0.9339  0.5979 -1.4650
  191SOL     OW 2023   4.366   0.588   5.360 -0.5889 -0.4450  0.1289
  191SOL    HW1 2024   4.376   0.515   5.299  0.1842 -0.0239 -0.2724
  191SOL    HW2 2025   4.453   0.600   5.397 -1.0797 -0.7638  1.4136
  192SOL     OW 2026   9.127   8.909   2.697 -0.1480 -0.3650  0.0997
  192SOL    HW1 2027   9.084   8.868   2.772 -0.3310 -2.5804 -1.1399
  192SOL    HW2 2028   9.112   8.849   2.624  0.9069  1.1993 -1.5023
  193SOL     OW 2029   4.232   4.313   1.824 -0.3802 -0.4408  0.2180
  193SOL    HW1 2030   4.196   4.380   1.766 -0.6105 -1.6374 -1.0707
  193SOL    HW2 2031   4.184   4.324   1.906 -1.3504  0.1158 -0.4037
  194SOL     OW 2032   5.953   2.748   4.594 -0.2547 -0.0385  0.3451
  194SOL    HW1 2033   5.937   2.698   4.673 -0.3394  0.0372  0.3767
  194SOL    HW2 2034   6.038   2.790   4.608 -0.3604  0.1310  0.4766
  195SOL     OW 2035   8.246   2.696   1.124 -0.2550 -0.2507  0.0401
  195SOL    HW1 2036   8.250   2.788   1.149  1.2611  0.4374 -2.3399
  195SOL    HW2 2037   8.155   2.671   1.139 -0.8191  1.7785  0.3074
  196SOL     OW 2038   8.069   2.263   1.403 -0.2874  0.0372  0.0074
  196SOL    HW1 2039   8.079   2.338   1.462 -0.8457  0.0271  0.1238
  196SOL    HW2 2040   8.051   2.189   1.461  1.3594 -0.4327 -0.0195
  197SOL     OW 2041   2.971   5.359   5.842  0.5837 -0.3210  0.3653
  197SOL    HW1 2042   3.056   5.387   5.875  1.0005 -0.3756 -0.6049
  197SOL    HW2 2043   2.918   5.439   5.841  1.4817  0.3284 -1.5356
  198SOL     OW 2044   2.938   1.199   2.522 -0.2160 -0.4177 -0.1968
  198SOL    HW1 2045   2.978   1.281   2.552 -1.7311 -0.3942  1.9219
  198SOL    HW2 2046   2.856   1.226   2.481  0.2316 -0.7570 -1.3737
  199SOL     OW 2047   3.639   1.528   7.905 -0.2604  0.0698  0.2805
  199SOL    HW1 2048   3.553   1.510   7.943 -0.5748  0.4551 -0.2314
  199SOL    HW2 2049   3.626   1.518   7.811 -0.1182  1.5982  0.0753
  200SOL     OW 2050   7.771   4.969   1.299 -0.6166 -0.0649  0.0589
  200SOL    HW1 2051   7.836   4.969   1.230 -1.3280 -1.4258 -0.6382
  200SOL    HW2 2052   7.821   4.965   1.381  0.1784 -0.4768 -0.4470
  201SOL     OW 2053   1.980   8.150   4.524  0.1085 -0.1676  0.3190
  201SOL    HW1 2054   2.050   8.185   4.468  0.7111  0.8159  1.6368
  201SOL    HW2 2055   1.981   8.056   4.507  1.5041 -0.1190  0.0223
  202SOL     OW 2056   4.935   1.752   7.972  0.0195  0.1046 -0.4004
  202SOL    HW1 2057   5.018   1.765   8.016 -0.4228 -1.1593  0.8739
  202SOL    HW2 2058   4.869   1.769   8.039 -0.7113 -0.3201 -0.9973
  203SOL     OW 2059   0.345   7.472   2.502  0.0457 -0.0244 -0.0000
  203SOL    HW1 2060   0.332   7.474   2.597  1.6530 -0.1378  0.2476
  203SOL    HW2 2061   0.284   7.538   2.469  0.1093  0.6814  1.2037
  204SOL     OW 2062   5.683   8.585   3.466 -0.1604 -0.5119  0.3323
  204SOL    HW1 2063   5.754   8.548   3.414 -0.5219 -0.5914 -0.1076
  204SOL    HW2 2064   5.725   8.608   3.550  0.7639  0.9554 -0.4797
  205SOL     OW 2065   2.514   7.953   9.204 -0.1039  0.5307  0.4430
  205SOL    HW1 2066   2.459   7.979   9.278  0.4586  0.6230  0.8301
  205SOL    HW2 2067   2.455   7.958   9.128 -0.1843  2.4440  0.5720
  206SOL     OW 2068   7.012   7.770   7.359 -0.0757  0.3310  0.1868
  206SOL    HW1 2069   7.064   7.848   7.340 -2.4954  1.6648 -1.5388
  206SOL    HW2 2070   6.982   7.739   7.274 -0.1768 -1.8136  0.9301
  207SOL     OW 2071   3.257   4.918   4.437  0.5364 -0.2852  0.2972
  207SOL    HW1 2072   3.337   4.967   4.454  1.1219 -1.1848  0.1998
  207SOL    HW2 2073   3.199   4.981   4.393  0.7755  0.6817  1.3059
  208SOL     OW 2074   7.066   2.146   0.978 -0.4256 -0.3304 -0.5541
  208SOL    HW1 2075   7.121   2.074   1.010  1.5668 -0.0426 -3.0359
  208SOL    HW2 2076   7.128   2.212   0.948 -2.2130  1.6354 -0.1663
  209SOL     OW 2077   0.739   5.222   8.714  0.5620  0.1608 -0.8844
  209SOL    HW1 2078   0.750   5.188   8.802  0.5467  1.1082 -0.4998
  209SOL    HW2 2079   0.656   5.271   8.718  0.6387  0.3390 -1.3755
  210SOL     OW 2080   6.266   0.244   1.549  0.2967  0.0173  0.0457
  210SOL    HW1 2081   6.234   0.194   1.624  0.3765 -1.4716 -0.8770
  210SOL    HW2 2082   6.188   0.268   1.500  0.3327 -0.1003 -0.0683
  211SOL     OW 2083   3.407   1.042   7.766 -0.4381 -0.3964 -0.1974
  211SOL    HW1 2084   3.360   0.962   7.790 -0.7670  0.0578  0.6837
  211SOL    HW2 2085   3.352   1.113   7.798 -1.1721  0.2755 -2.7398
  212SOL     OW 2086   2.523   5.365   1.938 -0.4624 -0.2377 -0.2926
  212SOL    HW1 2087   2.471   5.285   1.928 -1.0200  0.2178 -1.1903
  212SOL    HW2 2088   2.543   5.369   2.031 -0.7149 -1.2466 -0.1830
  213SOL     OW 2089   8.060   5.693   4.477  0.2544  0.3207 -0.4559
  213SOL    HW1 2090   8.010   5.744   4.541 -0.4071 -0.8017 -0.0472
  213SOL    HW2 2091   7.994   5.666   4.412  0.6343  0.1719 -0.7841
  214SOL     OW 2092   5.123   0.652   2.102 -0.1911  0.0669 -0.0461
  214SOL    HW1 2093   5.143   0.717   2.169  0.3623  0.6625 -0.7751
  214SOL    HW2 2094   5.046   0.686   2.057 -0.9579 -0.6515  0.6880
  215SOL     OW 2095   1.024   5.839   6.645 -0.0774  0.6101  0.2120
  215SOL    HW1 2096   1.022   5.827   6.550 -0.5726 -0.5660  0.3501
  215SOL    HW2 2097   1.085   5.772   6.677 -1.9909 -0.8504  0.9405
  216SOL     OW 2098   8.801   0.151   7.740  0.5827 -0.1203 -0.1278
  216SOL    HW1 2099   8.836   0.131   7.653  0.2955 -2.9102  0.3044
  216SOL    HW2 2100   8.768   0.241   7.732  1.1889 -0.0289 -2.6753
  217SOL     OW 2101   7.998   4.427   0.948 -0.0624  0.1321 -0.2206
  217SOL    HW1 2102   8.053   4.424   0.870 -0.5482 -1.3204 -0.5367
  217SOL    HW2 2103   7.954   4.511   0.943  0.4255  0.3464 -1.1484
  218SOL     OW 2104   5.238   5.552   3.436 -0.0722  0.0077 -0.0794
  218SOL    HW1 2105   5.146   5.550   3.465 -0.2019  1.6150 -0.2751
  218SOL    HW2 2106   5.246   5.478   3.376 -0.8807 -0.9324  0.9198
  219SOL     OW 2107   8.139   2.129   7.916 -0.7793  0.7711 -0.1882
  219SOL    HW1 2108   8.158   2.047   7.962 -0.8143  1.2733  0.7380
  219SOL    HW2 2109   8.220   2.179   7.921 -0.3885  0.3618 -1.7407
  220SOL     OW 2110   1.544   5.225   6.515 -0.2118  0.6821  0.0285
  220SOL    HW1 2111   1.555   5.267   6.600  0.6311  0.4694  0.0352
  220SOL    HW2 2112   1.551   5.132   6.534  0.4623  0.6542 -0.3355
  221SOL     OW 2113   5.595   4.404   8.400  0.4561 -0.2730  0.5196
  221SOL    HW1 2114   5.602   4.341   8.328 -0.0690 -1.6890  1.6451
  221SOL    HW2 2115   5.503   4.432   8.399  0.6926  0.5075  0.0104
  222SOL     OW 2116   7.027   7.306   4.950  0.5106  0.3815  0.1006
  222SOL    HW1 2117   7.008   7.246   4.878 -1.7581  0.3243  0.6953
  222SOL    HW2 2118   7.091   7.259   5.004  0.2151 -0.7006 -0.4633
  223SOL     OW 2119   7.385   7.148   7.687  0.0138 -0.4946 -0.4036
  223SOL    HW1 2120   7.300   7.133   7.646  0.7503 -1.2458 -1.7373
  223SOL    HW2 2121   7.448   7.114   7.624  1.2115 -1.8650  1.4270
  224SOL     OW 2122   4.926   5.097   5.471 -0.2001  0.0974  0.0378
  224SOL    HW1 2123   4.876   5.143   5.538 -0.2938 -0.4836  0.3746
  224SOL    HW2 2124   4.882   5.118   5.389 -1.4681 -1.0030  0.4036
  225SOL     OW 2125   1.680   1.613   7.526 -0.2114 -0.0377 -0.5465
  225SOL    HW1 2126   1.670   1.542   7.589  0.1022  0.6593  0.3026
  225SOL    HW2 2127   1.665   1.693   7.576  1.5241  0.6167 -0.9903
  226SOL     OW 2128   8.529   0.575   8.422 -0.0420 -0.1083 -0.1453
  226SOL    HW1 2129   8.557   0.641   8.487 -1.2648  0.0163  0.2832
  226SOL    HW2 2130   8.443   0.605   8.393  0.6979  0.1302 -2.2685
  227SOL     OW 2131   1.881   5.851   2.006 -0.0146 -0.1458 -0.0094
  227SOL    HW1 2132   1.816   5.922   2.002 -0.3117 -0.4370 -0.5057
  227SOL    HW2 2133   1.830   5.771   1.991  0.1045 -0.6150  1.8041
  228SOL     OW 2134   0.411   5.147   0.844 -0.3291  0.4117  0.2342
  228SOL    HW1 2135   0.378   5.141   0.755  2.4872 -0.3453 -0.8597
  228SOL    HW2 2136   0.461   5.067   0.857 -0.0462  0.8530  2.2436
  229SOL     OW 2137   8.729   4.110   2.013 -1.2650  0.1486  0.0561
  229SOL    HW1 2138   8.742   4.202   1.991 -1.8346  0.6462  1.6512
  229SOL    HW2 2139   8.666   4.112   2.086 -1.1611 -1.4893  0.2195
  230SOL     OW 2140   6.422   3.507   7.757 -0.7895  0.8197  0.4935
  230SOL    HW1 2141   6.408   3.511   7.662 -1.0798  0.6551  0.5305
  230SOL    HW2 2142   6.517   3.518   7.767 -0.6820  0.2549  0.1477
  231SOL     OW 2143   6.103   8.750   3.419  0.0037 -0.1563  0.1492
  231SOL    HW1 2144   6.087   8.656   3.410  0.5837 -0.2861  0.3988
  231SOL    HW2 2145   6.068   8.772   3.506 -1.5982  0.1966 -0.5535
  232SOL     OW 2146   2.689   2.001   4.835  0.0642  0.2583 -0.2626
  232SOL    HW1 2147   2.674   2.062   4.763 -0.4673 -0.2841 -0.6196
  232SOL    HW2 2148   2.626   1.930   4.821  1.9788 -1.3933 -1.0112
  233SOL     OW 2149   7.933   6.161   4.411 -0.2020 -0.1418 -0.1627
  233SOL    HW1 2150   7.901   6.096   4.473 -2.3859 -0.2485 -1.3144
  233SOL    HW2 2151   7.869   6.232   4.414  2.0257  1.9714  0.9455
  234SOL     OW 2152   3.517   4.393   0.949 -0.2235  0.5167  0.0798
  234SOL    HW1 2153   3.548   4.322   0.892  0.9259  0.7880  0.3512
  234SOL    HW2 2154   3.425   4.371   0.966 -1.5552  1.8590 -4.1295
  235SOL     OW 2155   3.985   0.817   1.705  0.3019 -0.3491  0.5780
  235SOL    HW1 2156   4.071   0.775   1.705 -0.0819 -1.1608  0.7851
  235SOL    HW2 2157   3.952   0.806   1.794 -0.6583 -1.4344  0.1228
  236SOL     OW 2158   5.491   1.092   3.458  0.1180  0.4806 -0.3847
  236SOL    HW1 2159   5.494   1.004   3.496 -2.6398  0.9271  1.1040
  236SOL    HW2 2160   5.574   1.132   3.483  0.5363 -1.0157  0.7136
  237SOL     OW 2161   7.856   0.873   1.404 -0.0325 -0.0681 -0.1140
  237SOL    HW1 2162   7.946   0.905   1.396  0.2398 -0.7808 -0.0532
  237SOL    HW2 2163   7.814   0.897   1.321  0.0317  0.8151  0.1084
  238SOL     OW 2164   4.081   6.005   0.236  0.1876 -0.0736  0.1690
  238SOL    HW1 2165   4.145   5.992   0.166 -0.0596  0.6369 -0.1970
  238SOL    HW2 2166   4.053   6.096   0.227 -0.9956 -0.4228  0.2239
  239SOL     OW 2167   4.154   2.988   4.257  0.5809 -0.1487  0.2667
  239SOL    HW1 2168   4.196   2.938   4.188  3.1460 -1.6159  2.6807
  239SOL    HW2 2169   4.174   3.079   4.236  0.3287 -0.4630 -1.4607
  240SOL     OW 2170   8.046   8.778   1.084  0.2720 -0.0916  0.4905
  240SOL    HW1 2171   7.996   8.699   1.102 -0.6334  0.6498  1.2740
  240SOL    HW2 2172   8.067   8.814   1.170 -0.3124  1.1263  0.1445
  241SOL     OW 2173   8.672   2.084   1.956  0.7771 -0.0900 -0.5832
  241SOL    HW1 2174   8.577   2.080   1.944  0.2079  0.8025  2.7336
  241SOL    HW2 2175   8.693   2.002   2.002  1.3984  0.3084 -0.1494
  242SOL     OW 2176   7.262   0.540   9.047 -0.5885 -0.2032  0.3032
  242SOL    HW1 2177   7.266   0.492   8.964 -1.5725  0.4064 -0.1080
  242SOL    HW2 2178   7.169   0.549   9.066 -0.3983 -1.6453  2.2841
  243SOL     OW 2179   7.805   1.338   8.007 -0.7466 -0.3243 -0.3878
  243SOL    HW1 2180   7.753   1.262   8.032 -0.6085 -0.0730  0.6981
  243SOL    HW2 2181   7.828   1.322   7.915 -0.1903 -1.9014 -0.0083
  244SOL     OW 2182   6.878   1.243   6.754  0.3698 -0.2651  0.0631
  244SOL    HW1 2183   6.907   1.216   6.841  1.6497 -0.9536 -0.5474
  244SOL    HW2 2184   6.906   1.172   6.696 -1.2844 -0.2643 -0.7990
  245SOL     OW 2185   2.853   0.617   5.924 -0.6241 -0.6364 -0.2623
  245SOL    HW1 2186   2.853   0.654   6.013 -0.0522 -0.1730 -0.4488
  245SOL    HW2 2187   2.828   0.526   5.937 -0.3602 -0.6259  0.4051
  246SOL     OW 2188   8.053   3.822   3.830  0.1067  0.6220  0.2615
  246SOL    HW1 2189   7.969   3.840   3.786  0.4003  1.1962 -0.0753
  246SOL    HW2 2190   8.083   3.740   3.791  1.2264  2.0119 -1.9543
  247SOL     OW 2191   0.625   5.325   2.100 -0.6587  0.7025 -0.4977
  247SOL    HW1 2192   0.641   5.290   2.012 -1.2755 -0.3656 -0.2097
  247SOL    HW2 2193   0.600   5.248   2.152  1.0333  1.0747  0.9671
  248SOL     OW 2194   5.268   4.447   8.759  0.3526  0.3375 -0.4595
  248SOL    HW1 2195   5.287   4.526   8.708  2.0000  0.9356  0.9909
  248SOL    HW2 2196   5.342   4.389   8.741  0.1692 -0.0617  0.0531
  249SOL     OW 2197   6.606   8.591   7.698  0.7687  0.0318 -0.1845
  249SOL    HW1 2198   6.566   8.659   7.752  0.6681 -0.6731  0.6457
  249SOL    HW2 2199   6.682   8.562   7.747  1.0367 -0.1856 -0.7189
  250SOL     OW 2200   8.239   6.177   5.071  0.0881  0.2754 -0.3159
  250SOL    HW1 2201   8.227   6.086   5.101  0.4345 -0.5429 -2.4514
  250SOL    HW2 2202   8.328   6.200   5.097  0.6944 -0.7295 -1.3652
  251SOL     OW 2203   9.260   7.865   6.849  0.5026  0.2307  0.3219
  251SOL    HW1 2204   9.258   7.785   6.902  0.2499  0.2799  0.3887
  251SOL    HW2 2205   9.229   7.837   6.762 -3.7310  1.0020  1.3644
  252SOL     OW 2206   3.471   4.911   5.112 -0.2212 -0.1979 -0.3566
  252SOL    HW1 2207   3.497   4.826   5.075 -0.3824 -0.9196  1.1342
  252SOL    HW2 2208   3.375   4.909   5.111 -0.2600 -0.8609  1.4238
  253SOL     OW 2209   3.881   1.167   2.949  0.5211 -0.6319 -0.0867
  253SOL    HW1 2210   3.806   1.144   2.895  0.0477  0.6602 -0.0319
  253SOL    HW2 2211   3.846   1.174   3.037 -0.0753  2.8806 -0.4286
  254SOL     OW 2212   0.912   2.787   3.175  0.0585 -0.2222  0.0622
  254SOL    HW1 2213   0.979   2.787   3.243  0.3344 -1.7899 -0.1767
  254SOL    HW2 2214   0.843   2.731   3.209 -1.4184  1.7536  0.5167
  255SOL     OW 2215   7.909   1.455   1.992 -0.8065  0.0486  0.4751
  255SOL    HW1 2216   7.826   1.410   2.003 -0.5960 -0.3368  0.4917
  255SOL    HW2 2217   7.937   1.433   1.903  0.5416 -1.9746  1.3305
  256SOL     OW 2218   7.323   4.907   8.078  0.0575  0.1175  0.4450
  256SOL    HW1 2219   7.313   4.957   8.159  0.4966 -0.0644  0.6087
  256SOL    HW2 2220   7.233   4.896   8.046 -0.1986 -0.5858  1.3697
  257SOL     OW 2221   8.015   2.965   7.535 -0.2204 -0.1719 -0.0979
  257SOL    HW1 2222   8.087   2.902   7.544  0.4015  0.6684  1.0302
  257SOL    HW2 2223   7.956   2.944   7.607  1.6316  2.5457  2.4626
  258SOL     OW 2224   3.897   1.909   2.951  0.1567 -0.5777  0.3745
  258SOL    HW1 2225   3.819   1.944   2.907  0.7395 -0.4059 -0.5486
  258SOL    HW2 2226   3.864   1.871   3.032 -0.9559 -0.9367 -0.2311
  259SOL     OW 2227   1.669   6.071   6.268 -0.3828 -0.0767  0.0833
  259SOL    HW1 2228   1.628   6.118   6.195 -1.2823  0.2830  0.8049
  259SOL    HW2 2229   1.646   5.979   6.254 -0.5471 -0.0113 -0.0784
  260SOL     OW 2230   3.276   1.800   7.228 -0.1915 -0.2744  0.7085
  260SOL    HW1 2231   3.249   1.891   7.237 -0.3802 -0.1757 -0.6571
  260SOL    HW2 2232   3.274   1.783   7.134 -0.5682 -1.8153  0.9640
  261SOL     OW 2233   6.294   4.978   0.429 -0.1097  0.7696 -0.2972
  261SOL    HW1 2234   6.315   5.011   0.342  0.8599  0.3680 -0.2257
  261SOL    HW2 2235   6.198   4.983   0.434 -0.1008  1.7703 -0.9844
  262SOL     OW 2236   3.339   8.160   0.613 -0.0209 -0.7266  0.2114
  262SOL    HW1 2237   3.311   8.185   0.525  0.0991  0.9176  0.6121
  262SOL    HW2 2238   3.396   8.084   0.599  1.9625  0.9347 -1.4102
  263SOL     OW 2239   3.893   4.770   5.464 -0.0389 -0.4129 -0.3635
  263SOL    HW1 2240   3.981   4.808   5.470 -0.1926  0.0249 -0.7958
  263SOL    HW2 2241   3.906   4.676   5.475  0.3907 -0.2693  0.4113
  264SOL     OW 2242   3.949   5.877   7.652  0.1421 -0.5401 -0.4938
  264SOL    HW1 2243   3.959   5.784   7.675 -0.5955 -0.2516  1.1167
  264SOL    HW2 2244   4.036   5.914   7.667  0.1720 -0.7626 -0.0826
  265SOL     OW 2245   9.161   1.699   5.627 -0.4045  0.0204 -0.4243
  265SOL    HW1 2246   9.125   1.743   5.550  2.7101  0.7904 -1.5996
  265SOL    HW2 2247   9.195   1.616   5.592 -0.3113 -0.3189  0.4563
  266SOL     OW 2248   5.186   9.278   1.770  0.4648 -0.1937  0.3360
  266SOL    HW1 2249   5.219   9.324   1.693  1.4545 -0.3617  0.6485
  266SOL    HW2 2250   5.175   9.347   1.836  0.5615 -0.1955  0.3537
  267SOL     OW 2251   7.266   7.788   7.018  0.3057 -0.2489  0.7717
  267SOL    HW1 2252   7.228   7.828   7.096  1.9257  1.4194  0.7879
  267SOL    HW2 2253   7.287   7.698   7.045  0.5471  0.2036  2.1746
  268SOL     OW 2254   5.110   2.432   1.401  0.3033 -0.0123 -0.7140
  268SOL    HW1 2255   5.084   2.406   1.490 -2.4863 -0.0873 -1.4586
  268SOL    HW2 2256   5.136   2.524   1.410  1.1141 -0.3282  0.3460
  269SOL     OW 2257   5.217   9.115   4.174 -0.0075  0.1331 -0.6878
  269SOL    HW1 2258   5.210   9.187   4.111 -0.6195  1.8424  1.2555
  269SOL    HW2 2259   5.296   9.136   4.225  0.6566 -1.3927 -1.0350
  270SOL     OW 2260   7.693   3.915   9.071  0.1661 -0.7239 -0.6791
  270SOL    HW1 2261   7.703   3.820   9.079 -2.1194 -1.1165 -1.5506
  270SOL    HW2 2262   7.730   3.950   9.152  0.8483 -2.3648 -0.2318
  271SOL     OW 2263   6.622   3.868   3.101  0.2743 -0.3918  0.0798
  271SOL    HW1 2264   6.599   3.775   3.105 -2.1730  0.1989  1.4920
  271SOL    HW2 2265   6.559   3.906   3.040  1.0990  0.4341 -0.2907
  272SOL     OW 2266   4.227   5.899   1.508  0.2133 -0.3899  0.0573
  272SOL    HW1 2267   4.134   5.897   1.488  0.4906 -0.1057 -1.3568
  272SOL    HW2 2268   4.255   5.808   1.503  0.1340 -0.4039 -0.1262
  273SOL     OW 2269   3.281   6.472   6.170 -0.1704 -0.1555  0.5598
  273SOL    HW1 2270   3.191   6.440   6.162  0.1827 -1.1280  0.2984
  273SOL    HW2 2271   3.317   6.463   6.082 -0.4036  2.1519  0.1590
  274SOL     OW 2272   7.413   4.854   2.259 -0.2182  0.1345 -0.6341
  274SOL    HW1 2273   7.394   4.946   2.241  0.2159  0.3560 -0.0083
  274SOL    HW2 2274   7.353   4.805   2.202 -0.1699  0.7998 -1.2724
  275SOL     OW 2275   1.581   3.872   7.904 -0.6894  0.4191  0.0446
  275SOL    HW1 2276   1.655   3.920   7.868 -0.5939  1.0553  1.0532
  275SOL    HW2 2277   1.514   3.877   7.836  1.1860 -3.0044 -2.3985
  276SOL     OW 2278   9.225   8.961   0.683  0.1192  0.2493 -0.1331
  276SOL    HW1 2279   9.194   9.008   0.761  0.4502  0.1943  0.0327
  276SOL    HW2 2280   9.310   9.001   0.664  0.5300 -0.4711  0.1702
  277SOL     OW 2281   8.639   3.217   2.269  0.4921  0.1085 -0.8524
  277SOL    HW1 2282   8.635   3.311   2.286  0.3079 -0.0803  0.2251
  277SOL    HW2 2283   8.732   3.199   2.253  0.6497  0.3307 -0.1783
  278SOL     OW 2284   9.201   8.323   2.207  0.1338  0.5728  0.1598
  278SOL    HW1 2285   9.240   8.236   2.204 -0.3600  0.3740 -0.7004
  278SOL    HW2 2286   9.171   8.333   2.298  0.0823 -0.1954  0.2350
  279SOL     OW 2287   2.099   8.214   3.808  0.2647  0.2624 -0.3974
  279SOL    HW1 2288   2.100   8.309   3.793  0.1617  0.2031 -0.7869
  279SOL    HW2 2289   2.032   8.181   3.747  1.3547 -0.2462 -1.3512
  280SOL     OW 2290   2.718   8.777   5.429  0.4125 -0.0534 -0.0143
  280SOL    HW1 2291   2.704   8.871   5.422  1.4823  0.0965 -0.2831
  280SOL    HW2 2292   2.662   8.739   5.360 -0.0216  0.3707  0.0975
  281SOL     OW 2293   5.947   2.640   8.158  0.4943  0.2666 -0.3278
  281SOL    HW1 2294   6.032   2.602   8.137 -0.3075 -0.3970 -2.6216
  281SOL    HW2 2295   5.912   2.584   8.227  0.4695 -1.6230 -1.8019
  282SOL     OW 2296   8.747   0.433   5.128 -0.5132 -0.1364  0.2937
  282SOL    HW1 2297   8.736   0.366   5.195  1.5542 -0.1152  0.7327
  282SOL    HW2 2298   8.695   0.507   5.159  0.3669 -0.1431  1.8832
  283SOL     OW 2299   7.390   1.585   6.566 -0.0322  0.5276  0.0697
  283SOL    HW1 2300   7.313   1.569   6.512 -0.1123 -0.4624  0.4655
  283SOL    HW2 2301   7.362   1.566   6.655  0.8985 -0.7721  0.1261
  284SOL     OW 2302   7.033   6.474   7.906  0.0853 -0.3789  0.9083
  284SOL    HW1 2303   7.045   6.448   7.998 -1.4414 -1.3882  0.8556
  284SOL    HW2 2304   6.963   6.539   7.908 -0.3537 -0.8264  0.4129
  285SOL     OW 2305   9.049   3.955   2.006  0.1027  0.3461  0.7274
  285SOL    HW1 2306   8.973   3.945   1.948 -1.0067  1.5232  1.9187
  285SOL    HW2 2307   9.015   4.002   2.082  1.7294 -0.3439  1.9339
  286SOL     OW 2308   2.406   6.872   4.611  1.3411 -0.3547  0.5980
  286SOL    HW1 2309   2.326   6.915   4.580  1.2083 -0.7336  0.3904
  286SOL    HW2 2310   2.448   6.936   4.667  0.9775 -0.0839  0.5692
  287SOL     OW 2311   3.908   7.678   9.007  0.0885 -0.1172 -0.0771
  287SOL    HW1 2312   3.952   7.600   9.041 -0.0957  0.3614  1.3460
  287SOL    HW2 2313   3.861   7.647   8.929 -0.5566 -1.6166  0.8458
  288SOL     OW 2314   1.996   9.247   7.214 -0.2835  0.5591 -0.1088
  288SOL    HW1 2315   1.970   9.155   7.229 -0.3170  0.6874  0.6760
  288SOL    HW2 2316   1.917   9.297   7.234 -0.2716  0.7600 -0.5656
  289SOL     OW 2317   7.881   0.517   3.362 -0.1188 -0.0538  0.0812
  289SOL    HW1 2318   7.913   0.604   3.337  0.1692 -0.3249 -0.5130
  289SOL    HW2 2319   7.796   0.533   3.401 -0.8302  0.3514 -1.5584
  290SOL     OW 2320   3.288   1.476   7.024 -0.1184  0.4951  0.2289
  290SOL    HW1 2321   3.361   1.450   7.081  0.3745 -0.9691 -1.0109
  290SOL    HW2 2322   3.210   1.450   7.074  0.2860 -0.2414  0.5013
  291SOL     OW 2323   2.584   6.978   7.596 -0.1687  0.2200  0.0235
  291SOL    HW1 2324   2.512   7.036   7.572 -0.6672  0.4218  1.8934
  291SOL    HW2 2325   2.562   6.894   7.555 -0.4429  0.8043 -1.0556
  292SOL     OW 2326   3.014   3.600   6.744  0.0947  0.5684  0.1769
  292SOL    HW1 2327   3.063   3.529   6.788  2.0324  1.2673 -0.7258
  292SOL    HW2 2328   3.038   3.679   6.793  0.3148  1.0023 -0.6220
  293SOL     OW 2329   5.831   4.647   8.397  0.2995 -0.2477  0.1452
  293SOL    HW1 2330   5.860   4.650   8.306 -3.6495  3.1999 -1.3331
  293SOL    HW2 2331   5.777   4.568   8.403  1.0697 -0.8153 -0.2871
  294SOL     OW 2332   3.146   5.464   3.850  0.2021 -0.3745  0.3163
  294SOL    HW1 2333   3.078   5.501   3.908  1.1687  2.3636 -0.1193
  294SOL    HW2 2334   3.210   5.426   3.910 -0.1019  0.0379  0.9129
  295SOL     OW 2335   8.401   4.007   8.253 -0.0871  0.8345  0.2642
  295SOL    HW1 2336   8.482   4.006   8.304  0.2942 -0.7560 -0.3193
  295SOL    HW2 2337   8.430   4.006   8.161 -0.7467 -0.5911  0.0487
  296SOL     OW 2338   2.222   3.140   8.706 -0.3061 -0.2111  0.0814
  296SOL    HW1 2339   2.146   3.091   8.739  0.7898 -0.7512  2.0175
  296SOL    HW2 2340   2.273   3.074   8.659 -1.2307  0.2677 -1.6760
  297SOL     OW 2341   5.864   8.895   7.555 -0.3940 -0.1701 -0.5354
  297SOL    HW1 2342   5.895   8.808   7.579 -1.0055 -1.7997 -4.8541
  297SOL    HW2 2343   5.942   8.941   7.525 -0.4572 -0.2010 -0.7497
  298SOL     OW 2344   5.647   7.567   3.566  0.6366  0.9218 -0.0979
  298SOL    HW1 2345   5.658   7.526   3.651  0.5516 -0.8796 -0.9186
  298SOL    HW2 2346   5.721   7.535   3.514 -0.2153  0.6579 -1.1929
  299SOL     OW 2347   9.265   0.973   8.409  0.3625 -0.3355 -0.0901
  299SOL    HW1 2348   9.297   0.970   8.499  1.0028  0.8451 -0.2483
  299SOL    HW2 2349   9.265   1.067   8.387 -0.5062 -0.5411 -1.0651
  300SOL     OW 2350   3.308   1.935   4.800 -0.1643  0.1129 -0.2225
  300SOL    HW1 2351   3.349   2.004   4.852 -0.2112  0.7150 -0.9626
  300SOL    HW2 2352   3.373   1.915   4.732  0.9386 -2.3757  1.4401
  301SOL     OW 2353   0.297   1.409   3.958  0.4027 -0.3242  0.0985
  301SOL    HW1 2354   0.273   1.336   3.901 -0.4517  0.0138  0.0162
  301SOL    HW2 2355   0.372   1.377   4.008 -0.3680 -1.4849  0.5361
  302SOL     OW 2356   1.496   3.251   5.563  0.3358  0.1724  0.4674
  302SOL    HW1 2357   1.479   3.249   5.469  0.4661 -2.1776  0.4451
  302SOL    HW2 2358   1.410   3.238   5.603  0.4717 -0.1984  0.6412
  303SOL     OW 2359   2.819   0.850   1.371  0.2422 -0.2138  0.0860
  303SOL    HW1 2360   2.727   0.865   1.393  0.0545 -0.3575 -0.5905
  303SOL    HW2 2361   2.863   0.932   1.392 -0.3759  0.5334 -1.4359
  304SOL     OW 2362   6.997   8.272   0.024 -0.5398 -0.3282 -0.5230
  304SOL    HW1 2363   6.969   8.201  -0.033 -0.3368 -0.6372 -0.2355
  304SOL    HW2 2364   7.069   8.236   0.075 -1.0690 -0.2319  0.3214
  305SOL     OW 2365   7.522   5.102   3.114 -0.2631  0.3179  0.1194
  305SOL    HW1 2366   7.609   5.090   3.153  0.4082  0.6593 -1.1826
  305SOL    HW2 2367   7.474   5.156   3.176  0.4552  0.0991  0.8752
  306SOL     OW 2368   2.766   6.712   4.626  0.2075  0.0422 -0.2950
  306SOL    HW1 2369   2.764   6.808   4.619 -0.1431  0.0129 -0.6363
  306SOL    HW2 2370   2.778   6.682   4.536 -1.1465 -0.2714 -0.3886
  307SOL     OW 2371   4.188   4.646   2.460 -0.3648  0.8590  0.4521
  307SOL    HW1 2372   4.275   4.610   2.479 -0.3334  0.5191 -0.2837
  307SOL    HW2 2373   4.139   4.635   2.541 -0.4244 -1.1228  0.2079
  308SOL     OW 2374   5.389   1.544   4.023 -0.1147 -0.3369 -0.3799
  308SOL    HW1 2375   5.473   1.586   4.041  0.1136 -0.6283 -0.7365
  308SOL    HW2 2376   5.364   1.502   4.105 -0.6628  1.0183  0.1782
  309SOL     OW 2377   4.748   2.664   6.895  0.5209 -0.1394 -0.0224
  309SOL    HW1 2378   4.717   2.573   6.892 -1.7799  0.5531  0.1834
  309SOL    HW2 2379   4.714   2.703   6.814  0.1898  0.8816  0.5933
  310SOL     OW 2380   3.655   0.154   0.431  0.4601  0.2980  0.3181
  310SOL    HW1 2381   3.669   0.246   0.454  0.7288  0.7095 -1.3581
  310SOL    HW2 2382   3.575   0.155   0.378 -0.7345 -0.7521  2.0028
  311SOL     OW 2383   6.762   1.603   4.948  0.0076  0.2890 -0.2256
  311SOL    HW1 2384   6.761   1.591   4.853 -1.2958 -0.1686 -0.1747
  311SOL    HW2 2385   6.691   1.665   4.965 -0.9192 -0.9537  0.5805
  312SOL     OW 2386   0.708   3.432   9.069  0.2495 -0.0149 -0.5315
  312SOL    HW1 2387   0.626   3.382   9.067  2.0158 -3.2098  0.3288
  312SOL    HW2 2388   0.725   3.447   9.162  0.2830  1.4444 -0.7348
  313SOL     OW 2389   3.275   6.461   6.915 -0.2916  0.5265  0.2906
  313SOL    HW1 2390   3.291   6.404   6.990 -2.0914  0.9600  1.0615
  313SOL    HW2 2391   3.236   6.540   6.953  0.1160  1.3648 -0.9688
  314SOL     OW 2392   8.089   5.794   3.217 -0.4336 -0.0781  0.0461
  314SOL    HW1 2393   8.062   5.776   3.127  1.5083 -2.4952 -0.1833
  314SOL    HW2 2394   8.160   5.859   3.208 -0.4564 -0.0801 -0.1456
  315SOL     OW 2395   0.396   7.599   4.288  1.1274  0.2384  0.0209
  315SOL    HW1 2396   0.426   7.563   4.204 -1.7760 -0.2050 -0.9542
  315SOL    HW2 2397   0.406   7.694   4.278 -0.9874  0.3589 -1.7093
  316SOL     OW 2398   2.721   8.745   7.229  0.1013  0.8734 -0.1090
  316SOL    HW1 2399   2.631   8.763   7.200 -0.8837 -0.6666  1.7477
  316SOL    HW2 2400   2.717   8.752   7.324  1.2608 -1.9151  0.2225
  317SOL     OW 2401   7.655   4.219   6.971 -0.2035 -0.2845 -0.1157
  317SOL    HW1 2402   7.612   4.303   6.956 -0.6505 -0.5935 -0.5758
  317SOL    HW2 2403   7.748   4.240   6.973 -0.2648  0.1012 -1.0478
  318SOL     OW 2404   3.094   6.697   3.218 -0.1151  0.2989  0.1958
  318SOL    HW1 2405   3.126   6.780   3.253  1.6382 -0.1585 -0.2349
  318SOL    HW2 2406   3.000   6.711   3.205 -0.0331  1.8639  1.0664
  319SOL     OW 2407   8.938   3.581   7.572 -0.3024  0.0430  0.4207
  319SOL    HW1 2408   8.942   3.676   7.573 -0.4639  0.0544  2.0127
  319SOL    HW2 2409   8.850   3.560   7.540  0.2755  0.3569 -1.5413
  320SOL     OW 2410   6.928   0.750   0.218 -0.0078  0.2567  0.2256
  320SOL    HW1 2411   6.991   0.684   0.188  1.0801  1.2298  0.2935
  320SOL    HW2 2412   6.843   0.718   0.188  0.4901 -1.1775  0.2722
  321SOL     OW 2413   7.070   6.673   6.752 -0.3472 -0.0183 -0.0798
  321SOL    HW1 2414   7.077   6.579   6.770  0.7876  0.2235  0.8143
  321SOL    HW2 2415   7.047   6.712   6.836  2.5114  0.8517  0.3969
  322SOL     OW 2416   5.747   3.849   6.156  0.2864 -0.0266 -0.0443
  322SOL    HW1 2417   5.679   3.805   6.105  0.3704 -0.1740 -0.0315
  322SOL    HW2 2418   5.825   3.845   6.099  0.6520 -1.0862  0.4893
  323SOL     OW 2419   0.224   7.629   6.875 -0.2817  0.1355  0.1003
  323SOL    HW1 2420   0.275   7.646   6.795  0.9184 -4.3107 -0.3476
  323SOL    HW2 2421   0.143   7.588   6.843 -0.5283 -0.1905  1.1201
  324SOL     OW 2422   8.831   7.027   3.042  0.4383 -0.8051  0.2052
  324SOL    HW1 2423   8.921   7.010   3.015  0.0025 -1.2546 -1.0789
  324SOL    HW2 2424   8.778   6.988   2.972 -0.7716 -1.3258  1.3604
  325SOL     OW 2425   3.081   1.407   6.561  0.4302  0.3967  0.0462
  325SOL    HW1 2426   3.065   1.377   6.650 -2.8474  2.0219  0.1384
  325SOL    HW2 2427   3.147   1.476   6.571  2.3424 -1.4115  0.7299
  326SOL     OW 2428   5.661   7.131   3.404 -0.4604 -0.0140 -0.0692
  326SOL    HW1 2429   5.581   7.166   3.443  0.1477 -0.0162  1.2239
  326SOL    HW2 2430   5.716   7.208   3.387 -0.5970 -0.0392 -0.6758
  327SOL     OW 2431   3.143   6.376   7.292  0.4694 -0.1128  0.4244
  327SOL    HW1 2432   3.230   6.412   7.279  0.0073  1.1107  0.5566
  327SOL    HW2 2433   3.103   6.377   7.205  0.2165  0.3614  0.5423
  328SOL     OW 2434   7.210   1.149   3.213 -0.0622 -0.7665  0.2704
  328SOL    HW1 2435   7.118   1.135   3.194 -0.3910  0.2538  1.0116
  328SOL    HW2 2436   7.234   1.228   3.164  0.9804 -2.1279 -1.5391
  329SOL     OW 2437   9.013   3.452   8.319  0.5392  0.3328 -0.0935
  329SOL    HW1 2438   8.973   3.505   8.250  2.6913  0.5585 -1.2451
  329SOL    HW2 2439   9.021   3.365   8.280  0.4164  0.0835  0.4336
  330SOL     OW 2440   5.137   0.039   3.994  0.4993  0.3567 -0.1579
  330SOL    HW1 2441   5.127  -0.042   3.943 -0.6108  1.0428 -1.0753
  330SOL    HW2 2442   5.055   0.087   3.979  2.1025  2.8215 -1.7349
  331SOL     OW 2443   2.326   6.670   0.661  0.5724 -0.2618  0.2521
  331SOL    HW1 2444   2.308   6.579   0.640 -0.7967 -0.2559  1.2603
  331SOL    HW2 2445   2.340   6.712   0.576  0.2583 -1.2210 -0.2882
  332SOL     OW 2446   5.668   6.726   5.384  0.3071  0.2189 -0.7908
  332SOL    HW1 2447   5.740   6.771   5.339  0.7870 -0.2033 -0.4703
  332SOL    HW2 2448   5.713   6.665   5.443 -0.3160  0.3619 -0.1629
  333SOL     OW 2449   2.970   0.975   7.038 -0.3704  0.2584  0.7339
  333SOL    HW1 2450   3.020   0.954   7.118 -0.3111 -1.0490  0.3853
  333SOL    HW2 2451   3.020   1.044   6.995  1.2500 -1.0920  0.3328
  334SOL     OW 2452   4.166   5.222   5.190  0.1693  0.1579  0.1562
  334SOL    HW1 2453   4.163   5.312   5.222 -0.0554 -0.3193  1.5409
  334SOL    HW2 2454   4.235   5.180   5.241  0.7526 -0.2983 -0.9589
  335SOL     OW 2455   6.211   7.864   5.956 -0.2072  0.5321  0.4208
  335SOL    HW1 2456   6.153   7.815   5.898 -0.1950  1.2299 -0.1953
  335SOL    HW2 2457   6.162   7.943   5.979 -0.4059  0.0277  1.7720
  336SOL     OW 2458   4.228   5.092   0.386  0.3598  0.2767  0.5418
  336SOL    HW1 2459   4.142   5.065   0.354  1.1077 -1.7181  0.0565
  336SOL    HW2 2460   4.229   5.064   0.477  0.2628  0.9328  0.7508
  337SOL     OW 2461   5.311   6.530   5.595  0.3280  0.4566 -0.2846
  337SOL    HW1 2462   5.261   6.596   5.643 -0.1010 -0.6250  0.8100
  337SOL    HW2 2463   5.336   6.574   5.514 -0.6346  1.6954  0.0476
  338SOL     OW 2464   0.284   3.342   4.987 -0.1347  0.0512  0.1940
  338SOL    HW1 2465   0.222   3.331   5.059 -0.1184  0.1577  0.2239
  338SOL    HW2 2466   0.246   3.292   4.914 -1.1298  1.5310 -0.3377
  339SOL     OW 2467   1.116   4.584   5.958  0.2553  0.1341  0.4221
  339SOL    HW1 2468   1.132   4.671   5.993  1.0173 -0.0650  0.5957
  339SOL    HW2 2469   1.195   4.534   5.979  0.6751 -0.0602 -1.3779
  340SOL     OW 2470   9.094   4.828   8.317  0.4534  0.4388  0.2415
  340SOL    HW1 2471   9.164   4.785   8.366 -0.8000 -0.9624  0.8732
  340SOL    HW2 2472   9.043   4.874   8.383 -0.3256 -0.1621  0.0770
  341SOL     OW 2473   7.162   3.770   4.575 -0.2023  0.0431  0.0772
  341SOL    HW1 2474   7.122   3.797   4.493  0.4164  0.8116  0.0247
  341SOL    HW2 2475   7.166   3.674   4.569 -2.2789 -0.1113  0.2055
  342SOL     OW 2476   0.201   4.479   2.258  0.1899 -0.1095 -0.2591
  342SOL    HW1 2477   0.139   4.428   2.207 -0.5528  0.2645  0.2529
  342SOL    HW2 2478   0.217   4.427   2.337 -0.7116  0.5019  0.3508
  343SOL     OW 2479   4.551   1.960   7.050  0.9219 -0.3789  0.0901
  343SOL    HW1 2480   4.615   1.904   7.093  0.8440 -1.1576 -0.7624
  343SOL    HW2 2481   4.591   1.981   6.965  0.6190  0.2346  0.0912
  344SOL     OW 2482   6.751   5.024   0.909 -0.1382 -0.0260 -0.3457
  344SOL    HW1 2483   6.672   5.022   0.855  0.6983  0.1381 -1.6165
  344SOL    HW2 2484   6.822   5.041   0.847  0.7312  1.3569  0.9840
  345SOL     OW 2485   3.132   6.308   8.770  0.0006  0.1950 -0.0412
  345SOL    HW1 2486   3.039   6.326   8.780 -0.3471 -1.3644 -0.1648
  345SOL    HW2 2487   3.147   6.307   8.676 -0.0953 -0.5886 -0.0545
  346SOL     OW 2488   4.698   6.216   9.212  0.4378 -0.1167  0.3266
  346SOL    HW1 2489   4.650   6.139   9.243  0.2821 -0.9180 -1.7645
  346SOL    HW2 2490   4.645   6.250   9.139  0.8361  1.6068  0.7868
  347SOL     OW 2491   1.462   2.728   8.416  0.1276  0.2283 -0.6002
  347SOL    HW1 2492   1.507   2.644   8.426 -0.4685 -0.1670 -1.2002
  347SOL    HW2 2493   1.522   2.782   8.364  0.4964  0.1763 -0.2372
  348SOL     OW 2494   0.529   8.523   2.456  0.4234  0.4726  0.2007
  348SOL    HW1 2495   0.533   8.579   2.378  3.6771  0.0846 -0.0617
  348SOL    HW2 2496   0.559   8.580   2.527 -0.9485  0.3639  0.8897
  349SOL     OW 2497   1.603   5.356   0.163  0.0789 -0.1128 -0.3590
  349SOL    HW1 2498   1.674   5.417   0.139  0.4803 -0.1119  0.8001
  349SOL    HW2 2499   1.643   5.297   0.226 -0.4979 -1.1952 -0.9845
  350SOL     OW 2500   5.879   4.194   4.427  0.3675  0.3569 -0.2917
  350SOL    HW1 2501   5.948   4.174   4.490 -1.4355  0.7570  1.9625
  350SOL    HW2 2502   5.901   4.281   4.394  1.8536 -0.2572 -1.0163
  351SOL     OW 2503   1.436   1.477   4.934 -0.1284 -0.1016  0.6554
  351SOL    HW1 2504   1.475   1.453   4.850  0.5153  2.1647  0.2434
  351SOL    HW2 2505   1.453   1.402   4.990 -0.9357 -1.8546 -1.3206
  352SOL     OW 2506   7.293   0.404   1.457 -1.2724 -0.3750  0.0300
  352SOL    HW1 2507   7.385   0.383   1.467 -1.1257  0.4770  0.5989
  352SOL    HW2 2508   7.249   0.319   1.454 -0.8061 -0.8245  3.0445
  353SOL     OW 2509   9.158   5.011   0.909  0.1768 -0.2881  0.4399
  353SOL    HW1 2510   9.138   4.965   0.990 -0.3077  1.9465  1.6776
  353SOL    HW2 2511   9.218   5.081   0.936  1.2198 -0.4114 -1.4176
  354SOL     OW 2512   6.632   3.408   0.355 -0.0874 -0.0846 -0.2934
  354SOL    HW1 2513   6.570   3.481   0.350 -0.6657 -0.6310 -1.4570
  354SOL    HW2 2514   6.718   3.450   0.358 -0.4979  0.7231  2.5614
  355SOL     OW 2515   6.125   5.686   1.121  0.5015  0.0892  0.8145
  355SOL    HW1 2516   6.167   5.768   1.096  1.4607 -0.7264 -0.3200
  355SOL    HW2 2517   6.195   5.621   1.122 -0.3567 -0.8714  1.0071
  356SOL     OW 2518   0.927   7.198   5.140 -0.7075  0.2560  0.0206
  356SOL    HW1 2519   0.929   7.274   5.197  4.0360  0.4077  0.0776
  356SOL    HW2 2520   0.942   7.233   5.052  2.2811 -0.4685  0.1398
  357SOL     OW 2521   5.286   5.091   3.144 -0.1407  0.3672  0.0515
  357SOL    HW1 2522   5.212   5.062   3.090 -0.3782  2.3555 -0.8036
  357SOL    HW2 2523   5.249   5.158   3.201  0.8032  0.6745  0.3224
  358SOL     OW 2524   3.835   7.813   3.121 -0.1896 -0.2548  0.0773
  358SOL    HW1 2525   3.930   7.810   3.110 -0.0859 -0.9857  1.0217
  358SOL    HW2 2526   3.814   7.906   3.130  0.1046  0.1486 -2.5533
  359SOL     OW 2527   5.278   4.428   1.598 -0.2773  0.4119  0.3178
  359SOL    HW1 2528   5.366   4.417   1.563 -0.2699  0.5712  0.2856
  359SOL    HW2 2529   5.233   4.482   1.533 -0.6551 -0.3713 -0.0847
  360SOL     OW 2530   0.938   1.120   1.317  0.5935  0.2828 -0.2718
  360SOL    HW1 2531   0.991   1.178   1.262  0.8255 -0.5461 -0.9309
  360SOL    HW2 2532   0.954   1.032   1.283 -1.1589 -0.0078 -0.4844
  361SOL     OW 2533   7.688   0.260   7.648  0.0136  0.3012 -0.2483
  361SOL    HW1 2534   7.745   0.329   7.616 -0.0040  0.8134  0.8032
  361SOL    HW2 2535   7.605   0.274   7.601  0.4357  0.1136 -1.0825
  362SOL     OW 2536   0.052   7.089   2.802  0.3645  0.1701 -0.0731
  362SOL    HW1 2537   0.029   7.004   2.840  1.4499 -0.3843 -0.5986
  362SOL    HW2 2538   0.139   7.108   2.837  0.7841  0.3176 -1.1595
  363SOL     OW 2539   5.592   5.398   1.075 -0.5403  0.3565  0.6322
  363SOL    HW1 2540   5.583   5.441   1.160 -0.1262  0.0802  0.8172
  363SOL    HW2 2541   5.665   5.443   1.032 -2.3579  2.2869 -0.6844
  364SOL     OW 2542   7.846   6.707   1.266  0.1859 -0.5315 -0.4219
  364SOL    HW1 2543   7.936   6.740   1.266  0.3457 -0.9657 -1.0075
  364SOL    HW2 2544   7.845   6.639   1.199 -0.3638 -1.1200  0.1694
  365SOL     OW 2545   6.282   1.512   0.807  0.4704 -0.3700  0.1405
  365SOL    HW1 2546   6.224   1.559   0.866  0.0535 -0.1251 -0.4530
  365SOL    HW2 2547   6.225   1.477   0.739  1.0539  0.2400 -0.6905
  366SOL     OW 2548   8.131   2.190   5.133  0.0004 -0.7856  0.3149
  366SOL    HW1 2549   8.066   2.122   5.115 -1.3469  0.8557 -1.3948
  366SOL    HW2 2550   8.100   2.233   5.212 -2.5859  1.6272 -1.8253
  367SOL     OW 2551   4.452   6.468   1.757 -0.3408  0.0015 -0.4248
  367SOL    HW1 2552   4.468   6.518   1.837 -0.0130  0.7126 -0.9286
  367SOL    HW2 2553   4.526   6.409   1.750  3.0003  3.9394 -3.2804
  368SOL     OW 2554   0.670   5.978   8.876 -0.2827 -0.5950  0.0943
  368SOL    HW1 2555   0.750   5.985   8.823 -0.2954  0.3335  0.1793
  368SOL    HW2 2556   0.604   5.944   8.815 -0.2697  0.3585 -0.4715
  369SOL     OW 2557   2.839   2.031   7.341 -0.0514 -0.0036  0.6737
  369SOL    HW1 2558   2.798   1.995   7.420 -1.6044  0.5157  0.1358
  369SOL    HW2 2559   2.773   2.020   7.272  1.6264 -1.3180 -0.8156
  370SOL     OW 2560   6.444   2.122   6.738 -0.7028  0.2484 -0.2760
  370SOL    HW1 2561   6.440   2.206   6.692  1.9271 -0.6712 -2.4343
  370SOL    HW2 2562   6.430   2.056   6.669  0.3117 -1.1494  0.7943
  371SOL     OW 2563   2.903   1.489   6.885 -0.5545  0.0764 -0.0151
  371SOL    HW1 2564   2.910   1.577   6.848  2.9338 -0.9783 -2.4094
  371SOL    HW2 2565   2.832   1.448   6.836 -0.3423  0.7324 -0.9007
  372SOL     OW 2566   7.298   0.656   2.078 -0.4753  0.2416 -0.4609
  372SOL    HW1 2567   7.216   0.695   2.109 -0.0305  1.9527 -1.3428
  372SOL    HW2 2568   7.315   0.698   1.994  0.9434 -0.6121 -0.6357
  373SOL     OW 2569   6.183   5.063   5.336  0.2951  0.0189  0.1015
  373SOL    HW1 2570   6.089   5.046   5.343 -0.5899  3.6981 -0.7596
  373SOL    HW2 2571   6.211   5.010   5.262 -1.6812  0.6010 -1.1408
  374SOL     OW 2572   5.656   6.541   8.701 -0.0793 -0.5400 -0.2227
  374SOL    HW1 2573   5.576   6.579   8.738 -0.5707 -0.7471 -1.0433
  374SOL    HW2 2574   5.654   6.450   8.728  0.3136 -0.3593  0.4498
  375SOL     OW 2575   4.252   1.662   7.087  0.2362  0.3438 -0.4816
  375SOL    HW1 2576   4.263   1.652   6.992  0.0193 -2.5414 -0.3097
  375SOL    HW2 2577   4.179   1.604   7.108  0.2404  0.9858  1.4482
  376SOL     OW 2578   5.445   5.758   0.051 -0.7746 -0.2575  0.0234
  376SOL    HW1 2579   5.521   5.700   0.054 -1.3107 -1.0746 -1.2587
  376SOL    HW2 2580   5.386   5.724   0.118  0.7069  1.5341  2.3971
  377SOL     OW 2581   3.498   2.262   4.133 -0.5223  0.0139  1.2222
  377SOL    HW1 2582   3.504   2.167   4.122 -0.6434 -0.0520  1.6837
  377SOL    HW2 2583   3.404   2.280   4.130 -0.4831  0.1537  0.8578
  378SOL     OW 2584   5.628   3.572   1.956 -0.4782  0.5757 -0.2646
  378SOL    HW1 2585   5.652   3.518   1.881 -0.5154  1.4806 -0.9538
  378SOL    HW2 2586   5.545   3.535   1.986 -0.9824  0.8127 -1.3118
  379SOL     OW 2587   7.447   8.868   4.032 -0.1097  0.1909 -0.1767
  379SOL    HW1 2588   7.503   8.912   3.967 -0.0081  1.6598  0.8714
  379SOL    HW2 2589   7.498   8.790   4.057  1.0666  1.0049  0.0668
  380SOL     OW 2590   4.338   8.915   1.925 -0.6123  0.0361  0.3861
  380SOL    HW1 2591   4.243   8.923   1.930 -0.5573  1.2477 -0.1702
  380SOL    HW2 2592   4.355   8.887   1.835 -0.4675 -0.9712  0.7101
  381SOL     OW 2593   5.089   5.617   7.832  0.4189 -0.2425 -0.5739
  381SOL    HW1 2594   5.088   5.617   7.736 -1.4549  2.0576 -0.6422
  381SOL    HW2 2595   5.001   5.647   7.857  1.9368  2.7330  1.7658
  382SOL     OW 2596   9.144   6.411   8.781 -0.1813 -0.2915 -0.0239
  382SOL    HW1 2597   9.194   6.480   8.737 -0.7652  0.1650  0.0205
  382SOL    HW2 2598   9.203   6.378   8.848 -0.4759  1.3106  1.0785
  383SOL     OW 2599   8.997   0.803   7.666 -0.3125  0.4473  0.6421
  383SOL    HW1 2600   8.932   0.733   7.669  0.3394 -0.1363  1.3802
  383SOL    HW2 2601   9.074   0.764   7.625 -1.0957  1.7284 -2.2919
  384SOL     OW 2602   1.285   4.653   4.472 -0.6986 -0.5443 -0.8054
  384SOL    HW1 2603   1.218   4.617   4.415 -0.4188  1.5945 -2.6283
  384SOL    HW2 2604   1.355   4.588   4.472 -0.7851 -0.6926 -2.8420
  385SOL     OW 2605   8.641   8.221   7.546  0.0334 -0.0386  0.0870
  385SOL    HW1 2606   8.679   8.134   7.536  0.7758  0.3657 -0.6635
  385SOL    HW2 2607   8.648   8.261   7.460 -2.2854 -0.0013 -0.1428
  386SOL     OW 2608   7.289   8.260   6.986  0.5778 -0.2937  0.1410
  386SOL    HW1 2609   7.346   8.232   7.057 -0.0823  0.3893  0.9549
  386SOL    HW2 2610   7.276   8.181   6.934  2.0593 -0.5282  0.0607
  387SOL     OW 2611   4.770   5.220   5.682 -0.9894  0.1055  0.2375
  387SOL    HW1 2612   4.826   5.190   5.754 -1.1394 -1.8491 -0.3878
  387SOL    HW2 2613   4.681   5.201   5.712 -1.0843 -0.1738 -0.2062
  388SOL     OW 2614   4.558   3.883   2.340  0.1030 -0.1751 -0.3792
  388SOL    HW1 2615   4.565   3.788   2.336 -0.9316 -0.2500 -0.6602
  388SOL    HW2 2616   4.551   3.911   2.248 -0.3826  0.0982 -0.2633
  389SOL     OW 2617   0.887   3.264   1.545 -0.4724 -0.1771 -0.4990
  389SOL    HW1 2618   0.953   3.326   1.575 -0.7499 -1.4750  3.3552
  389SOL    HW2 2619   0.811   3.318   1.522  0.0832  1.0481  0.4565
  390SOL     OW 2620   0.141   3.497   9.182 -0.2457 -0.1339  0.5728
  390SOL    HW1 2621   0.067   3.541   9.140 -0.0557 -2.0683 -2.0191
  390SOL    HW2 2622   0.104   3.418   9.221  0.2764 -0.7041 -0.0509
  391SOL     OW 2623   2.121   6.677   1.269 -0.4034 -0.0506 -0.5634
  391SOL    HW1 2624   2.039   6.666   1.221 -2.2173 -2.7158  2.7143
  391SOL    HW2 2625   2.162   6.590   1.266  0.9643  0.5479  0.1228
  392SOL     OW 2626   5.173   7.550   2.407 -0.0938 -0.4689 -0.0926
  392SOL    HW1 2627   5.102   7.539   2.343 -1.8092 -1.3487  1.8486
  392SOL    HW2 2628   5.245   7.499   2.372 -0.2509  0.7308 -2.3162
  393SOL     OW 2629   7.962   5.813   9.078 -0.3973 -0.2339 -0.3247
  393SOL    HW1 2630   8.012   5.731   9.070 -0.1257 -0.1762  0.6722
  393SOL    HW2 2631   7.873   5.785   9.100 -0.9254 -0.3509 -2.3758
  394SOL     OW 2632   2.973   8.474   5.642  0.0067 -0.2978 -0.2229
  394SOL    HW1 2633   3.029   8.545   5.610  0.7733 -1.8298 -2.5673
  394SOL    HW2 2634   3.030   8.422   5.699  0.5165 -0.8939 -1.2414
  395SOL     OW 2635   6.478   1.545   8.735 -0.4710 -0.1121  0.3880
  395SOL    HW1 2636   6.391   1.526   8.770 -1.1023  3.0878  0.8771
  395SOL    HW2 2637   6.527   1.579   8.810  0.9574 -1.0411 -0.0806
  396SOL     OW 2638   1.959   6.982   0.281 -0.0633 -0.1340 -0.2529
  396SOL    HW1 2639   2.036   7.033   0.256  0.7397 -1.7564 -1.2409
  396SOL    HW2 2640   1.935   6.934   0.202 -0.3368 -1.8519  0.8249
  397SOL     OW 2641   4.652   2.531   8.150  0.0829  0.1653 -0.4066
  397SOL    HW1 2642   4.746   2.546   8.148  0.0330  0.6507 -2.8891
  397SOL    HW2 2643   4.613   2.614   8.122 -1.2896  0.7245  2.7789
  398SOL     OW 2644   8.064   6.690   3.799 -0.2871 -0.6102  0.2297
  398SOL    HW1 2645   8.049   6.781   3.828  0.8472  0.1832 -1.4921
  398SOL    HW2 2646   8.156   6.674   3.819 -0.6460 -1.6575  1.1273
  399SOL     OW 2647   9.034   2.071   2.308 -0.0563 -0.0405  0.1539
  399SOL    HW1 2648   9.103   2.016   2.344 -0.0216  1.1163  1.9989
  399SOL    HW2 2649   8.965   2.010   2.284  0.8680 -1.0662  0.0159
  400SOL     OW 2650   6.096   2.219   6.299 -0.6439  0.1280 -0.0784
  400SOL    HW1 2651   6.134   2.131   6.297 -0.1550  0.2716  1.5050
  400SOL    HW2 2652   6.167   2.277   6.273 -0.4817  0.1825  0.4697
  401SOL     OW 2653   3.519   0.894   7.460 -0.6178  0.0541 -0.1970
  401SOL    HW1 2654   3.453   0.869   7.525  2.1002 -0.0944  2.7020
  401SOL    HW2 2655   3.537   0.812   7.413 -0.4881 -0.5956  0.9399
  402SOL     OW 2656   1.320   3.906   8.161 -0.0299  0.4457  0.4641
  402SOL    HW1 2657   1.403   3.935   8.199  0.2453  2.0292 -1.1646
  402SOL    HW2 2658   1.336   3.817   8.132  0.5865  0.1803  1.5506
  403SOL     OW 2659   8.585   1.819   3.725  0.0279  0.4987 -0.3610
  403SOL    HW1 2660   8.490   1.828   3.718  0.1708  1.1685 -2.0086
  403SOL    HW2 2661   8.600   1.727   3.744 -0.8971 -0.1730 -2.6085
  404SOL     OW 2662   8.125   2.241   3.885 -0.3816 -0.5475 -0.0536
  404SOL    HW1 2663   8.193   2.236   3.819  1.1437 -0.5339  1.4623
  404SOL    HW2 2664   8.116   2.152   3.917 -0.6308 -0.4353  0.1929
  405SOL     OW 2665   3.196   9.133   5.611 -0.0494 -0.1075  0.2044
  405SOL    HW1 2666   3.259   9.064   5.632 -1.6724 -1.2846  1.4485
  405SOL    HW2 2667   3.244   9.192   5.554  1.9466 -1.3392  0.5041
  406SOL     OW 2668   1.037   7.950   7.624 -0.1107  0.5374 -0.5371
  406SOL    HW1 2669   1.002   7.901   7.549  0.0928 -0.3591 -0.0702
  406SOL    HW2 2670   1.106   8.005   7.587 -0.3354  0.4588 -1.0822
  407SOL     OW 2671   6.992   5.425   7.877 -0.0430  0.6338  0.5912
  407SOL    HW1 2672   6.946   5.505   7.851 -0.5288 -0.0479 -0.7806
  407SOL    HW2 2673   6.927   5.356   7.869  0.6267 -0.0398  0.7772
  408SOL     OW 2674   8.988   1.347   5.184  0.0801  0.0575 -0.1769
  408SOL    HW1 2675   8.912   1.304   5.223 -0.4846  1.0709 -0.1357
  408SOL    HW2 2676   9.017   1.409   5.250  0.1556  0.5821 -0.6966
  409SOL     OW 2677   7.892   0.517   3.910 -0.5062  0.3488  0.3565
  409SOL    HW1 2678   7.818   0.535   3.853 -0.3992  0.2541  0.1864
  409SOL    HW2 2679   7.964   0.496   3.850  0.0802  1.9818  0.4444
  410SOL     OW 2680   6.542   2.877   0.346 -0.2924 -0.2094 -0.1983
  410SOL    HW1 2681   6.533   2.858   0.439 -1.1136 -1.2072 -0.4598
  410SOL    HW2 2682   6.475   2.943   0.328  0.2788  0.4468  0.0268
  411SOL     OW 2683   2.697   0.438   5.008 -0.0021  0.3503 -0.8609
  411SOL    HW1 2684   2.603   0.437   5.027  0.1188 -0.5544 -0.2501
  411SOL    HW2 2685   2.703   0.454   4.914 -0.8456 -1.4573 -1.2654
  412SOL     OW 2686   2.019   4.126   1.403  0.9687  0.4669  0.0571
  412SOL    HW1 2687   2.031   4.086   1.489 -0.2079  0.3740  0.1926
  412SOL    HW2 2688   2.102   4.111   1.358  0.8784 -1.3479  0.4186
  413SOL     OW 2689   9.101   2.202   4.752 -0.3040  0.6146  0.5935
  413SOL    HW1 2690   9.080   2.292   4.730 -1.4561  0.1941 -0.1143
  413SOL    HW2 2691   9.160   2.173   4.683 -3.7188 -0.6263 -2.0835
  414SOL     OW 2692   8.610   5.692   1.002  0.9229 -0.5177  0.2121
  414SOL    HW1 2693   8.521   5.677   1.033  1.2795 -0.1338  1.4680
  414SOL    HW2 2694   8.643   5.605   0.981  0.6874 -0.8027  0.9855
  415SOL     OW 2695   6.601   3.899   2.205  0.1325  0.5143 -0.3891
  415SOL    HW1 2696   6.517   3.935   2.176  0.1781  2.2084  1.4029
  415SOL    HW2 2697   6.646   3.972   2.247  1.6398 -0.8642  0.5314
  416SOL     OW 2698   0.111   3.814   8.654  0.1001  0.3003 -0.4550
  416SOL    HW1 2699   0.092   3.723   8.674 -2.1139  0.9039  0.5831
  416SOL    HW2 2700   0.117   3.817   8.558 -0.9207 -0.7665 -0.5710
  417SOL     OW 2701   8.141   5.493   2.107 -0.2367 -0.3268  0.2047
  417SOL    HW1 2702   8.185   5.510   2.024  0.9920  2.0844  1.2610
  417SOL    HW2 2703   8.068   5.554   2.109  0.7840  0.9349  1.5804
  418SOL     OW 2704   4.576   8.123   2.437 -0.0369  0.1112 -0.0571
  418SOL    HW1 2705   4.664   8.090   2.455  0.4540  1.0159 -0.7534
  418SOL    HW2 2706   4.523   8.044   2.425  1.1894 -0.4626 -2.0902
  419SOL     OW 2707   7.740   0.837   4.717 -0.3726  0.6149 -0.0895
  419SOL    HW1 2708   7.653   0.869   4.742 -0.9175 -1.7238  1.3728
  419SOL    HW2 2709   7.723   0.750   4.680  1.4496 -0.8287  2.2343
  420SOL     OW 2710   6.007   9.151   3.510 -0.1806 -0.1895 -0.1305
  420SOL    HW1 2711   6.002   9.165   3.605  2.2431 -0.7781  0.1537
  420SOL    HW2 2712   5.938   9.087   3.492 -1.7411  1.1096  0.9237
  421SOL     OW 2713   7.313   3.882   7.403  0.6693 -0.0135 -0.5547
  421SOL    HW1 2714   7.360   3.890   7.486 -1.5948  1.2187  0.7213
  421SOL    HW2 2715   7.364   3.934   7.341  1.7306  0.1145  0.3879
  422SOL     OW 2716   6.224   2.179   2.367 -0.8625  0.1328 -0.1337
  422SOL    HW1 2717   6.204   2.119   2.439  1.5158  1.0814  1.4330
  422SOL    HW2 2718   6.185   2.138   2.290  1.8819 -4.2499  0.5054
  423SOL     OW 2719   3.643   2.048   5.095  0.0697 -0.3116 -0.1564
  423SOL    HW1 2720   3.556   2.052   5.054  0.2140 -0.8858 -0.5313
  423SOL    HW2 2721   3.664   2.139   5.115 -1.5569 -0.3400  1.9727
  424SOL     OW 2722   2.300   6.172   0.200 -0.7029 -0.1269 -0.2542
  424SOL    HW1 2723   2.321   6.079   0.203  0.5698  0.1404 -0.6416
  424SOL    HW2 2724   2.287   6.191   0.107  0.7637  0.4375 -0.3624
  425SOL     OW 2725   9.015   1.345   8.784  0.0303  0.2007 -0.4265
  425SOL    HW1 2726   8.929   1.317   8.815 -1.0630  0.4624 -2.9754
  425SOL    HW2 2727   9.008   1.440   8.777  0.7884  0.2957  0.0146
  426SOL     OW 2728   5.135   6.121   4.996 -0.2691 -0.0773 -0.5228
  426SOL    HW1 2729   5.190   6.044   5.011 -0.5413 -0.2391 -0.3538
  426SOL    HW2 2730   5.077   6.125   5.072  0.6479  1.0788  0.1366
  427SOL     OW 2731   5.720   9.017   3.080 -0.1345 -0.4811 -0.2318
  427SOL    HW1 2732   5.681   8.954   3.141 -0.8736 -1.3338 -1.5275
  427SOL    HW2 2733   5.648   9.073   3.054 -0.2334 -1.1952 -1.5899
  428SOL     OW 2734   0.942   6.732   5.498 -0.1633 -0.4896 -0.5803
  428SOL    HW1 2735   0.985   6.695   5.421 -1.0319 -1.1873 -0.7386
  428SOL    HW2 2736   0.870   6.785   5.463  1.8611  2.6385 -0.4666
  429SOL     OW 2737   6.023   6.524   1.408  0.1005 -0.6690  0.2432
  429SOL    HW1 2738   5.985   6.523   1.496 -1.5283  2.0533 -0.3059
  429SOL    HW2 2739   6.106   6.570   1.418 -0.4442  0.3326  0.2748
  430SOL     OW 2740   4.484   5.632   8.940  0.4441  0.2765 -0.6520
  430SOL    HW1 2741   4.513   5.690   9.010  2.3264 -0.2897 -0.9020
  430SOL    HW2 2742   4.460   5.550   8.984 -0.1063  0.5113 -0.5102
  431SOL     OW 2743   0.683   3.258   2.708 -0.0461 -0.8203 -0.1813
  431SOL    HW1 2744   0.756   3.206   2.675  0.0977 -1.0443  0.4740
  431SOL    HW2 2745   0.606   3.203   2.692  0.0653 -1.0863  0.1836
  432SOL     OW 2746   1.300   0.930   5.724 -0.1882  0.0874  0.0070
  432SOL    HW1 2747   1.344   0.847   5.705  0.0490  0.1316  0.3596
  432SOL    HW2 2748   1.340   0.993   5.664 -0.1364  0.0157 -0.0330
  433SOL     OW 2749   4.049   3.181   2.851  0.2633  0.2457  0.5782
  433SOL    HW1 2750   4.116   3.176   2.782  0.6672  1.7153  0.8130
  433SOL    HW2 2751   3.966   3.166   2.805  0.6142  0.1336 -0.0333
  434SOL     OW 2752   0.348   1.057   5.560  0.1270 -0.0166  0.0251
  434SOL    HW1 2753   0.281   1.109   5.517  1.8648  1.1987 -1.3750
  434SOL    HW2 2754   0.401   1.022   5.489  1.2088 -0.6431  1.0845
  435SOL     OW 2755   5.946   4.450   3.128  0.0088  0.0749  0.6061
  435SOL    HW1 2756   6.007   4.398   3.180 -0.8760  0.6722  2.2871
  435SOL    HW2 2757   5.946   4.536   3.169 -1.9092  0.1176  0.6039
  436SOL     OW 2758   5.163   4.640   5.537  0.1422  0.0046  0.0554
  436SOL    HW1 2759   5.177   4.721   5.489 -1.0584  0.2386  0.0793
  436SOL    HW2 2760   5.068   4.630   5.542  0.2658 -1.4078  0.0528
  437SOL     OW 2761   2.655   4.588   4.729  0.7203  0.0767 -0.6812
  437SOL    HW1 2762   2.701   4.575   4.646  0.8040 -0.7338 -0.5140
  437SOL    HW2 2763   2.570   4.546   4.717  1.1940 -1.1609  0.0488
  438SOL     OW 2764   5.673   6.404   8.256  0.0721  0.1052 -0.1297
  438SOL    HW1 2765   5.580   6.426   8.257  0.3135  1.1403  0.6429
  438SOL    HW2 2766   5.702   6.424   8.167 -0.6129 -1.0393 -0.6353
  439SOL     OW 2767   1.691   8.701   6.866 -0.6986  0.0318  0.2102
  439SOL    HW1 2768   1.597   8.714   6.857 -0.6030  1.3412  0.8245
  439SOL    HW2 2769   1.702   8.606   6.874 -1.8535 -0.2180 -0.9654
  440SOL     OW 2770   3.602   7.654   8.870  0.3547 -0.4206  0.1484
  440SOL    HW1 2771   3.605   7.590   8.799 -0.6699 -0.1996 -0.1188
  440SOL    HW2 2772   3.649   7.730   8.836 -0.3513 -0.2211 -0.4224
  441SOL     OW 2773   5.865   0.543   6.190 -0.6614 -0.1470  0.0840
  441SOL    HW1 2774   5.901   0.497   6.115  0.2594  1.3940 -0.4718
  441SOL    HW2 2775   5.832   0.474   6.248 -1.1442 -1.3853 -1.5836
  442SOL     OW 2776   4.080   3.300   2.047  0.6006 -0.0850  0.2535
  442SOL    HW1 2777   4.127   3.353   2.112  0.9036  1.1839 -0.9551
  442SOL    HW2 2778   4.126   3.316   1.965 -0.4918 -0.7266 -0.5118
  443SOL     OW 2779   5.669   7.678   8.300  0.5156 -0.1489  0.2526
  443SOL    HW1 2780   5.693   7.610   8.237 -2.9932 -2.5156  1.1177
  443SOL    HW2 2781   5.660   7.757   8.247 -1.5308 -1.8443 -2.2228
  444SOL     OW 2782   6.106   8.828   0.842 -0.5261 -0.7471  0.1288
  444SOL    HW1 2783   6.190   8.802   0.806 -1.8771 -4.1213 -0.9560
  444SOL    HW2 2784   6.123   8.841   0.936  0.8678 -3.6175  0.3790
  445SOL     OW 2785   7.289   4.213   0.484  0.1222  0.5888  0.2519
  445SOL    HW1 2786   7.235   4.204   0.562  0.7239 -0.4497  0.5560
  445SOL    HW2 2787   7.279   4.130   0.438  0.3019  0.9454 -0.4502
  446SOL     OW 2788   3.404   0.020   9.009  0.9261  0.4318 -0.2889
  446SOL    HW1 2789   3.321   0.039   8.966 -1.1827  1.3168  3.7234
  446SOL    HW2 2790   3.381  -0.032   9.086  4.1215  0.5532  0.9224
  447SOL     OW 2791   7.278   4.038   6.167 -0.2994  0.3321  0.2494
  447SOL    HW1 2792   7.301   3.978   6.097  1.6312  0.6470  0.5564
  447SOL    HW2 2793   7.183   4.047   6.161 -0.2548 -0.1389 -1.8981
  448SOL     OW 2794   6.676   7.962   1.894  0.1577  0.3806  0.3629
  448SOL    HW1 2795   6.600   8.016   1.871 -1.5204 -0.4417  3.4499
  448SOL    HW2 2796   6.663   7.881   1.844 -1.8255 -0.2809  1.8101
  449SOL     OW 2797   8.793   0.131   1.796 -0.0624 -0.1297  0.2658
  449SOL    HW1 2798   8.739   0.111   1.873  1.4106 -2.1814  0.8659
  449SOL    HW2 2799   8.762   0.216   1.766 -1.6825  0.0559  2.2448
  450SOL     OW 2800   6.568   3.848   6.094  0.5228  0.0785  0.5093
  450SOL    HW1 2801   6.628   3.923   6.090  0.4133  0.1296 -0.4669
  450SOL    HW2 2802   6.611   3.781   6.041 -0.4254  0.2279 -0.4895
  451SOL     OW 2803   2.925   0.072   2.906  0.4080  0.0060 -0.2559
  451SOL    HW1 2804   2.954  -0.019   2.898  3.5832  0.8353  0.4244
  451SOL    HW2 2805   2.987   0.122   2.854 -2.7839  1.7024 -2.7981
  452SOL     OW 2806   6.628   8.323   5.726  0.0326  0.1944  0.0850
  452SOL    HW1 2807   6.606   8.341   5.635 -0.2101 -0.7364 -0.0548
  452SOL    HW2 2808   6.723   8.311   5.726 -0.2352 -2.6345 -0.6121
  453SOL     OW 2809   4.529   7.330   4.500 -0.0849  0.0361  0.3536
  453SOL    HW1 2810   4.579   7.363   4.575 -1.4154 -1.9827  2.2655
  453SOL    HW2 2811   4.545   7.236   4.501 -1.1720 -0.1971 -1.1429
  454SOL     OW 2812   4.137   5.234   7.051 -0.2595 -0.2307  0.2431
  454SOL    HW1 2813   4.128   5.323   7.087  1.7485  0.3994 -0.6589
  454SOL    HW2 2814   4.116   5.244   6.958 -0.2061 -0.7458  0.1760
  455SOL     OW 2815   1.620   7.371   1.237 -0.1222  0.6066  0.2060
  455SOL    HW1 2816   1.694   7.316   1.210 -0.7390 -0.0679 -0.1356
  455SOL    HW2 2817   1.660   7.455   1.258  0.6972  0.3803 -0.3800
  456SOL     OW 2818   2.358   3.579   4.791 -0.0069  0.0510  0.3682
  456SOL    HW1 2819   2.339   3.641   4.862  2.9926  0.4903  0.9658
  456SOL    HW2 2820   2.325   3.495   4.821  0.1639  0.4724  1.7803
  457SOL     OW 2821   1.892   5.086   0.776 -0.1299  0.1175  0.1744
  457SOL    HW1 2822   1.942   5.168   0.768 -0.6216  0.5599  1.3738
  457SOL    HW2 2823   1.955   5.017   0.755  0.5194  0.7573 -0.0344
  458SOL     OW 2824   0.735   4.061   6.567 -0.1690 -1.1343  0.5690
  458SOL    HW1 2825   0.693   4.062   6.653  0.7557  1.0105  1.0451
  458SOL    HW2 2826   0.820   4.019   6.582 -0.1317 -1.0344  0.6347
  459SOL     OW 2827   4.410   0.606   6.182  0.0733 -0.1311  0.2280
  459SOL    HW1 2828   4.342   0.558   6.229 -1.4026  2.2578  0.7174
  459SOL    HW2 2829   4.363   0.655   6.114  1.8549 -1.5017 -2.1463
  460SOL     OW 2830   4.086   0.438   6.754 -0.0980 -0.0670 -0.8945
  460SOL    HW1 2831   4.019   0.472   6.696 -1.6951  1.7082  1.8138
  460SOL    HW2 2832   4.095   0.346   6.728 -2.3982  0.0509 -2.4037
  461SOL     OW 2833   3.450   1.755   5.674  0.1107 -0.2150  0.0318
  461SOL    HW1 2834   3.481   1.671   5.706 -0.7811 -1.3681 -1.9427
  461SOL    HW2 2835   3.449   1.746   5.579 -0.5671  1.8294 -0.2107
  462SOL     OW 2836   8.327   9.152   0.182 -0.4454  0.8325  0.0548
  462SOL    HW1 2837   8.318   9.102   0.101 -0.7049  1.9043 -0.6024
  462SOL    HW2 2838   8.352   9.087   0.248 -0.2075 -0.0557 -0.8821
  463SOL     OW 2839   6.634   5.327   1.064 -0.6701  0.1446 -0.0239
  463SOL    HW1 2840   6.557   5.338   1.007 -0.2000 -1.3326 -0.9959
  463SOL    HW2 2841   6.709   5.341   1.006 -0.1866 -0.0550  0.5429
  464SOL     OW 2842   3.411   5.662   4.646  0.0605  0.3695  0.3905
  464SOL    HW1 2843   3.342   5.668   4.580 -1.3079 -1.2424  1.6169
  464SOL    HW2 2844   3.384   5.722   4.715  0.1680  0.1490  0.6260
  465SOL     OW 2845   6.403   0.981   1.867  0.1348 -0.5479  0.1571
  465SOL    HW1 2846   6.415   0.887   1.884 -0.3894 -0.6740 -0.1549
  465SOL    HW2 2847   6.473   1.003   1.806  0.4623 -0.6629  0.4878
  466SOL     OW 2848   0.542   8.826   8.540  0.6208  1.3217  0.6723
  466SOL    HW1 2849   0.502   8.751   8.583  1.8753 -0.3047 -0.8522
  466SOL    HW2 2850   0.550   8.892   8.609 -1.2984  0.4156  1.8433
  467SOL     OW 2851   3.684   1.418   3.226  0.1813 -0.9149 -0.5574
  467SOL    HW1 2852   3.590   1.405   3.239  0.4766 -1.8155  0.9809
  467SOL    HW2 2853   3.702   1.502   3.267  0.0395 -0.7018 -0.9279
  468SOL     OW 2854   5.616   7.688   0.921 -0.3172  0.4465  0.4308
  468SOL    HW1 2855   5.634   7.773   0.960 -0.0242  0.2156  0.8204
  468SOL    HW2 2856   5.562   7.643   0.987 -1.3685  0.7113 -0.2307
  469SOL     OW 2857   5.477   0.414   0.823  0.6239  0.0202 -0.0065
  469SOL    HW1 2858   5.448   0.439   0.911  0.2158 -1.5210  0.3263
  469SOL    HW2 2859   5.425   0.470   0.764 -0.4968 -0.2558  0.6861
  470SOL     OW 2860   5.452   2.257   3.425  0.2849 -0.2562 -0.2538
  470SOL    HW1 2861   5.505   2.254   3.345 -0.4354  0.4673 -0.7730
  470SOL    HW2 2862   5.453   2.167   3.458 -0.1015 -0.7423 -1.5293
  471SOL     OW 2863   1.403   6.091   7.876  0.1552 -0.4016 -0.1150
  471SOL    HW1 2864   1.318   6.070   7.914  0.3970 -0.2735  0.5148
  471SOL    HW2 2865   1.383   6.141   7.797 -0.3464 -0.0812  0.2140
  472SOL     OW 2866   7.776   9.256   8.003 -0.5058  0.9906  0.0789
  472SOL    HW1 2867   7.799   9.176   7.955 -1.2626  0.6266  0.3022
  472SOL    HW2 2868   7.723   9.306   7.942 -1.6741  0.4171  0.5897
  473SOL     OW 2869   3.435   5.957   5.878  0.0130  0.2288 -0.7458
  473SOL    HW1 2870   3.355   5.905   5.884  0.2324 -0.1001 -0.6484
  473SOL    HW2 2871   3.427   6.004   5.795 -0.5519  0.6499 -0.4615
  474SOL     OW 2872   3.307   5.272   3.956 -0.1474  0.0866 -0.0786
  474SOL    HW1 2873   3.339   5.306   4.039  0.2063 -2.4643  0.9192
  474SOL    HW2 2874   3.385   5.235   3.913 -0.6769 -0.4858 -0.5751
  475SOL     OW 2875   4.721   9.107   8.075  0.7765 -0.1568  0.1801
  475SOL    HW1 2876   4.667   9.186   8.068  1.2633  0.3587  1.7735
  475SOL    HW2 2877   4.669   9.047   8.128  0.8829 -0.4891 -0.0870
  476SOL     OW 2878   5.165   4.826   1.736  0.0220  0.2967  0.2707
  476SOL    HW1 2879   5.101   4.758   1.758 -1.4880  1.7762  0.7895
  476SOL    HW2 2880   5.193   4.806   1.647 -0.7559 -0.7297  0.2372
  477SOL     OW 2881   6.707   4.826   5.458  0.6678  0.0718  0.0927
  477SOL    HW1 2882   6.660   4.860   5.382 -0.9019  0.0699  1.0239
  477SOL    HW2 2883   6.758   4.901   5.490  0.2629  0.4603 -0.1645
  478SOL     OW 2884   4.640   4.223   1.848  0.0545 -0.5228 -0.3917
  478SOL    HW1 2885   4.626   4.193   1.937  0.7871 -0.1292 -0.1362
  478SOL    HW2 2886   4.667   4.145   1.799  1.0980 -0.4692  0.0691
  479SOL     OW 2887   4.963   2.249   1.238 -0.0399  0.7702  0.2957
  479SOL    HW1 2888   5.019   2.176   1.264 -2.6607 -0.2132  4.0140
  479SOL    HW2 2889   5.013   2.328   1.261  2.3740  0.3349 -2.7742
  480SOL     OW 2890   5.911   6.775   7.142  0.0694  0.0690 -0.2618
  480SOL    HW1 2891   5.876   6.687   7.156  1.0124 -0.3217 -0.3123
  480SOL    HW2 2892   5.890   6.822   7.223  0.3753 -0.4740  0.1346
  481SOL     OW 2893   5.876   5.987   5.489 -0.0810  0.0920  0.2028
  481SOL    HW1 2894   5.851   6.054   5.426 -0.8831  1.2837  1.7201
  481SOL    HW2 2895   5.797   5.971   5.540  0.1358 -1.9246  0.0039
  482SOL     OW 2896   0.577   5.297   4.217  0.7929  0.1774  0.4570
  482SOL    HW1 2897   0.562   5.216   4.266 -1.0814 -0.3500 -0.8524
  482SOL    HW2 2898   0.578   5.269   4.125 -2.1703  1.8292 -0.2069
  483SOL     OW 2899   3.619   8.897   2.205 -0.4966 -0.0426 -0.3599
  483SOL    HW1 2900   3.712   8.906   2.226 -0.7920  0.8229  0.7151
  483SOL    HW2 2901   3.605   8.802   2.199  0.4832 -0.1776 -0.7447
  484SOL     OW 2902   6.175   9.126   8.693 -0.7307 -0.7838 -0.0988
  484SOL    HW1 2903   6.128   9.139   8.775  0.3624  0.8808  0.3137
  484SOL    HW2 2904   6.237   9.056   8.711 -0.6605 -0.5900  0.4152
  485SOL     OW 2905   5.687   2.476   9.128 -0.4877 -0.1617  0.1518
  485SOL    HW1 2906   5.682   2.517   9.042  1.1241  0.5246  0.3449
  485SOL    HW2 2907   5.706   2.384   9.109  0.5331  0.1120 -0.2529
  486SOL     OW 2908   5.035   2.262   6.098 -0.2785  0.0385  0.5376
  486SOL    HW1 2909   5.017   2.171   6.072 -0.6324  0.1711  0.3042
  486SOL    HW2 2910   5.074   2.255   6.185  0.7933 -0.4120  0.0472
  487SOL     OW 2911   2.521   8.080   8.860  0.1619  0.5305 -0.6334
  487SOL    HW1 2912   2.447   8.135   8.834 -0.8888 -1.0020 -1.0101
  487SOL    HW2 2913   2.502   7.994   8.822  3.0462  0.5032 -2.3436
  488SOL     OW 2914   7.056   3.923   4.355 -0.4392  0.3451  0.1187
  488SOL    HW1 2915   7.026   3.922   4.265  1.3170 -3.3101 -0.6024
  488SOL    HW2 2916   7.132   3.981   4.354  0.2535 -0.5412 -1.0642
  489SOL     OW 2917   4.262   4.027   0.995 -0.2184  0.3455 -0.8122
  489SOL    HW1 2918   4.279   4.046   0.903  1.1150  1.3674 -0.3931
  489SOL    HW2 2919   4.176   4.067   1.012 -0.4741  0.1456 -1.5980
  490SOL     OW 2920   7.083   8.325   8.769 -0.3967 -0.3608 -0.0714
  490SOL    HW1 2921   7.136   8.305   8.692  0.4290  0.0339  0.3794
  490SOL    HW2 2922   7.066   8.240   8.810  0.8991 -0.4095  0.4172
  491SOL     OW 2923   4.042   6.609   8.177 -0.1126  0.2922  0.2945
  491SOL    HW1 2924   4.070   6.628   8.267 -0.5973  1.6986  0.1698
  491SOL    HW2 2925   4.005   6.521   8.182  0.7111 -0.0288  1.2712
  492SOL     OW 2926   0.844   6.020   0.020 -1.0441  0.3440  0.6420
  492SOL    HW1 2927   0.797   6.103   0.030  1.1192  1.9223 -0.9929
  492SOL    HW2 2928   0.924   6.031   0.072  1.4663  1.3163 -2.9748
  493SOL     OW 2929   9.061   4.877   7.913 -0.3750 -0.5787  0.2899
  493SOL    HW1 2930   9.009   4.925   7.849  0.5456 -0.9636 -0.7809
  493SOL    HW2 2931   9.088   4.943   7.977 -0.6782 -0.0363 -0.1369
  494SOL     OW 2932   4.287   3.984   3.923  0.8898  0.2881  0.0577
  494SOL    HW1 2933   4.350   3.954   3.857  0.2318 -1.0426 -0.0068
  494SOL    HW2 2934   4.330   4.059   3.965  0.6034  2.3598 -3.0342
  495SOL     OW 2935   3.667   5.342   8.876  0.5070  0.6330  0.4608
  495SOL    HW1 2936   3.612   5.361   8.952 -0.5516  0.2225 -0.1789
  495SOL    HW2 2937   3.606   5.339   8.802  1.7194  2.5470 -0.6782
  496SOL     OW 2938   0.992   3.396   8.367  0.4461  0.4274 -0.5720
  496SOL    HW1 2939   0.936   3.436   8.433 -0.5224 -2.6255  0.6203
  496SOL    HW2 2940   1.072   3.373   8.414 -0.1590 -1.5460 -0.3720
  497SOL     OW 2941   8.635   2.247   4.711  0.5598  0.0017  0.4324
  497SOL    HW1 2942   8.647   2.315   4.778 -1.1018  1.7863 -0.9642
  497SOL    HW2 2943   8.708   2.261   4.650  0.3095  0.4256  0.2295
  498SOL     OW 2944   8.418   1.333   5.055 -0.5186  0.2253 -0.0270
  498SOL    HW1 2945   8.418   1.414   5.107 -1.4210  0.9594 -1.1163
  498SOL    HW2 2946   8.345   1.344   4.994  0.4417 -0.6562 -1.3841
  499SOL     OW 2947   4.516   6.441   6.519 -0.1002 -0.6130  0.0826
  499SOL    HW1 2948   4.481   6.520   6.560 -1.4683 -1.3808  0.4711
  499SOL    HW2 2949   4.505   6.456   6.425 -0.0821 -0.2261  0.1411
  500SOL     OW 2950   6.349   6.872   7.005  0.4599  0.2394  0.7513
  500SOL    HW1 2951   6.413   6.804   7.024  0.0225 -0.1684  0.8043
  500SOL    HW2 2952   6.272   6.824   6.973 -0.3776  0.5814  2.1537
  501SOL     OW 2953   5.333   8.430   3.481  0.5799  0.2054 -0.0973
  501SOL    HW1 2954   5.363   8.388   3.561  1.5148 -2.1223 -1.5796
  501SOL    HW2 2955   5.238   8.436   3.490  0.7332  0.6485  1.4386
  502SOL     OW 2956   6.352   4.707   5.527 -0.2052  0.0095 -0.5861
  502SOL    HW1 2957   6.440   4.740   5.507  0.1688  0.1103  1.0402
  502SOL    HW2 2958   6.369   4.626   5.575 -0.9586  0.5256  0.5881
  503SOL     OW 2959   7.772   0.528   6.578 -0.4088  0.2528  0.1174
  503SOL    HW1 2960   7.857   0.497   6.546 -0.2081  1.2866 -0.3888
  503SOL    HW2 2961   7.792   0.577   6.657 -0.6701 -0.4466  0.6273
  504SOL     OW 2962   8.512   2.260   7.283 -0.0865 -0.7135 -0.0272
  504SOL    HW1 2963   8.438   2.252   7.342  0.0627 -0.0104  0.2704
  504SOL    HW2 2964   8.479   2.315   7.211  0.2752 -0.0035  0.3406
  505SOL     OW 2965   0.691   6.800   0.848 -0.7672  0.1144  0.1058
  505SOL    HW1 2966   0.780   6.765   0.844 -0.4163  0.9884  0.0739
  505SOL    HW2 2967   0.657   6.770   0.932 -0.7231 -0.8589 -0.2123
  506SOL     OW 2968   2.383   5.800   7.566 -0.6960 -0.0693 -0.3737
  506SOL    HW1 2969   2.312   5.855   7.597 -1.0280 -0.0220 -1.1864
  506SOL    HW2 2970   2.344   5.747   7.497  0.1549  0.2443 -1.1181
  507SOL     OW 2971   2.109   2.619   9.227  0.3708 -0.1218  0.4397
  507SOL    HW1 2972   2.146   2.701   9.194  0.7697 -1.0349 -1.5619
  507SOL    HW2 2973   2.101   2.564   9.149 -0.1945 -1.8763  1.6823
  508SOL     OW 2974   0.050   1.945   5.652 -0.2926  0.2781 -0.2848
  508SOL    HW1 2975  -0.017   1.876   5.648 -0.7656  0.7784 -2.2361
  508SOL    HW2 2976   0.010   2.020   5.607  1.9816  0.1675 -2.7717
  509SOL     OW 2977   6.802   3.230   1.302 -0.0251  0.0774  0.3570
  509SOL    HW1 2978   6.793   3.239   1.208 -0.4044 -1.1344  0.2585
  509SOL    HW2 2979   6.805   3.320   1.335 -1.4934  0.5314 -0.6526
  510SOL     OW 2980   5.327   0.797   0.736 -0.8344 -0.0003  0.2280
  510SOL    HW1 2981   5.421   0.806   0.749 -0.8200  1.1913 -0.4959
  510SOL    HW2 2982   5.315   0.708   0.705  0.4876  0.7380 -2.8019
  511SOL     OW 2983   5.986   6.315   9.123  0.0643 -0.0075 -0.5598
  511SOL    HW1 2984   5.928   6.240   9.130  0.7630 -0.5998 -0.9791
  511SOL    HW2 2985   6.000   6.344   9.214 -0.5101 -0.1412 -0.4271
  512SOL     OW 2986   6.112   7.367   2.864 -0.6418 -0.1571  0.1487
  512SOL    HW1 2987   6.194   7.365   2.914 -0.3489 -0.0890 -0.3233
  512SOL    HW2 2988   6.109   7.281   2.821  0.9149  1.0145 -2.5607
  513SOL     OW 2989   7.065   4.983   2.127  0.0191 -0.1166 -0.5591
  513SOL    HW1 2990   7.093   4.892   2.142  2.4614  0.5820 -0.4376
  513SOL    HW2 2991   6.973   4.985   2.155  0.3163 -2.2155  0.7683
  514SOL     OW 2992   6.759   4.752   6.754 -0.4848 -0.2426 -0.1575
  514SOL    HW1 2993   6.778   4.812   6.826 -2.1722  1.2405 -0.8662
  514SOL    HW2 2994   6.676   4.710   6.777 -0.2532 -0.9207 -0.5252
  515SOL     OW 2995   1.912   2.950   9.104  0.2971  0.1236 -0.8863
  515SOL    HW1 2996   1.949   3.032   9.071  1.1499 -0.0470 -0.4067
  515SOL    HW2 2997   1.947   2.883   9.045 -0.7185  0.1348 -1.5174
  516SOL     OW 2998   4.301   4.797   2.223 -0.6657 -0.4555  0.2256
  516SOL    HW1 2999   4.290   4.743   2.301  1.7150  0.8978  1.6203
  516SOL    HW2 3000   4.347   4.742   2.161 -0.7675 -0.8988  0.5377
  517SOL     OW 3001   2.036   3.413   6.067  0.5420 -0.1249  0.5280
  517SOL    HW1 3002   1.979   3.353   6.019 -0.7908  0.1745  1.6425
  517SOL    HW2 3003   2.071   3.472   6.001 -0.5293 -0.2782 -0.1918
  518SOL     OW 3004   8.093   3.294   2.970 -0.0955  0.6786 -0.5300
  518SOL    HW1 3005   8.071   3.201   2.982  1.3569  0.2243 -1.0696
  518SOL    HW2 3006   8.036   3.323   2.899  0.1624 -0.1093 -1.0800
  519SOL     OW 3007   6.757   7.073   4.755  0.0768  0.1126 -0.4892
  519SOL    HW1 3008   6.733   6.991   4.799 -2.1077  0.1538 -1.4523
  519SOL    HW2 3009   6.777   7.047   4.665  1.2962  0.4245 -0.3191
  520SOL     OW 3010   1.693   1.514   4.418 -0.0128  0.9382 -0.0190
  520SOL    HW1 3011   1.721   1.431   4.457 -2.2169 -1.0497 -2.3598
  520SOL    HW2 3012   1.774   1.551   4.383  0.8355 -1.0527 -0.3497
  521SOL     OW 3013   5.668   6.415   1.184 -0.1506 -0.2586  0.3125
  521SOL    HW1 3014   5.606   6.356   1.140  0.1664  0.1734 -0.7279
  521SOL    HW2 3015   5.754   6.389   1.151 -0.0881  1.5095 -1.0753
  522SOL     OW 3016   3.640   4.732   9.142 -0.0895 -0.3884  0.0544
  522SOL    HW1 3017   3.670   4.737   9.232 -2.2095 -1.7024  0.9005
  522SOL    HW2 3018   3.603   4.818   9.124  0.1001 -0.2102  0.5084
  523SOL     OW 3019   6.382   1.850   6.108 -0.1407 -0.2653 -0.9204
  523SOL    HW1 3020   6.411   1.760   6.125 -1.7540 -0.5465  0.5126
  523SOL    HW2 3021   6.438   1.904   6.163  0.5186 -0.4007 -1.4349
  524SOL     OW 3022   6.741   9.224   2.249 -0.1180  0.4774  0.5243
  524SOL    HW1 3023   6.834   9.203   2.252  0.1848  1.6278 -0.2567
  524SOL    HW2 3024   6.720   9.228   2.156 -0.6670  1.3798  0.6746
  525SOL     OW 3025   6.250   5.010   4.369  0.2139  0.6311 -0.6936
  525SOL    HW1 3026   6.169   4.965   4.346 -0.0947  0.7969  0.0257
  525SOL    HW2 3027   6.313   4.982   4.303 -0.5242  0.7905 -1.4804
  526SOL     OW 3028   5.496   5.640   4.939 -0.6716  0.0196 -0.1982
  526SOL    HW1 3029   5.462   5.689   4.864  0.1490  0.9420  0.0204
  526SOL    HW2 3030   5.429   5.651   5.007 -0.8066  0.2786 -0.3706
  527SOL     OW 3031   3.344   2.856   7.517 -0.5994  0.0252  0.2352
  527SOL    HW1 3032   3.346   2.886   7.426 -0.1883  0.0301  0.2439
  527SOL    HW2 3033   3.402   2.916   7.563 -0.5546 -0.1760  0.4419
  528SOL     OW 3034   6.001   3.393   4.656  0.1109 -0.2190 -0.1659
  528SOL    HW1 3035   5.987   3.310   4.609  0.1026  1.0177 -2.4680
  528SOL    HW2 3036   6.095   3.410   4.647  0.1112  0.0287  0.2992
  529SOL     OW 3037   3.488   4.056   6.358  0.4184 -0.2134  0.0336
  529SOL    HW1 3038   3.562   4.032   6.413  0.9585  0.3012 -0.4613
  529SOL    HW2 3039   3.425   4.095   6.419 -0.0770 -1.9452  0.6939
  530SOL     OW 3040   0.556   6.661   1.416 -0.2480  0.2068  0.4141
  530SOL    HW1 3041   0.626   6.677   1.479 -0.7160  1.9870  0.5467
  530SOL    HW2 3042   0.571   6.571   1.386 -0.1188 -0.8108  3.1712
  531SOL     OW 3043   3.644   1.588   3.482 -0.1965  0.2952  0.8409
  531SOL    HW1 3044   3.596   1.507   3.498 -0.3120  0.4054  1.0568
  531SOL    HW2 3045   3.584   1.657   3.510 -0.1201  0.4582  0.6088
  532SOL     OW 3046   4.191   3.366   5.903 -0.1598  1.0995 -0.0298
  532SOL    HW1 3047   4.175   3.322   5.987  0.5901 -1.2289 -1.0210
  532SOL    HW2 3048   4.266   3.319   5.866 -0.8963  1.6222 -2.2995
  533SOL     OW 3049   2.544   5.634   0.470 -0.2865 -0.0171 -0.0166
  533SOL    HW1 3050   2.504   5.714   0.436 -0.8571 -0.3405 -0.1059
  533SOL    HW2 3051   2.540   5.643   0.565 -0.4354  0.0124 -0.0265
  534SOL     OW 3052   4.491   0.944   7.226  0.4641  0.5330  0.4907
  534SOL    HW1 3053   4.502   0.893   7.145 -0.0846  0.7399  0.2854
  534SOL    HW2 3054   4.410   0.910   7.265  1.0382  0.0131  1.2676
  535SOL     OW 3055   1.072   8.173   7.057 -0.0037 -0.1804 -0.4233
  535SOL    HW1 3056   1.017   8.251   7.055  2.1607  1.5865  2.2479
  535SOL    HW2 3057   1.019   8.106   7.101 -1.1198  0.4044 -0.8476
  536SOL     OW 3058   5.361   3.562   7.225 -0.9813 -0.3258 -0.4495
  536SOL    HW1 3059   5.402   3.604   7.149  0.1123 -2.4164 -1.0859
  536SOL    HW2 3060   5.278   3.530   7.192 -0.5172 -1.2125 -0.7846
  537SOL     OW 3061   2.605   3.085   4.679 -0.7649  0.3489  0.3033
  537SOL    HW1 3062   2.598   3.160   4.620 -0.0099 -1.2779 -2.0246
  537SOL    HW2 3063   2.536   3.099   4.744 -0.9221  2.8032 -0.2841
  538SOL     OW 3064   2.845   1.207   8.455 -0.0307  0.2028 -0.1652
  538SOL    HW1 3065   2.917   1.166   8.503 -0.3275  0.5956  0.6334
  538SOL    HW2 3066   2.888   1.272   8.399  0.3575 -0.5587 -0.7683
  539SOL     OW 3067   5.315   5.642   1.831 -0.1583  0.2949  0.2684
  539SOL    HW1 3068   5.350   5.624   1.919 -0.6939  1.1468  0.6598
  539SOL    HW2 3069   5.364   5.718   1.800 -0.2622  0.2523 -0.0093
  540SOL     OW 3070   8.192   1.100   2.601 -0.1820  0.5794  0.6153
  540SOL    HW1 3071   8.244   1.180   2.597 -0.5774  0.8013 -0.5508
  540SOL    HW2 3072   8.106   1.128   2.632 -0.2650  0.5857  0.3844
  541SOL     OW 3073   4.635   4.251   3.268 -0.1587 -0.0985 -0.4843
  541SOL    HW1 3074   4.642   4.199   3.188  0.6514 -0.2697 -0.3065
  541SOL    HW2 3075   4.700   4.214   3.328 -0.5082  0.2539  0.1298
  542SOL     OW 3076   3.767   6.193   9.203  0.3314  0.3458  0.0168
  542SOL    HW1 3077   3.790   6.101   9.193  0.6863  0.5373 -0.9709
  542SOL    HW2 3078   3.757   6.226   9.114  1.2133  1.5166  0.3271
  543SOL     OW 3079   7.520   0.907   7.247  0.1615 -0.0724  0.4358
  543SOL    HW1 3080   7.429   0.886   7.227  0.2949 -0.3616  0.1094
  543SOL    HW2 3081   7.554   0.946   7.166  0.3642 -0.0844  0.5138
  544SOL     OW 3082   8.618   5.412   8.687 -0.3329  0.3903 -0.7783
  544SOL    HW1 3083   8.575   5.352   8.748 -0.2671  1.2203  0.0992
  544SOL    HW2 3084   8.693   5.446   8.736 -0.2347  1.0124 -1.3547
  545SOL     OW 3085   1.142   3.199   6.299  0.4497 -0.3117  0.0189
  545SOL    HW1 3086   1.088   3.199   6.220  0.3173  1.4589  0.0556
  545SOL    HW2 3087   1.145   3.108   6.327 -1.0449 -0.7016 -0.9862
  546SOL     OW 3088   1.958   8.611   5.597 -0.1023  0.2498 -0.3047
  546SOL    HW1 3089   1.981   8.655   5.516  0.1168  2.1637  0.7315
  546SOL    HW2 3090   1.862   8.604   5.594 -0.0494 -0.2710 -0.9893
  547SOL     OW 3091   4.620   4.947   5.263  0.1600  0.0015 -0.4802
  547SOL    HW1 3092   4.696   5.005   5.250  0.8922 -0.4287  1.5266
  547SOL    HW2 3093   4.602   4.913   5.175  2.1722  0.2678 -1.0656
  548SOL     OW 3094   0.515   0.108   5.427  0.1588  0.0949 -0.0491
  548SOL    HW1 3095   0.586   0.072   5.372  1.1689  0.2533  1.1024
  548SOL    HW2 3096   0.504   0.043   5.497  0.9306  1.2355  1.1898
  549SOL     OW 3097   6.992   0.736   0.510 -0.5334  0.1381 -0.6360
  549SOL    HW1 3098   6.977   0.795   0.437  1.9431 -0.2728 -1.5641
  549SOL    HW2 3099   7.005   0.650   0.469 -0.5675 -0.3843  0.4069
  550SOL     OW 3100   8.623   6.894   0.783 -0.1710  0.0229 -0.5379
  550SOL    HW1 3101   8.640   6.819   0.841  1.6716  1.3103  0.6868
  550SOL    HW2 3102   8.577   6.957   0.839 -0.8313  0.2214 -1.2832
  551SOL     OW 3103   6.449   5.674   1.748  0.3215 -0.4571  0.3619
  551SOL    HW1 3104   6.529   5.660   1.799  1.0414 -0.2234 -0.6588
  551SOL    HW2 3105   6.479   5.673   1.657 -0.9077 -0.7836 -0.0596
  552SOL     OW 3106   5.547   3.985   8.447  0.5624  0.2745 -0.6462
  552SOL    HW1 3107   5.584   4.067   8.413  2.0354  0.4552  1.2188
  552SOL    HW2 3108   5.599   3.916   8.404 -0.5394  0.2885 -2.0574
  553SOL     OW 3109   3.256   7.959   6.968 -0.1295  0.5563  0.2039
  553SOL    HW1 3110   3.265   8.033   7.028 -0.0832  0.1022  0.7747
  553SOL    HW2 3111   3.246   7.883   7.026 -0.8081  0.1905 -0.3674
  554SOL     OW 3112   5.710   8.538   7.638  0.1066 -0.4431  0.5023
  554SOL    HW1 3113   5.786   8.481   7.645  1.7053  1.6641  1.1837
  554SOL    HW2 3114   5.641   8.482   7.601  1.7445 -2.5997  0.5517
  555SOL     OW 3115   1.422   4.552   1.084 -0.5597 -0.2504 -0.2854
  555SOL    HW1 3116   1.502   4.562   1.136 -1.5233 -1.1215  1.4395
  555SOL    HW2 3117   1.371   4.630   1.105 -0.3977  0.0544 -0.9944
  556SOL     OW 3118   5.900   3.568   3.911 -0.5681 -0.2986 -0.4299
  556SOL    HW1 3119   5.889   3.648   3.961 -1.8062 -0.8801  0.2807
  556SOL    HW2 3120   5.859   3.586   3.826 -1.5881 -0.4300  0.0205
  557SOL     OW 3121   4.299   8.869   4.073  0.1312  0.2175 -0.0965
  557SOL    HW1 3122   4.256   8.955   4.071 -1.7986 -0.7102 -1.4322
  557SOL    HW2 3123   4.333   8.857   3.985 -2.3639 -1.6107 -0.9353
  558SOL     OW 3124   7.706   0.407   1.864 -0.2907  0.3705  0.2673
  558SOL    HW1 3125   7.794   0.389   1.897 -1.0282 -1.5627  1.3414
  558SOL    HW2 3126   7.654   0.425   1.943 -1.3924 -1.1138 -0.0679
  559SOL     OW 3127   4.540   5.830   5.778 -0.4848 -0.8715  0.6831
  559SOL    HW1 3128   4.543   5.889   5.702  0.0615 -0.5420  0.9548
  559SOL    HW2 3129   4.529   5.888   5.853  0.8132 -1.0492  1.0240
  560SOL     OW 3130   5.951   8.360   7.947  0.0286 -0.1828  0.2148
  560SOL    HW1 3131   5.957   8.456   7.941 -0.0354 -0.2051 -0.2458
  560SOL    HW2 3132   5.897   8.335   7.873 -1.3450 -0.4483  1.2647
  561SOL     OW 3133   9.163   2.592   0.741 -0.1088 -0.4384  0.3171
  561SOL    HW1 3134   9.146   2.648   0.817 -1.5441  0.0017 -0.2929
  561SOL    HW2 3135   9.220   2.644   0.684  1.4009 -0.9643  1.2702
  562SOL     OW 3136   5.238   1.528   7.576  0.2996 -0.3805  0.2744
  562SOL    HW1 3137   5.176   1.470   7.533 -0.3383  0.7459 -0.3742
  562SOL    HW2 3138   5.199   1.547   7.661  0.6534 -1.1114  0.6114
  563SOL     OW 3139   8.703   5.730   0.034  0.0474  0.0843  0.4688
  563SOL    HW1 3140   8.751   5.773   0.105 -0.9015  2.4177 -0.2062
  563SOL    HW2 3141   8.620   5.776   0.030 -0.6281 -1.1709 -1.0159
  564SOL     OW 3142   6.115   6.843   6.781 -0.4605  0.2463 -0.4158
  564SOL    HW1 3143   6.180   6.892   6.732  0.0053 -0.2497 -0.3015
  564SOL    HW2 3144   6.047   6.907   6.801 -0.5262  0.5267 -1.4595
  565SOL     OW 3145   5.695   3.063   4.797  0.4038 -0.0409 -0.1242
  565SOL    HW1 3146   5.683   3.156   4.814 -1.0206 -0.1236 -0.5257
  565SOL    HW2 3147   5.741   3.059   4.713 -2.7410  0.3815 -2.0713
  566SOL     OW 3148   1.575   2.173   3.330 -0.1372  0.1421 -0.3386
  566SOL    HW1 3149   1.484   2.177   3.360  0.1506 -1.0930  0.7853
  566SOL    HW2 3150   1.627   2.180   3.410  0.7770  0.8993 -0.9749
  567SOL     OW 3151   1.936   2.570   0.168  0.3474 -0.0463  0.4642
  567SOL    HW1 3152   1.990   2.590   0.091  0.5155 -1.6851  0.1122
  567SOL    HW2 3153   1.991   2.591   0.243  0.3098  1.2334  0.1652
  568SOL     OW 3154   3.074   3.641   7.489  0.1172 -0.1670 -0.1902
  568SOL    HW1 3155   3.084   3.578   7.418  0.7147  0.2937 -0.5242
  568SOL    HW2 3156   3.090   3.726   7.448 -1.7037  0.3094  0.0314
  569SOL     OW 3157   6.170   5.275   3.096  0.2754 -0.6194  0.2456
  569SOL    HW1 3158   6.164   5.201   3.035 -0.5423  0.2408 -0.7786
  569SOL    HW2 3159   6.261   5.274   3.126  0.6248 -1.2600 -0.7587
  570SOL     OW 3160   6.012   5.321   2.267 -0.4995  0.3123  0.2656
  570SOL    HW1 3161   5.952   5.291   2.198 -1.2900  0.1487  1.0130
  570SOL    HW2 3162   6.056   5.242   2.297  0.0730  0.4250 -0.2454
  571SOL     OW 3163   4.779   0.956   3.730 -0.2582 -0.3952 -0.0413
  571SOL    HW1 3164   4.685   0.947   3.715 -0.1714 -1.1837 -0.1330
  571SOL    HW2 3165   4.790   0.945   3.824 -0.1013 -1.7753 -0.2096
  572SOL     OW 3166   1.116   6.654   8.135 -0.3356  0.1107 -0.1090
  572SOL    HW1 3167   1.187   6.718   8.131  1.8361 -2.0917  0.4647
  572SOL    HW2 3168   1.100   6.630   8.044  1.7097 -1.3701 -0.1537
  573SOL     OW 3169   9.136   4.819   9.002 -0.2050  0.2255  0.7274
  573SOL    HW1 3170   9.145   4.909   9.034  2.2155  0.5411 -0.6021
  573SOL    HW2 3171   9.185   4.766   9.065 -1.0221 -0.0819  1.1149
  574SOL     OW 3172   8.916   8.254   3.307 -0.1970 -0.7341  0.1041
  574SOL    HW1 3173   8.936   8.327   3.248  0.9316  0.4759  1.8762
  574SOL    HW2 3174   8.843   8.286   3.360  1.4065 -0.0764  2.0777
  575SOL     OW 3175   7.393   6.539   5.498  0.2625  0.3708  0.0192
  575SOL    HW1 3176   7.413   6.445   5.506  0.9639  0.5193 -0.0099
  575SOL    HW2 3177   7.477   6.581   5.481 -0.1444  0.9306 -0.6658
  576SOL     OW 3178   3.898   1.469   3.548 -0.4025 -0.2778 -0.3654
  576SOL    HW1 3179   3.832   1.399   3.549 -0.0590 -0.6498  1.9027
  576SOL    HW2 3180   3.847   1.549   3.538 -1.0204 -0.7037 -0.7349
  577SOL     OW 3181   0.336   4.629   4.988 -0.1300 -0.7600 -0.1560
  577SOL    HW1 3182   0.414   4.657   5.036  0.2784 -0.5200 -0.9426
  577SOL    HW2 3183   0.303   4.554   5.037 -1.4986  1.2571  2.3063
  578SOL     OW 3184   2.968   8.273   0.178 -0.3028 -0.1262  0.1762
  578SOL    HW1 3185   2.928   8.341   0.124  0.1990 -0.8617 -1.1499
  578SOL    HW2 3186   2.913   8.196   0.164 -0.0442 -0.3868  0.5592
  579SOL     OW 3187   2.368   2.133   7.939 -0.3656 -0.1607 -0.6466
  579SOL    HW1 3188   2.362   2.040   7.961 -1.4043 -0.3476 -1.6448
  579SOL    HW2 3189   2.315   2.177   8.006  1.6249 -0.0523  0.9605
  580SOL     OW 3190   8.280   4.064   7.480  0.1382 -0.1819 -0.0541
  580SOL    HW1 3191   8.353   4.053   7.418 -0.2819 -0.0522 -0.5749
  580SOL    HW2 3192   8.323   4.068   7.566  0.6082 -2.0880 -0.1478
  581SOL     OW 3193   3.571   2.148   8.273 -0.5682  0.4225 -0.0780
  581SOL    HW1 3194   3.627   2.191   8.337 -2.1839  0.7282  1.1830
  581SOL    HW2 3195   3.525   2.080   8.322  3.2718 -4.4253 -2.2882
  582SOL     OW 3196   1.654   1.948   7.260 -0.1568 -0.0548  0.1692
  582SOL    HW1 3197   1.641   1.889   7.186 -0.7606 -0.3712  0.5154
  582SOL    HW2 3198   1.717   2.014   7.229 -2.5394  1.5231 -1.5920
  583SOL     OW 3199   8.941   3.726   1.630 -0.1698  0.1102 -0.6414
  583SOL    HW1 3200   8.850   3.748   1.652  0.1236  0.8843 -0.1283
  583SOL    HW2 3201   8.955   3.640   1.670 -0.6911 -0.0414 -0.7712
  584SOL     OW 3202   2.214   0.601   7.356  0.1746 -0.3412 -0.7282
  584SOL    HW1 3203   2.153   0.670   7.331  0.4855  0.7353  1.2476
  584SOL    HW2 3204   2.173   0.558   7.431  1.0412 -0.7397 -0.4638
  585SOL     OW 3205   0.747   2.107   1.024 -0.2830 -0.0151 -0.3854
  585SOL    HW1 3206   0.745   2.202   1.017 -0.1938  0.0308  0.1586
  585SOL    HW2 3207   0.817   2.079   0.966  1.6077  0.4625  1.5264
  586SOL     OW 3208   8.965   3.509   0.337 -0.0328  0.4250 -0.8587
  586SOL    HW1 3209   9.032   3.517   0.406 -0.2135  0.0978 -0.6407
  586SOL    HW2 3210   8.923   3.595   0.334  1.0733  0.9741 -1.7090
  587SOL     OW 3211   8.943   5.906   8.432 -0.1691  0.0451 -0.3683
  587SOL    HW1 3212   8.917   5.947   8.349  1.6634  1.2315 -0.4107
  587SOL    HW2 3213   8.881   5.940   8.496 -0.0582  1.1191 -0.8169
  588SOL     OW 3214   6.016   8.621   6.501  0.1726  0.0360 -0.1293
  588SOL    HW1 3215   6.005   8.688   6.568  0.9798  0.2595 -0.2059
  588SOL    HW2 3216   6.107   8.629   6.474 -0.7730  2.0257 -3.3871
  589SOL     OW 3217   1.538   6.090   8.542 -0.0833  0.2057  0.0530
  589SOL    HW1 3218   1.603   6.097   8.472 -0.4841  1.3632 -0.2223
  589SOL    HW2 3219   1.473   6.157   8.521 -0.7313 -0.1123  0.9894
  590SOL     OW 3220   0.770   2.491   8.520 -0.1685 -0.0042  0.2887
  590SOL    HW1 3221   0.801   2.440   8.444 -1.7209  0.1548 -0.5062
  590SOL    HW2 3222   0.830   2.565   8.526  1.0331 -0.9598  0.3214
  591SOL     OW 3223   3.876   8.827   0.594 -0.3368 -0.1354  0.2568
  591SOL    HW1 3224   3.923   8.911   0.592 -0.0167 -0.2903  0.8792
  591SOL    HW2 3225   3.807   8.841   0.659 -0.5588 -0.2093  0.0345
  592SOL     OW 3226   3.562   4.351   9.002 -0.3536  0.4533 -0.6828
  592SOL    HW1 3227   3.647   4.338   9.043 -0.8432 -0.0317  0.2046
  592SOL    HW2 3228   3.516   4.410   9.062 -0.6490  0.6998 -1.1470
  593SOL     OW 3229   6.190   5.426   8.273  0.6219  0.4434  0.1318
  593SOL    HW1 3230   6.171   5.519   8.258 -1.7086 -0.2503 -1.8102
  593SOL    HW2 3231   6.104   5.384   8.278  1.6106 -1.6761  0.6300
  594SOL     OW 3232   9.146   2.738   2.726  0.0620  0.5572  0.5884
  594SOL    HW1 3233   9.198   2.664   2.757  0.7654  0.4242 -0.8404
  594SOL    HW2 3234   9.059   2.700   2.710  0.6975 -0.2976 -1.2241
  595SOL     OW 3235   0.212   1.120   6.063  0.3169 -0.1180  1.0173
  595SOL    HW1 3236   0.277   1.054   6.087 -0.7806 -1.7240 -0.2752
  595SOL    HW2 3237   0.218   1.126   5.968 -0.9128  0.2561  0.9523
  596SOL     OW 3238   0.839   1.705   7.174  0.2749 -0.7486  0.6127
  596SOL    HW1 3239   0.773   1.673   7.236 -0.4891 -1.2799 -0.4571
  596SOL    HW2 3240   0.840   1.640   7.103  0.2714  0.4650 -0.5269
  597SOL     OW 3241   1.924   4.539   7.484  0.4793 -0.1420 -0.1517
  597SOL    HW1 3242   1.969   4.576   7.559 -1.0516 -0.0819  0.7730
  597SOL    HW2 3243   1.994   4.522   7.420  1.7347  0.3103  1.0527
  598SOL     OW 3244   0.978   2.496   8.207  0.3684  0.0880 -0.5142
  598SOL    HW1 3245   0.918   2.523   8.137  0.3802 -1.0895 -1.0037
  598SOL    HW2 3246   1.062   2.535   8.182 -0.0545  1.3247 -0.0902
  599SOL     OW 3247   8.402   9.231   4.329 -0.3202 -0.4487  0.1216
  599SOL    HW1 3248   8.466   9.191   4.270 -0.7971 -0.8867 -0.1004
  599SOL    HW2 3249   8.397   9.323   4.301 -0.8260 -0.7380 -0.7727
  600SOL     OW 3250   5.411   4.093   3.454  0.0496  0.0590 -0.6192
  600SOL    HW1 3251   5.435   4.022   3.514  1.7573  1.0845 -0.0125
  600SOL    HW2 3252   5.424   4.057   3.367  2.8352  0.1373 -0.3335
  601SOL     OW 3253   1.127   2.392   5.379  0.3121  0.1179 -0.4412
  601SOL    HW1 3254   1.165   2.448   5.447  2.2405  0.0571 -1.4067
  601SOL    HW2 3255   1.100   2.313   5.426 -0.1452  0.8363  0.5390
  602SOL     OW 3256   0.236   1.565   4.357 -0.2579  0.0998  0.0411
  602SOL    HW1 3257   0.237   1.541   4.450 -1.3061 -1.5380 -0.3193
  602SOL    HW2 3258   0.182   1.643   4.353 -0.6154 -0.1032  0.7623
  603SOL     OW 3259   7.454   6.283   3.557  0.0701 -0.1495  0.0873
  603SOL    HW1 3260   7.494   6.335   3.627  3.0631  0.2660 -1.7669
  603SOL    HW2 3261   7.411   6.211   3.602  2.6278 -0.4024  2.3516
  604SOL     OW 3262   2.736   0.193   3.080  0.0536 -0.3240  0.1239
  604SOL    HW1 3263   2.752   0.286   3.066 -0.5968 -0.3536 -0.9687
  604SOL    HW2 3264   2.798   0.149   3.023 -0.6860 -0.5175 -0.5530
  605SOL     OW 3265   7.753   2.272   9.109 -0.1594  0.3215 -0.2137
  605SOL    HW1 3266   7.705   2.328   9.048 -0.3622 -0.9089 -1.2350
  605SOL    HW2 3267   7.843   2.305   9.105 -0.5692  1.5595  0.4181
  606SOL     OW 3268   2.876   2.779   2.435  0.2791 -0.0154 -0.0775
  606SOL    HW1 3269   2.791   2.744   2.461  0.4277 -0.6211 -0.3718
  606SOL    HW2 3270   2.859   2.830   2.356  0.2250 -0.3575 -0.2904
  607SOL     OW 3271   5.905   6.806   2.691 -0.8855  0.8716 -0.2289
  607SOL    HW1 3272   5.962   6.820   2.766 -1.8400 -2.2127  1.2078
  607SOL    HW2 3273   5.877   6.895   2.666  2.9559  2.3595  0.1179
  608SOL     OW 3274   1.121   3.717   6.655  0.5619  0.3725 -0.1975
  608SOL    HW1 3275   1.205   3.719   6.701 -0.0622 -0.8378  1.0997
  608SOL    HW2 3276   1.142   3.691   6.566  1.5069 -0.7764  0.3305
  609SOL     OW 3277   4.171   6.263   8.984 -0.1301  0.4630  0.1181
  609SOL    HW1 3278   4.115   6.334   9.016 -1.2915 -1.0610  1.6532
  609SOL    HW2 3279   4.216   6.230   9.062  1.7644  0.6242 -0.8472
  610SOL     OW 3280   0.248   1.496   3.391  0.6559  0.4878  0.0818
  610SOL    HW1 3281   0.232   1.495   3.486  0.5976 -0.9225  0.0863
  610SOL    HW2 3282   0.246   1.589   3.367  1.9874  0.9700  1.6655
  611SOL     OW 3283   3.042   7.122   3.615 -0.0861  0.1707  0.0151
  611SOL    HW1 3284   3.070   7.172   3.538 -0.2625  1.8031  0.9566
  611SOL    HW2 3285   2.955   7.156   3.635 -0.4506 -0.9432  0.3520
  612SOL     OW 3286   1.173   1.794   8.554 -0.8194 -0.4049  0.0158
  612SOL    HW1 3287   1.205   1.711   8.589  2.2377  0.5279 -0.3115
  612SOL    HW2 3288   1.173   1.853   8.629 -2.1830 -0.4505  0.0722
  613SOL     OW 3289   8.202   0.589   2.520 -0.3067 -0.3493 -0.2776
  613SOL    HW1 3290   8.210   0.684   2.522 -0.0396 -0.3772  0.0287
  613SOL    HW2 3291   8.285   0.557   2.487 -0.7976 -0.4328 -1.4837
  614SOL     OW 3292   2.165   8.046   6.737  0.1631  0.2117 -0.5590
  614SOL    HW1 3293   2.153   7.952   6.751  0.2158  0.3589  0.5278
  614SOL    HW2 3294   2.245   8.052   6.684  1.0361 -0.3011  0.6469
  615SOL     OW 3295   2.035   5.709   0.754  0.2016 -0.1580  0.4155
  615SOL    HW1 3296   2.072   5.743   0.835  0.7689  0.1507  0.0376
  615SOL    HW2 3297   2.080   5.759   0.685 -2.3107  1.7165 -0.0371
  616SOL     OW 3298   8.584   7.244   5.652  0.2678 -0.4759 -0.5819
  616SOL    HW1 3299   8.554   7.156   5.626 -0.3753 -0.2035 -0.7766
  616SOL    HW2 3300   8.557   7.301   5.580 -1.2380  0.2407  0.4815
  617SOL     OW 3301   8.505   7.751   0.385 -0.0598 -0.7578 -0.1661
  617SOL    HW1 3302   8.521   7.732   0.292 -0.2750  0.0305 -0.3720
  617SOL    HW2 3303   8.562   7.691   0.432  1.0713 -0.2237 -0.8289
  618SOL     OW 3304   7.756   8.623   8.445 -0.4475  0.3829  0.1863
  618SOL    HW1 3305   7.801   8.701   8.478  0.6776 -0.2409  0.1699
  618SOL    HW2 3306   7.811   8.593   8.373 -0.3847 -0.9337  0.7612
  619SOL     OW 3307   8.961   1.346   3.145  0.2666  0.2453  0.0537
  619SOL    HW1 3308   8.924   1.389   3.221 -0.4466 -1.0070  0.4484
  619SOL    HW2 3309   9.044   1.391   3.129  0.6255  0.2723  1.8125
  620SOL     OW 3310   0.629   3.463   0.667 -0.2752 -0.0134  0.0112
  620SOL    HW1 3311   0.670   3.458   0.581  0.3532  0.2974  0.2890
  620SOL    HW2 3312   0.692   3.510   0.722 -0.5368 -0.4622  0.7171
  621SOL     OW 3313   3.279   8.879   4.698 -0.1084  0.1204 -0.2154
  621SOL    HW1 3314   3.255   8.797   4.741  1.3819  0.1370  0.7127
  621SOL    HW2 3315   3.206   8.938   4.717 -0.3498 -0.4456  0.6981
  622SOL     OW 3316   7.903   3.685   8.384  0.2331  0.3092 -0.2887
  622SOL    HW1 3317   7.966   3.722   8.321  1.8437  0.4478  1.3093
  622SOL    HW2 3318   7.819   3.723   8.359  0.4931 -0.7808 -3.2379
  623SOL     OW 3319   0.844   1.840   0.058 -0.4700  0.6018  0.2837
  623SOL    HW1 3320   0.790   1.813   0.133  0.4066 -0.1877  0.6608
  623SOL    HW2 3321   0.842   1.935   0.060 -1.9769  0.6037  0.1808
  624SOL     OW 3322   2.451   1.216   0.384 -0.1159  0.5069  0.0299
  624SOL    HW1 3323   2.527   1.269   0.410  1.1835 -1.7371  1.0822
  624SOL    HW2 3324   2.419   1.179   0.466  0.8176 -2.5880 -0.8910
  625SOL     OW 3325   4.051   4.741   0.553 -0.4181  0.5823 -0.0998
  625SOL    HW1 3326   3.993   4.716   0.625  0.3386  0.6342  0.5462
  625SOL    HW2 3327   4.107   4.664   0.540  0.7817  1.2717  0.7469
  626SOL     OW 3328   6.766   0.623   8.162 -0.2873 -0.3715  0.2744
  626SOL    HW1 3329   6.828   0.558   8.131 -0.4745 -0.7013  0.5839
  626SOL    HW2 3330   6.820   0.697   8.190  0.0268 -0.9360  1.2311
  627SOL     OW 3331   1.783   5.713   7.264 -0.3913  0.4445  0.0320
  627SOL    HW1 3332   1.704   5.664   7.240 -0.5038  0.6776 -0.0772
  627SOL    HW2 3333   1.751   5.789   7.312 -0.1283 -0.4688  1.7546
  628SOL     OW 3334   7.836   2.478   8.131 -0.0286  0.0759 -0.3652
  628SOL    HW1 3335   7.882   2.510   8.208  0.6814  0.1667 -0.8057
  628SOL    HW2 3336   7.884   2.399   8.106 -1.8512 -1.4627  0.8058
  629SOL     OW 3337   0.343   3.156   8.258 -0.6256 -0.9662 -0.1535
  629SOL    HW1 3338   0.430   3.174   8.294  0.0726 -0.0060 -2.1818
  629SOL    HW2 3339   0.351   3.070   8.217  0.2217  0.1934 -2.6073
  630SOL     OW 3340   8.134   4.678   6.460  0.1299  0.2331  0.1859
  630SOL    HW1 3341   8.176   4.751   6.505  0.5833 -0.6184  1.1553
  630SOL    HW2 3342   8.088   4.720   6.386  1.0783  1.3884  0.2181
  631SOL     OW 3343   5.093   0.127   5.507  0.2717 -0.1963  0.2522
  631SOL    HW1 3344   5.016   0.071   5.515  0.3653 -0.3097  0.3665
  631SOL    HW2 3345   5.167   0.068   5.524  0.4649 -0.3887 -1.1466
  632SOL     OW 3346   6.780   8.636   4.943 -0.4530  0.0456  0.3731
  632SOL    HW1 3347   6.818   8.642   4.855 -2.2002 -0.5360 -0.4729
  632SOL    HW2 3348   6.852   8.610   4.999  0.4463 -0.7532 -1.1022
  633SOL     OW 3349   4.427   0.460   0.036  0.1107 -0.3544 -0.3736
  633SOL    HW1 3350   4.412   0.548   0.070  0.1185 -0.4002 -0.2511
  633SOL    HW2 3351   4.522   0.453   0.028  0.5031 -1.7537  3.4583
  634SOL     OW 3352   4.011   3.769   8.335  0.3468  0.7222 -0.0126
  634SOL    HW1 3353   3.924   3.805   8.354  0.6386  0.4522  2.0273
  634SOL    HW2 3354   3.993   3.682   8.300 -0.2160  1.1695 -0.8990
  635SOL     OW 3355   0.832   3.622   2.156  0.2029 -0.1018 -0.0173
  635SOL    HW1 3356   0.755   3.677   2.139 -0.3437 -1.1000 -0.9611
  635SOL    HW2 3357   0.796   3.534   2.166  0.9860 -0.2509  2.0882
  636SOL     OW 3358   7.321   4.018   0.295 -0.0956  0.6593 -0.0358
  636SOL    HW1 3359   7.308   4.031   0.202  0.4770  0.0308 -0.2160
  636SOL    HW2 3360   7.353   3.927   0.303  1.0808  1.0975  0.6277
  637SOL     OW 3361   8.055   4.506   1.890 -0.0371  0.5878  0.4001
  637SOL    HW1 3362   8.079   4.597   1.905 -1.3732  0.8998  0.7825
  637SOL    HW2 3363   8.096   4.457   1.961 -0.3322  1.0718  0.9095
  638SOL     OW 3364   7.406   2.680   8.447  0.0221 -0.1047  0.2692
  638SOL    HW1 3365   7.393   2.601   8.500 -0.9756 -1.3206 -1.6748
  638SOL    HW2 3366   7.318   2.708   8.423  0.4296  0.7675 -0.2536
  639SOL     OW 3367   2.235   4.999   8.284 -0.3591 -0.4784  0.5192
  639SOL    HW1 3368   2.150   4.994   8.240 -1.1098 -1.6002  2.0274
  639SOL    HW2 3369   2.286   5.059   8.229 -2.3752  0.9014  0.0219
  640SOL     OW 3370   8.965   8.665   0.368  0.1479  0.3689 -0.2255
  640SOL    HW1 3371   8.962   8.748   0.320 -1.1008  0.1289 -0.5956
  640SOL    HW2 3372   8.880   8.625   0.352  1.2530 -1.6943 -1.2803
  641SOL     OW 3373   2.978   9.027   4.901  0.2239  0.3435  0.1533
  641SOL    HW1 3374   2.995   9.013   4.994  0.9550 -0.5905 -0.1110
  641SOL    HW2 3375   2.928   8.951   4.873  2.2466 -0.7185 -0.7775
  642SOL     OW 3376   8.939   1.700   3.822 -0.5440 -0.0750  0.1065
  642SOL    HW1 3377   9.001   1.630   3.802 -1.0214 -1.0646  1.9001
  642SOL    HW2 3378   8.990   1.764   3.871 -0.1563  0.7819 -1.3611
  643SOL     OW 3379   2.085   3.784   6.067  0.1352 -0.3858 -0.3177
  643SOL    HW1 3380   1.999   3.818   6.039 -0.9987 -1.8283  1.1863
  643SOL    HW2 3381   2.108   3.720   6.000  0.1939  0.2079 -0.8773
  644SOL     OW 3382   1.139   0.930   8.498 -0.3024  0.2560 -0.0356
  644SOL    HW1 3383   1.172   0.846   8.466 -1.7353  0.0832 -1.1965
  644SOL    HW2 3384   1.153   0.991   8.425 -0.9890  0.5530  0.0695
  645SOL     OW 3385   7.038   0.242   4.379  0.0042  0.0412 -0.2244
  645SOL    HW1 3386   7.111   0.286   4.422 -0.8354 -0.5387  1.8935
  645SOL    HW2 3387   7.058   0.148   4.389 -0.9100 -0.1135  0.1784
  646SOL     OW 3388   2.196   1.831   7.725  0.4772 -0.5796  0.5609
  646SOL    HW1 3389   2.246   1.880   7.659  2.0550 -0.3010  1.8989
  646SOL    HW2 3390   2.140   1.772   7.674  0.9318  0.3054 -1.0277
  647SOL     OW 3391   2.781   4.162   2.449 -0.2850  0.5564  0.5739
  647SOL    HW1 3392   2.785   4.121   2.535  2.6124 -0.9486 -0.1689
  647SOL    HW2 3393   2.824   4.247   2.460  1.3773 -0.2231  0.3817
  648SOL     OW 3394   4.898   5.951   7.165  0.5798  0.6262 -0.6610
  648SOL    HW1 3395   4.816   5.955   7.117 -0.7771  0.8366  1.5409
  648SOL    HW2 3396   4.892   6.021   7.230  2.0267 -0.0530  0.2749
  649SOL     OW 3397   2.817   0.439   1.959 -0.1117 -0.0235 -0.5106
  649SOL    HW1 3398   2.763   0.402   1.889 -1.0925 -2.1101  1.2326
  649SOL    HW2 3399   2.894   0.383   1.963 -0.6270 -0.6756  0.8169
  650SOL     OW 3400   7.265   8.592   6.115 -0.4693 -0.0803  0.1750
  650SOL    HW1 3401   7.319   8.653   6.065  0.9861 -2.0105 -0.7647
  650SOL    HW2 3402   7.317   8.573   6.193 -1.1656  0.2796  0.7350
  651SOL     OW 3403   4.081   5.895   3.086  0.7126  0.0125 -0.1721
  651SOL    HW1 3404   4.019   5.851   3.028  2.7554 -1.1075 -1.6343
  651SOL    HW2 3405   4.116   5.966   3.033  0.8044  0.5445  0.5903
  652SOL     OW 3406   7.631   8.301   6.403 -0.2297  0.3375 -0.2135
  652SOL    HW1 3407   7.617   8.230   6.466 -0.3176  1.7415  1.4248
  652SOL    HW2 3408   7.694   8.266   6.341  0.2206 -0.9466  0.9172
  653SOL     OW 3409   3.724   4.926   5.598  0.0922 -0.2167  0.1964
  653SOL    HW1 3410   3.644   4.873   5.596  0.0703 -0.2004  0.5245
  653SOL    HW2 3411   3.789   4.873   5.552  0.1821 -0.7139  0.8872
  654SOL     OW 3412   5.143   4.300   2.082 -0.3721 -0.5114 -0.6771
  654SOL    HW1 3413   5.192   4.220   2.063 -0.9177 -0.5524 -2.0153
  654SOL    HW2 3414   5.120   4.292   2.175  2.1476 -0.4467  0.0336
  655SOL     OW 3415   7.130   1.858   4.941  0.1849 -0.4195  0.6199
  655SOL    HW1 3416   7.043   1.895   4.924  0.9517  0.4939 -1.8116
  655SOL    HW2 3417   7.115   1.765   4.954 -1.0047 -0.7341 -2.2809
  656SOL     OW 3418   6.712   2.704   4.426  0.1191 -0.1012 -0.0643
  656SOL    HW1 3419   6.654   2.712   4.350 -0.6273  2.1261  0.6442
  656SOL    HW2 3420   6.800   2.715   4.390 -0.1547 -0.0322 -0.7381
  657SOL     OW 3421   4.247   0.623   6.821  0.7172 -0.0627 -0.1100
  657SOL    HW1 3422   4.181   0.557   6.803  0.8399  0.2866 -2.0107
  657SOL    HW2 3423   4.322   0.598   6.767  1.1544  1.0349 -0.0479
  658SOL     OW 3424   5.077   3.714   7.703  0.0083 -0.3152 -0.0164
  658SOL    HW1 3425   5.128   3.633   7.715  0.4587  0.0274  0.3988
  658SOL    HW2 3426   5.077   3.728   7.609  2.0616  0.5431  0.0616
  659SOL     OW 3427   3.908   8.046   9.015  0.3055  0.1574  0.0192
  659SOL    HW1 3428   3.946   8.032   9.101  0.6283 -0.2065 -0.1775
  659SOL    HW2 3429   3.834   7.985   9.010  2.6220 -2.7787 -1.4118
  660SOL     OW 3430   9.150   0.246   5.549  0.7700  0.1340 -0.5963
  660SOL    HW1 3431   9.090   0.183   5.509  0.7597  0.4185 -1.0483
  660SOL    HW2 3432   9.232   0.235   5.501  0.6976  0.6251 -0.8405
  661SOL     OW 3433   6.840   8.859   7.885 -0.1421 -0.3038 -0.0959
  661SOL    HW1 3434   6.855   8.874   7.978 -1.3593 -0.1879  0.0999
  661SOL    HW2 3435   6.876   8.772   7.869  3.2027  0.9849 -0.3167
  662SOL     OW 3436   0.546   4.364   2.241  0.3240  0.0926 -0.8549
  662SOL    HW1 3437   0.545   4.424   2.315  0.3111  0.7348 -1.3621
  662SOL    HW2 3438   0.473   4.304   2.256  1.1529 -0.6672  0.3448
  663SOL     OW 3439   5.155   5.011   7.921  0.1819 -0.4139  0.3364
  663SOL    HW1 3440   5.241   5.051   7.932  0.2702 -0.5740  0.2381
  663SOL    HW2 3441   5.099   5.082   7.892  0.3342 -0.3562  0.1791
  664SOL     OW 3442   2.349   4.401   5.459  0.3777 -0.1104  0.5413
  664SOL    HW1 3443   2.313   4.325   5.506  1.8166 -0.0352  1.8286
  664SOL    HW2 3444   2.309   4.477   5.502 -0.0712 -0.0889  0.0989
  665SOL     OW 3445   5.934   0.069   4.485  0.0712 -0.5398 -0.2968
  665SOL    HW1 3446   6.017   0.085   4.439  1.1373 -0.2802  1.5830
  665SOL    HW2 3447   5.870   0.054   4.415  1.1859  1.6123 -1.9077
  666SOL     OW 3448   6.823   4.928   6.969  0.3903  0.3117  0.4549
  666SOL    HW1 3449   6.768   4.941   7.046  0.2634 -0.5982  0.5263
  666SOL    HW2 3450   6.902   4.980   6.987  0.1487  0.5023  0.9712
  667SOL     OW 3451   5.143   2.773   7.776 -0.7264 -0.0507  0.0826
  667SOL    HW1 3452   5.205   2.702   7.789 -0.3237  0.6419  2.5010
  667SOL    HW2 3453   5.073   2.757   7.840 -1.3230  0.9986 -0.2655
  668SOL     OW 3454   3.549   1.943   4.642  0.4032  0.0346  0.0779
  668SOL    HW1 3455   3.603   1.942   4.721  0.6457  1.0233 -0.0658
  668SOL    HW2 3456   3.563   1.857   4.603  1.9431  0.2849  0.0089
  669SOL     OW 3457   5.603   0.913   4.133 -0.1347 -0.3581 -0.4539
  669SOL    HW1 3458   5.563   0.943   4.215 -0.6208  0.0202 -0.8271
  669SOL    HW2 3459   5.694   0.894   4.157 -0.1749  0.1012  0.0989
  670SOL     OW 3460   2.205   2.282   5.660 -0.3601  0.0084  0.1959
  670SOL    HW1 3461   2.299   2.268   5.647 -0.2656  0.8227 -0.0493
  670SOL    HW2 3462   2.164   2.238   5.586 -0.4302 -3.3456  2.0580
  671SOL     OW 3463   5.608   8.725   9.109  0.1773  0.5800  0.2095
  671SOL    HW1 3464   5.534   8.718   9.169  1.3480  0.5014  1.7171
  671SOL    HW2 3465   5.629   8.819   9.108  1.1952  0.3914  1.2920
  672SOL     OW 3466   5.767   3.380   0.403 -0.4659 -0.2245 -0.1152
  672SOL    HW1 3467   5.715   3.321   0.349  0.5733 -1.6234  0.3411
  672SOL    HW2 3468   5.746   3.467   0.370 -3.5384 -0.6324  0.4636
  673SOL     OW 3469   6.973   7.828   2.316  0.4865  0.1995 -0.3325
  673SOL    HW1 3470   6.916   7.852   2.390  1.1028  1.1140 -0.1394
  673SOL    HW2 3471   6.927   7.862   2.239  0.6955  0.8283 -0.1879
  674SOL     OW 3472   9.253   6.258   8.456 -0.6484  0.2481  0.1991
  674SOL    HW1 3473   9.316   6.297   8.517  0.7560  1.2142 -1.7283
  674SOL    HW2 3474   9.265   6.163   8.467  0.5235  0.4113  0.5261
  675SOL     OW 3475   5.962   6.005   2.110  0.3430  0.2000 -0.3846
  675SOL    HW1 3476   5.940   6.068   2.041  0.0316 -0.3554 -0.7980
  675SOL    HW2 3477   6.007   6.057   2.177 -0.6457  1.0215 -0.3425
  676SOL     OW 3478   3.834   6.006   4.844  0.0835 -0.4529 -0.4277
  676SOL    HW1 3479   3.797   6.094   4.855  1.5257  0.7260 -3.8278
  676SOL    HW2 3480   3.765   5.956   4.802  1.1223  0.9423 -4.1514
  677SOL     OW 3481   7.941   4.983   5.028  0.0104  0.0883  0.3142
  677SOL    HW1 3482   7.887   5.036   4.970  0.6168  1.1395  0.6772
  677SOL    HW2 3483   7.912   4.893   5.014  0.5743  0.2269 -2.1054
  678SOL     OW 3484   1.902   1.142   3.103  0.0057 -0.6218 -0.1769
  678SOL    HW1 3485   1.948   1.204   3.045 -0.4591 -0.5979 -0.5203
  678SOL    HW2 3486   1.926   1.171   3.191 -1.9099  1.4384 -0.2297
  679SOL     OW 3487   5.986   5.867   0.842  0.4820  0.7057  0.1105
  679SOL    HW1 3488   5.938   5.925   0.902 -1.4526 -0.5044 -0.1450
  679SOL    HW2 3489   5.951   5.779   0.862  0.7276  0.1097 -1.8766
  680SOL     OW 3490   4.605   1.866   3.044  0.2912 -0.0259  0.3423
  680SOL    HW1 3491   4.685   1.845   2.996 -0.2489  0.1992 -0.6904
  680SOL    HW2 3492   4.635   1.888   3.132  1.2492 -1.1230  0.3164
  681SOL     OW 3493   6.741   1.764   8.556  0.5989  0.1154 -0.3278
  681SOL    HW1 3494   6.826   1.724   8.573 -0.0669 -1.1408  0.2233
  681SOL    HW2 3495   6.719   1.808   8.638  0.8790  0.7741 -0.5998
  682SOL     OW 3496   4.235   0.095   1.823  0.4278  0.1734 -0.0500
  682SOL    HW1 3497   4.158   0.116   1.877 -1.8997 -2.7694 -1.9083
  682SOL    HW2 3498   4.279   0.026   1.872  1.0637  0.8098  0.2906
  683SOL     OW 3499   1.491   6.332   6.306 -0.1438  0.3265 -0.0479
  683SOL    HW1 3500   1.497   6.420   6.343 -1.4141  0.6634 -0.5898
  683SOL    HW2 3501   1.397   6.315   6.300  0.0731 -0.6339 -0.9730
  684SOL     OW 3502   3.410   5.871   1.597 -0.5425  0.2427 -0.3969
  684SOL    HW1 3503   3.504   5.872   1.577  0.1163 -0.7624  2.2465
  684SOL    HW2 3504   3.373   5.807   1.537  1.0452 -1.6448  0.5417
  685SOL     OW 3505   3.066   7.494   8.147 -0.3447 -0.4467 -0.2141
  685SOL    HW1 3506   3.152   7.476   8.185  0.9462  4.6892 -0.0001
  685SOL    HW2 3507   3.083   7.505   8.053 -0.4868  1.3841 -0.0634
  686SOL     OW 3508   0.593   5.029   8.959  0.2746 -0.1592 -0.0855
  686SOL    HW1 3509   0.538   4.955   8.988  0.4003  0.6645  2.4856
  686SOL    HW2 3510   0.531   5.091   8.921  0.2094 -1.6566 -2.6792
  687SOL     OW 3511   4.534   7.150   2.378 -0.6270 -0.2286 -0.1483
  687SOL    HW1 3512   4.595   7.183   2.444 -0.8056  0.4854 -0.3315
  687SOL    HW2 3513   4.488   7.078   2.421  0.3088 -0.7484  0.0048
  688SOL     OW 3514   6.013   4.712   6.153  0.5486 -0.3472  0.1584
  688SOL    HW1 3515   6.045   4.626   6.125  1.5917  0.8731 -2.8808
  688SOL    HW2 3516   5.960   4.742   6.079  3.3970  3.1314 -0.7688
  689SOL     OW 3517   0.202   3.868   9.222 -0.0705 -0.4831 -0.2199
  689SOL    HW1 3518   0.207   3.814   9.301  1.4337 -0.8757 -0.5590
  689SOL    HW2 3519   0.109   3.870   9.200 -0.4532 -0.7620  1.2847
  690SOL     OW 3520   0.491   9.227   5.644 -0.3655  0.7847  0.2236
  690SOL    HW1 3521   0.430   9.182   5.702  0.5438  0.7530  1.2002
  690SOL    HW2 3522   0.576   9.186   5.662  0.3924  2.4888  0.7405
  691SOL     OW 3523   0.783   0.802   7.311  0.5548 -0.2511  0.2535
  691SOL    HW1 3524   0.786   0.788   7.216 -1.5508 -0.9360  0.2314
  691SOL    HW2 3525   0.692   0.827   7.329  0.9934  0.2149  2.0619
  692SOL     OW 3526   5.107   0.754   0.892  0.3330 -0.2289  0.7097
  692SOL    HW1 3527   5.067   0.822   0.839  0.5420 -0.2523  0.5211
  692SOL    HW2 3528   5.200   0.776   0.893  0.2641  0.0660  1.4948
  693SOL     OW 3529   6.542   8.318   0.427 -0.2321  0.5923 -0.0840
  693SOL    HW1 3530   6.612   8.330   0.492  1.2224 -2.6670 -0.8447
  693SOL    HW2 3531   6.563   8.382   0.358  1.5575  0.2534  0.0906
  694SOL     OW 3532   0.068   0.893   2.284 -0.1729  0.0017  0.4287
  694SOL    HW1 3533   0.043   0.945   2.360  1.0507  1.9116 -0.3736
  694SOL    HW2 3534   0.103   0.958   2.222  1.8040 -1.8293 -0.5045
  695SOL     OW 3535   0.526   4.693   8.636  0.2086  0.0851 -0.5996
  695SOL    HW1 3536   0.441   4.662   8.667  0.7576  0.8240  1.8597
  695SOL    HW2 3537   0.570   4.615   8.604  0.0228 -1.0331  1.6760
  696SOL     OW 3538   9.043   0.823   3.551 -0.5386  0.0196  0.4375
  696SOL    HW1 3539   9.093   0.856   3.626  0.2934  0.7493 -0.4141
  696SOL    HW2 3540   9.066   0.881   3.479  2.1111 -3.1551 -1.5678
  697SOL     OW 3541   8.476   0.245   9.022  0.3604  0.2411  0.1660
  697SOL    HW1 3542   8.566   0.265   8.995  0.3460  0.1312  0.0362
  697SOL    HW2 3543   8.421   0.289   8.957  0.2574  2.1917  1.4527
  698SOL     OW 3544   4.419   8.439   3.438 -0.1008  0.1520  0.1559
  698SOL    HW1 3545   4.466   8.376   3.494  0.5781  1.4037  1.0405
  698SOL    HW2 3546   4.327   8.425   3.458  0.1672  1.1995  2.3301
  699SOL     OW 3547   1.120   8.679   6.453 -0.0507 -0.0203  0.0997
  699SOL    HW1 3548   1.125   8.635   6.538 -0.5356  1.6842  1.0539
  699SOL    HW2 3549   1.106   8.771   6.475  0.1335  0.5039 -1.8364
  700SOL     OW 3550   7.285   5.073   0.059  0.0976  0.4456  0.1051
  700SOL    HW1 3551   7.349   5.112   0.118  0.4585  0.5798 -0.3673
  700SOL    HW2 3552   7.219   5.035   0.117  1.0785 -0.5036  0.6187
  701SOL     OW 3553   5.171   4.769   7.136 -0.1420 -0.1780  0.7343
  701SOL    HW1 3554   5.231   4.703   7.170 -0.0341 -0.9221 -0.8460
  701SOL    HW2 3555   5.226   4.846   7.120 -0.0368 -0.1147  1.3642
  702SOL     OW 3556   3.128   8.561   3.027 -0.4400  0.9452  0.3980
  702SOL    HW1 3557   3.096   8.528   2.943  1.2761  0.9276 -0.3061
  702SOL    HW2 3558   3.151   8.653   3.009  0.5974  0.7442  0.6290
  703SOL     OW 3559   5.431   2.158   1.664 -0.0195 -0.0760 -0.1557
  703SOL    HW1 3560   5.501   2.120   1.611  1.5429 -0.8337  2.2514
  703SOL    HW2 3561   5.467   2.242   1.694  0.0051 -0.5495  1.2476
  704SOL     OW 3562   7.741   4.894   5.295 -0.7146 -0.7666 -0.3011
  704SOL    HW1 3563   7.728   4.818   5.351  0.4690 -0.7081  0.0826
  704SOL    HW2 3564   7.826   4.878   5.252 -0.8828 -0.0925 -0.9110
  705SOL     OW 3565   2.009   4.667   0.803 -0.1235  0.0963 -0.8920
  705SOL    HW1 3566   1.928   4.617   0.790 -0.6772  1.1408 -1.5734
  705SOL    HW2 3567   2.065   4.640   0.730  0.0783 -0.4847 -0.5282
  706SOL     OW 3568   7.236   3.472   6.239 -0.2418 -0.0649 -0.2001
  706SOL    HW1 3569   7.269   3.508   6.157  1.1690 -2.1441 -0.6451
  706SOL    HW2 3570   7.145   3.450   6.222 -1.0678  2.8464  0.0119
  707SOL     OW 3571   7.445   2.313   6.719 -0.3225  0.0862  0.1507
  707SOL    HW1 3572   7.492   2.322   6.636 -1.4388 -3.2175 -0.9994
  707SOL    HW2 3573   7.499   2.254   6.771 -1.5277 -1.0298  0.1665
  708SOL     OW 3574   0.716   6.959   5.936 -0.2166 -0.0111  0.0524
  708SOL    HW1 3575   0.776   6.946   5.863 -0.7045 -0.2705 -0.3154
  708SOL    HW2 3576   0.730   6.882   5.992 -0.5115 -0.2928 -0.2558
  709SOL     OW 3577   3.131   8.880   3.610  0.1907  0.0209 -0.1191
  709SOL    HW1 3578   3.069   8.807   3.613 -0.3678  0.4735 -0.5008
  709SOL    HW2 3579   3.171   8.881   3.697 -0.6910  0.0219  0.2916
  710SOL     OW 3580   8.839   1.464   2.916 -0.1259  0.4413  0.6087
  710SOL    HW1 3581   8.788   1.502   2.988 -2.1862 -0.2941 -0.3675
  710SOL    HW2 3582   8.894   1.397   2.957 -2.4517 -1.1148  1.3781
  711SOL     OW 3583   7.453   2.405   6.430 -0.2244 -0.2429 -0.6478
  711SOL    HW1 3584   7.461   2.311   6.417  0.3049 -0.3263  0.1955
  711SOL    HW2 3585   7.364   2.418   6.463 -0.2935 -0.4431 -0.7536
  712SOL     OW 3586   6.723   2.516   6.716  0.1986  0.7895  0.8468
  712SOL    HW1 3587   6.756   2.510   6.805  0.4725 -2.1948  0.6578
  712SOL    HW2 3588   6.782   2.461   6.665  0.8181  3.3764 -1.5024
  713SOL     OW 3589   1.292   1.706   0.999 -0.1538 -0.6491 -0.1793
  713SOL    HW1 3590   1.334   1.657   0.928  1.8257 -0.1854  0.5849
  713SOL    HW2 3591   1.246   1.777   0.955 -0.4057 -1.3603 -1.0935
  714SOL     OW 3592   6.907   6.207   5.350  0.0583  0.2812 -0.1073
  714SOL    HW1 3593   6.933   6.183   5.261 -0.6759  0.5663 -0.4004
  714SOL    HW2 3594   6.824   6.252   5.340 -0.7167 -0.8604  0.8488
  715SOL     OW 3595   5.175   2.962   6.988 -0.2502 -0.5703  0.5887
  715SOL    HW1 3596   5.252   2.929   6.942  0.0392  0.0611  0.6132
  715SOL    HW2 3597   5.111   2.891   6.981  0.3005 -1.0645  0.4939
  716SOL     OW 3598   2.872   8.572   4.109 -0.2187 -0.1370  0.2689
  716SOL    HW1 3599   2.820   8.651   4.120 -1.0419 -0.5986 -0.2183
  716SOL    HW2 3600   2.813   8.501   4.133 -0.5738 -0.8330 -2.3258
  717SOL     OW 3601   7.565   1.408   1.074 -0.1122  0.4336 -0.2590
  717SOL    HW1 3602   7.613   1.369   1.002  0.0536  1.4106 -0.7018
  717SOL    HW2 3603   7.623   1.401   1.150  0.0064  0.0428 -0.3891
  718SOL     OW 3604   6.629   4.626   5.790  0.4765  0.1819 -0.0922
  718SOL    HW1 3605   6.702   4.688   5.799  0.2165  0.3123  1.2178
  718SOL    HW2 3606   6.648   4.558   5.854 -0.3434 -0.0048 -0.0457
  719SOL     OW 3607   7.431   6.092   0.609 -0.3376  0.0509 -0.2971
  719SOL    HW1 3608   7.390   6.128   0.688  1.9488 -1.4109  1.6874
  719SOL    HW2 3609   7.418   5.998   0.616 -0.3483 -0.0782 -1.8650
  720SOL     OW 3610   5.877   5.207   7.065  0.3947 -1.0511 -0.0095
  720SOL    HW1 3611   5.789   5.210   7.104  0.2749 -0.8960 -0.2868
  720SOL    HW2 3612   5.934   5.243   7.132 -0.0967  1.2823 -0.7416
  721SOL     OW 3613   5.145   1.571   1.007 -0.1195 -0.3715  0.3805
  721SOL    HW1 3614   5.191   1.638   0.956  0.3867 -0.7480  0.3367
  721SOL    HW2 3615   5.194   1.491   0.991 -0.7677 -0.7714  0.3783
  722SOL     OW 3616   8.520   2.726   7.626  0.4908 -0.3241  0.5865
  722SOL    HW1 3617   8.487   2.806   7.668  0.6404  0.0190  0.0622
  722SOL    HW2 3618   8.615   2.730   7.639  0.8536  1.0377 -1.8394
  723SOL     OW 3619   2.489   3.420   3.373  0.1390  0.7822  0.4455
  723SOL    HW1 3620   2.468   3.438   3.281  2.1432 -0.9739 -0.4472
  723SOL    HW2 3621   2.418   3.363   3.402  0.3009  0.0501 -0.5321
  724SOL     OW 3622   8.259   1.679   0.104 -0.0837  0.9856 -0.0929
  724SOL    HW1 3623   8.250   1.628   0.024 -1.1317  2.7263 -1.1639
  724SOL    HW2 3624   8.353   1.678   0.123  0.1276  0.1846 -1.0853
  725SOL     OW 3625   1.173   0.225   7.590 -0.1466 -1.0281 -0.4121
  725SOL    HW1 3626   1.122   0.304   7.572 -0.3553 -0.8873  0.7504
  725SOL    HW2 3627   1.119   0.153   7.557  0.0698 -0.7074 -1.5348
  726SOL     OW 3628   6.189   2.174   0.679  0.0077  0.0268 -0.1328
  726SOL    HW1 3629   6.239   2.243   0.635  1.1948 -0.2270  0.7517
  726SOL    HW2 3630   6.175   2.107   0.612 -0.3544  0.7248 -0.7580
  727SOL     OW 3631   4.621   8.034   1.988  0.6125  0.2329 -0.0920
  727SOL    HW1 3632   4.605   8.081   2.070 -0.6742  0.9933 -0.7450
  727SOL    HW2 3633   4.611   8.100   1.920 -0.2970 -0.7850 -0.9833
  728SOL     OW 3634   5.865   5.695   1.108  0.2092  0.2350  0.6082
  728SOL    HW1 3635   5.955   5.667   1.126  0.0732  0.0806  1.0803
  728SOL    HW2 3636   5.852   5.771   1.164  0.0561  0.2750  0.5193
  729SOL     OW 3637   3.365   7.644   5.031 -0.1890 -0.2724 -0.3459
  729SOL    HW1 3638   3.298   7.611   4.972 -1.2231  0.5595  0.3182
  729SOL    HW2 3639   3.346   7.601   5.115 -0.4863  0.6735  0.0832
  730SOL     OW 3640   2.161   7.686   1.283 -0.6741  0.0776 -0.3001
  730SOL    HW1 3641   2.141   7.683   1.190  0.5138 -1.2485 -0.5499
  730SOL    HW2 3642   2.087   7.641   1.325 -1.0407  0.3723 -0.6207
  731SOL     OW 3643   5.686   2.016   5.275  0.3964 -0.4105 -0.1525
  731SOL    HW1 3644   5.590   2.021   5.269  0.4341  2.7874  0.1262
  731SOL    HW2 3645   5.716   2.045   5.189  1.1256 -0.9334 -0.0757
  732SOL     OW 3646   0.972   0.737   5.229  0.4525  0.6439 -0.7788
  732SOL    HW1 3647   1.050   0.682   5.236 -0.3038 -0.4319 -0.4106
  732SOL    HW2 3648   0.899   0.675   5.220 -0.3091  1.6295 -1.8164
  733SOL     OW 3649   4.374   8.522   4.989 -0.5782 -0.4951 -0.0131
  733SOL    HW1 3650   4.438   8.571   4.938 -2.8443  0.7162 -1.8909
  733SOL    HW2 3651   4.426   8.475   5.054  2.1463  0.6108 -1.2402
  734SOL     OW 3652   1.360   7.067   3.008 -0.6388 -0.0632  0.2093
  734SOL    HW1 3653   1.399   7.004   2.947  1.3497  0.7404  0.5659
  734SOL    HW2 3654   1.434   7.119   3.039 -1.6153 -0.2065  3.0691
  735SOL     OW 3655   2.844   3.782   1.224 -0.1474  0.1089  0.0800
  735SOL    HW1 3656   2.932   3.749   1.208 -0.6839 -2.0162  1.1658
  735SOL    HW2 3657   2.793   3.756   1.147 -0.4438 -1.1875  0.6943
  736SOL     OW 3658   0.431   7.358   3.697 -0.0035 -0.5108 -0.2005
  736SOL    HW1 3659   0.385   7.295   3.752  1.5080 -1.1911  0.3522
  736SOL    HW2 3660   0.391   7.442   3.717 -2.2556 -1.2724 -1.1391
  737SOL     OW 3661   7.569   3.944   6.014  0.2154  0.4174 -0.0033
  737SOL    HW1 3662   7.495   3.888   5.990  0.1787  0.5218 -0.1369
  737SOL    HW2 3663   7.577   3.934   6.109  0.3537  0.0120 -0.0569
  738SOL     OW 3664   8.284   3.190   1.613 -0.1528 -0.1709  0.2731
  738SOL    HW1 3665   8.377   3.201   1.633  0.0562 -0.1069 -0.7191
  738SOL    HW2 3666   8.272   3.096   1.602  0.2827 -0.0081 -1.8608
  739SOL     OW 3667   4.823   6.891   5.854 -0.6980  0.2600 -0.6567
  739SOL    HW1 3668   4.769   6.828   5.901 -0.2081  1.1600  1.1791
  739SOL    HW2 3669   4.912   6.874   5.885 -0.4274  1.1877 -0.9110
  740SOL     OW 3670   7.590   1.773   6.081 -0.2351  0.2126 -0.3885
  740SOL    HW1 3671   7.581   1.711   6.008 -0.3213 -0.4567  0.1842
  740SOL    HW2 3672   7.544   1.731   6.154  3.4289 -1.2412  1.3530
  741SOL     OW 3673   5.959   8.291   8.959 -0.5804 -0.6688  0.0711
  741SOL    HW1 3674   5.873   8.332   8.960  0.3986  1.4879  0.3182
  741SOL    HW2 3675   5.979   8.279   8.866  0.2422  2.0203 -0.1669
  742SOL     OW 3676   8.229   7.340   7.962 -0.1885 -0.3267 -0.2248
  742SOL    HW1 3677   8.320   7.355   7.938 -1.1111  2.2614 -2.6682
  742SOL    HW2 3678   8.212   7.249   7.937  2.1697 -1.6561  2.3986
  743SOL     OW 3679   6.041   4.076   2.960 -0.5647 -0.4141  0.1464
  743SOL    HW1 3680   6.020   4.000   3.014  1.0911 -1.4073 -0.5152
  743SOL    HW2 3681   6.084   4.137   3.019 -0.5725 -0.6305  0.3765
  744SOL     OW 3682   7.346   7.242   6.076  0.0237 -0.2724  0.0667
  744SOL    HW1 3683   7.337   7.337   6.080  0.7978 -0.0148 -2.5055
  744SOL    HW2 3684   7.441   7.226   6.078 -0.1183 -1.0618  1.2868
  745SOL     OW 3685   0.818   4.972   2.744 -0.3373  0.0980  0.4739
  745SOL    HW1 3686   0.812   4.877   2.728  1.0531  0.1610 -0.6586
  745SOL    HW2 3687   0.887   5.001   2.685 -0.2007  1.7019  1.3840
  746SOL     OW 3688   2.000   8.460   2.871 -0.3398 -0.0390  0.1266
  746SOL    HW1 3689   2.086   8.466   2.913 -0.3919 -0.0622  0.2372
  746SOL    HW2 3690   1.947   8.528   2.914 -0.4689 -0.2339  0.2806
  747SOL     OW 3691   7.929   8.793   5.480  0.4439 -0.0210 -0.7111
  747SOL    HW1 3692   7.999   8.858   5.485  0.8904 -0.4959 -0.7586
  747SOL    HW2 3693   7.904   8.790   5.387 -1.8904  2.4984 -0.2986
  748SOL     OW 3694   2.925   3.416   8.734  0.3304 -0.1268  0.1884
  748SOL    HW1 3695   2.929   3.504   8.697 -1.8466 -0.3785 -0.7877
  748SOL    HW2 3696   2.833   3.392   8.728  0.9336 -2.6534 -0.0100
  749SOL     OW 3697   4.309   8.678   4.404 -0.2545 -0.7339 -0.4620
  749SOL    HW1 3698   4.237   8.738   4.387  0.5154  0.0228 -1.1388
  749SOL    HW2 3699   4.268   8.603   4.447 -1.3427 -0.0528 -0.2770
  750SOL     OW 3700   8.877   2.077   2.601 -0.1128  0.1913  0.2521
  750SOL    HW1 3701   8.909   2.088   2.511 -0.2320 -0.3339  0.1403
  750SOL    HW2 3702   8.782   2.085   2.592 -0.0683  1.2042  0.5003
  751SOL     OW 3703   0.918   3.529   6.708 -0.0850  0.2572  0.3545
  751SOL    HW1 3704   0.959   3.445   6.728  0.2099  0.5778  1.1609
  751SOL    HW2 3705   0.982   3.594   6.736  0.1268  0.7586 -1.2206
  752SOL     OW 3706   3.333   7.402   6.308 -0.0666  0.1182  0.2135
  752SOL    HW1 3707   3.352   7.327   6.251  1.4318 -1.4237  2.5347
  752SOL    HW2 3708   3.240   7.394   6.328 -0.2340 -0.2859 -0.6836
  753SOL     OW 3709   8.059   6.630   0.523  0.3453  0.0159  0.6613
  753SOL    HW1 3710   8.133   6.614   0.582  1.6109  0.3782 -0.7702
  753SOL    HW2 3711   8.089   6.598   0.438 -0.5750  1.5545 -0.2830
  754SOL     OW 3712   2.531   2.411   0.735  0.5891 -0.1435  0.4089
  754SOL    HW1 3713   2.516   2.487   0.680  0.6212 -0.3918  0.0551
  754SOL    HW2 3714   2.505   2.336   0.681 -0.7710 -0.3058  1.2245
  755SOL     OW 3715   6.218   8.330   0.415  0.1226  0.5199  0.3121
  755SOL    HW1 3716   6.257   8.349   0.500  1.0013  1.8485 -0.3705
  755SOL    HW2 3717   6.251   8.398   0.357  1.6666 -1.8236 -1.7510
  756SOL     OW 3718   4.291   5.848   3.394  0.2144  0.0722 -0.5544
  756SOL    HW1 3719   4.381   5.818   3.383  0.2753 -0.2160  0.6056
  756SOL    HW2 3720   4.240   5.767   3.397 -0.3047  0.2612 -2.7523
  757SOL     OW 3721   6.797   5.528   0.642  0.0494  0.2669 -0.1623
  757SOL    HW1 3722   6.815   5.544   0.550  2.8145 -2.9491 -0.3735
  757SOL    HW2 3723   6.874   5.563   0.687  0.0951 -0.7942  0.6065
  758SOL     OW 3724   4.273   2.046   8.445 -0.8698 -0.3898  0.3493
  758SOL    HW1 3725   4.345   2.026   8.505 -0.3264 -0.6966 -0.3866
  758SOL    HW2 3726   4.226   1.963   8.436 -0.7165 -0.4435  0.0442
  759SOL     OW 3727   2.903   0.674   6.199  0.0349  0.2351 -0.1334
  759SOL    HW1 3728   2.983   0.701   6.153 -0.5501 -0.9978 -1.9926
  759SOL    HW2 3729   2.932   0.605   6.259  0.5686  0.6974  0.1423
  760SOL     OW 3730   8.590   1.321   7.450 -0.5036 -0.1979  0.0030
  760SOL    HW1 3731   8.520   1.288   7.506 -0.2539 -0.6346  0.0723
  760SOL    HW2 3732   8.560   1.407   7.421 -0.5723  0.1114  0.9354
  761SOL     OW 3733   5.169   5.061   8.300 -0.2309 -0.1426  0.0533
  761SOL    HW1 3734   5.253   5.106   8.304  0.3858 -1.2644 -0.0519
  761SOL    HW2 3735   5.147   5.042   8.392  0.4174 -1.2673 -0.0157
  762SOL     OW 3736   1.434   7.557   4.852 -0.3780  0.0591  0.0559
  762SOL    HW1 3737   1.474   7.540   4.938  0.5501 -1.5753 -0.6470
  762SOL    HW2 3738   1.490   7.510   4.790 -1.9812 -0.1900 -1.2684
  763SOL     OW 3739   7.017   2.309   7.331  0.0787  0.2536  0.2932
  763SOL    HW1 3740   6.935   2.305   7.380 -0.1041  1.3490  0.1075
  763SOL    HW2 3741   7.026   2.401   7.307  1.3305  0.1340  0.2358
  764SOL     OW 3742   7.892   5.410   2.936 -0.2829 -0.0031  0.2357
  764SOL    HW1 3743   7.938   5.493   2.925  1.0212 -0.7335 -0.0963
  764SOL    HW2 3744   7.849   5.395   2.851  0.6382 -0.3249 -0.1845
  765SOL     OW 3745   0.854   6.538   6.978  0.7209  0.2659 -0.0679
  765SOL    HW1 3746   0.797   6.555   7.052  0.1532  1.4048 -0.7280
  765SOL    HW2 3747   0.901   6.621   6.964  1.0855 -0.0418 -0.7419
  766SOL     OW 3748   2.350   1.013   1.033  0.0434  0.2477  0.4322
  766SOL    HW1 3749   2.381   0.945   0.973 -1.9223 -0.1733 -0.1870
  766SOL    HW2 3750   2.430   1.052   1.069  1.2412 -0.8868 -0.8838
  767SOL     OW 3751   0.435   6.649   7.030 -0.1238  0.2155 -0.5289
  767SOL    HW1 3752   0.501   6.581   7.020  1.1994  1.3008  0.3605
  767SOL    HW2 3753   0.486   6.728   7.053 -1.7097  1.1392 -0.0539
  768SOL     OW 3754   5.553   6.031   8.343 -0.3109 -0.1884  0.1950
  768SOL    HW1 3755   5.637   6.075   8.335  1.1851 -2.8003  0.2395
  768SOL    HW2 3756   5.491   6.100   8.368  1.7081  1.8859 -0.2164
  769SOL     OW 3757   0.858   7.001   6.908  0.2833  0.0676  0.4742
  769SOL    HW1 3758   0.866   7.016   7.002  0.0500  0.5828  0.4166
  769SOL    HW2 3759   0.878   6.908   6.896 -0.4808 -0.1875  1.1276
  770SOL     OW 3760   8.638   0.620   9.172  0.0135 -0.2384 -0.2009
  770SOL    HW1 3761   8.732   0.606   9.172  0.3111  1.4390 -1.2515
  770SOL    HW2 3762   8.609   0.589   9.086 -0.1017  0.7805 -0.5427
  771SOL     OW 3763   2.728   2.332   0.475 -0.7355 -0.5644 -0.0846
  771SOL    HW1 3764   2.692   2.419   0.456  0.5697  0.9447  3.5187
  771SOL    HW2 3765   2.655   2.284   0.513 -1.0466 -0.5014 -0.5869
  772SOL     OW 3766   6.483   9.164   8.804  0.1290 -0.5901 -0.5833
  772SOL    HW1 3767   6.389   9.171   8.817  0.2652  0.4086 -0.1028
  772SOL    HW2 3768   6.512   9.099   8.868 -0.3607 -1.6704 -1.4220
  773SOL     OW 3769   3.273   4.991   6.429 -0.4424 -0.1007  0.1595
  773SOL    HW1 3770   3.223   5.044   6.491 -0.2663 -1.3935  1.4309
  773SOL    HW2 3771   3.363   4.993   6.462  0.2385  1.4592 -1.6095
  774SOL     OW 3772   7.416   5.149   8.461 -0.2590 -0.2510 -0.0096
  774SOL    HW1 3773   7.360   5.162   8.538 -1.2127 -1.4775 -0.4688
  774SOL    HW2 3774   7.505   5.160   8.495 -0.7088  2.5942  0.5659
  775SOL     OW 3775   3.397   1.853   8.187 -0.2039  0.1184 -0.3417
  775SOL    HW1 3776   3.376   1.761   8.169 -0.5394  0.4161 -1.5361
  775SOL    HW2 3777   3.336   1.878   8.256 -0.1359 -0.5419 -0.0350
  776SOL     OW 3778   1.661   6.058   1.976 -0.3847 -0.4526 -0.2322
  776SOL    HW1 3779   1.607   5.983   1.999 -1.0437  0.0812 -0.0220
  776SOL    HW2 3780   1.665   6.110   2.056 -0.1863 -0.1069 -0.4654
  777SOL     OW 3781   0.673   0.089   4.421  0.2315  0.2955 -0.1854
  777SOL    HW1 3782   0.670   0.107   4.515 -2.6556  2.5844 -0.5703
  777SOL    HW2 3783   0.584   0.062   4.398  1.1405 -1.3467 -2.1320
  778SOL     OW 3784   1.328   0.635   5.437 -0.0785  0.4391  0.4933
  778SOL    HW1 3785   1.277   0.605   5.362  0.8765  0.0739 -0.0192
  778SOL    HW2 3786   1.376   0.711   5.404 -1.3005  1.6467  1.3521
  779SOL     OW 3787   5.739   2.492   2.816 -0.2201  0.1999  0.4120
  779SOL    HW1 3788   5.669   2.481   2.752 -1.0283  1.2703  1.0729
  779SOL    HW2 3789   5.759   2.585   2.814 -0.9705  0.4689  2.3792
  780SOL     OW 3790   5.805   2.108   4.574  0.9121  1.2611 -0.6362
  780SOL    HW1 3791   5.766   2.064   4.498  1.0984  1.6364 -0.9502
  780SOL    HW2 3792   5.895   2.126   4.547  1.4127  0.1116  0.1983
  781SOL     OW 3793   1.855   2.291   3.322  0.0690  0.2980 -0.4320
  781SOL    HW1 3794   1.936   2.337   3.340 -0.5573  1.5285 -0.6447
  781SOL    HW2 3795   1.788   2.359   3.322 -0.6741 -0.3601 -2.3839
  782SOL     OW 3796   7.733   5.576   6.095 -0.2171  0.1042 -0.4235
  782SOL    HW1 3797   7.701   5.666   6.090  1.0488  0.5980  0.1457
  782SOL    HW2 3798   7.818   5.578   6.051 -0.9246 -1.2093 -1.9847
  783SOL     OW 3799   4.593   5.805   9.138  0.1834 -0.2487 -0.0687
  783SOL    HW1 3800   4.508   5.849   9.139  0.1754 -0.0786 -2.1697
  783SOL    HW2 3801   4.626   5.812   9.227 -1.7665  0.1487  0.6582
  784SOL     OW 3802   5.842   3.706   0.830  0.1076  0.1034 -0.1123
  784SOL    HW1 3803   5.747   3.718   0.839 -0.2203 -2.2985  0.1433
  784SOL    HW2 3804   5.876   3.727   0.917 -0.1669  0.9077 -0.1833
  785SOL     OW 3805   7.608   8.961   0.872  0.2182  0.1672  0.4885
  785SOL    HW1 3806   7.616   8.867   0.889 -1.5772 -0.3819 -1.1972
  785SOL    HW2 3807   7.697   8.991   0.855  0.6497 -1.6957 -0.8764
  786SOL     OW 3808   2.941   5.249   2.288 -0.4483  0.2404  0.3280
  786SOL    HW1 3809   3.016   5.272   2.233  0.8483  0.9575  2.3132
  786SOL    HW2 3810   2.969   5.169   2.333 -1.1795  0.1011  0.5403
  787SOL     OW 3811   2.789   1.263   9.130  0.2637  0.3871 -0.0881
  787SOL    HW1 3812   2.775   1.200   9.200  2.9807  0.6863  0.8521
  787SOL    HW2 3813   2.763   1.347   9.167  1.4743  0.5092  0.5442
  788SOL     OW 3814   7.701   7.721   2.705 -0.7082 -0.5284 -0.0579
  788SOL    HW1 3815   7.618   7.734   2.660  0.2918  0.6500 -1.6928
  788SOL    HW2 3816   7.710   7.798   2.761  0.4392  0.7948 -1.9171
  789SOL     OW 3817   9.147   7.219   6.038 -0.0348  0.2663  0.2387
  789SOL    HW1 3818   9.227   7.266   6.059  1.8856 -0.2215 -4.5805
  789SOL    HW2 3819   9.078   7.285   6.046  1.1957  1.4404  1.9543
  790SOL     OW 3820   8.818   8.980   8.375 -0.3354  0.2292 -0.3157
  790SOL    HW1 3821   8.784   8.997   8.463  1.1411  0.4213  0.2402
  790SOL    HW2 3822   8.893   9.038   8.367 -0.5672  0.3675 -1.8027
  791SOL     OW 3823   7.859   9.051   3.064 -0.1052  0.2459 -0.6300
  791SOL    HW1 3824   7.825   8.966   3.091  0.5640  0.4702  1.0228
  791SOL    HW2 3825   7.848   9.107   3.140 -1.2861  1.9040 -1.9650
  792SOL     OW 3826   1.523   5.530   3.707 -0.1995 -0.2571 -0.2431
  792SOL    HW1 3827   1.489   5.618   3.724  0.0839 -0.1163 -0.3882
  792SOL    HW2 3828   1.494   5.478   3.783 -0.5336 -0.0877 -0.2545
  793SOL     OW 3829   1.901   7.075   8.174 -0.2455  0.2249  0.3725
  793SOL    HW1 3830   1.900   7.103   8.266  2.1616  0.2955  0.4410
  793SOL    HW2 3831   1.830   7.012   8.167  1.7222 -2.6170  3.2816
  794SOL     OW 3832   1.297   6.926   7.114 -0.4350  0.1885  0.2907
  794SOL    HW1 3833   1.257   7.004   7.077  0.6280  0.4914 -0.2660
  794SOL    HW2 3834   1.297   6.862   7.043  0.1724  0.2425  0.2319
  795SOL     OW 3835   1.034   0.286   2.807 -0.2993  0.1736 -0.1268
  795SOL    HW1 3836   1.116   0.251   2.770 -0.1622  1.9247 -1.6244
  795SOL    HW2 3837   0.996   0.212   2.854  1.2213 -1.2222 -0.9709
  796SOL     OW 3838   7.159   4.880   4.478  0.0461 -0.1876 -0.2887
  796SOL    HW1 3839   7.106   4.908   4.404 -0.2705 -0.0622 -0.0187
  796SOL    HW2 3840   7.249   4.898   4.452 -0.1976  2.5159  0.4432
  797SOL     OW 3841   8.490   8.969   4.802 -0.4322  0.4117 -0.0927
  797SOL    HW1 3842   8.401   9.000   4.818 -0.6962 -0.7222  0.7886
  797SOL    HW2 3843   8.528   8.961   4.889  1.0532  2.2738 -0.5168
  798SOL     OW 3844   1.199   0.180   1.251  0.0195  0.5614  0.0322
  798SOL    HW1 3845   1.123   0.238   1.260  0.1488  0.4929  1.9999
  798SOL    HW2 3846   1.168   0.095   1.282  0.3778  0.0316 -1.0045
  799SOL     OW 3847   7.766   0.441   4.399  0.4063 -0.7976  0.1216
  799SOL    HW1 3848   7.837   0.423   4.338  1.0192  1.3175  0.1236
  799SOL    HW2 3849   7.787   0.388   4.476  1.9103 -0.3454  0.0617
  800SOL     OW 3850   8.800   0.471   1.929 -0.3233  0.0092 -0.0660
  800SOL    HW1 3851   8.720   0.447   1.976 -0.0146  0.2935  0.6137
  800SOL    HW2 3852   8.859   0.503   1.996 -0.5753  2.3656 -0.8548
  801SOL     OW 3853   3.202   9.263   7.789  0.2574  0.3577  0.0902
  801SOL    HW1 3854   3.152   9.219   7.720 -2.0111  0.8318  1.3473
  801SOL    HW2 3855   3.192   9.356   7.770  1.9247  0.4505 -0.4507
  802SOL     OW 3856   3.557   9.204   5.888 -0.2581 -0.3537 -0.2204
  802SOL    HW1 3857   3.492   9.251   5.940 -0.4052 -0.4956 -0.2764
  802SOL    HW2 3858   3.516   9.120   5.868 -0.5634  0.0464 -1.3379
  803SOL     OW 3859   8.113   7.135   5.145 -0.2094  0.5549  0.0785
  803SOL    HW1 3860   8.204   7.105   5.141 -1.0324 -2.0691 -0.5670
  803SOL    HW2 3861   8.063   7.058   5.170 -2.3194  1.8495  0.0722
  804SOL     OW 3862   0.684   0.195   4.072 -0.3189 -0.0809 -0.5698
  804SOL    HW1 3863   0.701   0.286   4.047  0.2446  0.0571  0.3009
  804SOL    HW2 3864   0.606   0.199   4.127  0.0807 -0.0407 -0.0004
  805SOL     OW 3865   0.641   8.180   6.111  0.2387  0.6923 -0.6514
  805SOL    HW1 3866   0.555   8.143   6.090  0.7648  0.1260 -1.9263
  805SOL    HW2 3867   0.699   8.146   6.043  1.3776  1.4734 -0.1081
  806SOL     OW 3868   2.549   1.075   3.404  0.3435 -0.2869  0.1812
  806SOL    HW1 3869   2.531   1.154   3.454 -0.6524 -1.5870  2.0126
  806SOL    HW2 3870   2.608   1.024   3.459  0.8598 -0.9075 -0.9029
  807SOL     OW 3871   3.640   8.175   4.678  0.0696  0.0935 -0.2357
  807SOL    HW1 3872   3.638   8.131   4.763  1.3750 -2.3265 -1.3693
  807SOL    HW2 3873   3.718   8.230   4.682 -0.9015  1.4716  0.7519
  808SOL     OW 3874   7.320   6.511   0.008 -0.7530 -0.6177  0.5621
  808SOL    HW1 3875   7.256   6.576  -0.020 -0.1827  0.0269  0.7216
  808SOL    HW2 3876   7.324   6.448  -0.065  0.7549  1.0601 -0.9195
  809SOL     OW 3877   8.164   2.704   4.850  0.0893  0.4465  0.5262
  809SOL    HW1 3878   8.132   2.750   4.927  0.1651  1.7009 -0.1742
  809SOL    HW2 3879   8.144   2.612   4.867 -1.7421  0.9222  1.1517
  810SOL     OW 3880   5.954   2.671   4.880 -0.4920  0.1760  0.5162
  810SOL    HW1 3881   6.031   2.625   4.914 -0.2428  0.6399  0.5961
  810SOL    HW2 3882   5.880   2.634   4.928 -0.2821 -0.0599  0.6559
  811SOL     OW 3883   2.681   6.369   1.317 -0.3431  0.2893  0.0505
  811SOL    HW1 3884   2.608   6.307   1.324 -0.6586  0.5580 -0.6993
  811SOL    HW2 3885   2.684   6.391   1.224 -0.4134  1.6086  0.3450
  812SOL     OW 3886   6.701   8.868   6.583  0.2304  0.7357  0.0636
  812SOL    HW1 3887   6.639   8.809   6.627 -0.3213  1.7703  0.7009
  812SOL    HW2 3888   6.779   8.867   6.638  0.6744 -0.2713 -0.5393
  813SOL     OW 3889   3.420   2.895   6.276 -0.5166  0.0106  0.3531
  813SOL    HW1 3890   3.354   2.958   6.302 -1.0885 -0.4726  0.1036
  813SOL    HW2 3891   3.468   2.874   6.357 -0.2151  0.8726  0.4020
  814SOL     OW 3892   1.519   8.965   2.918 -0.3771  0.4373 -0.1187
  814SOL    HW1 3893   1.479   8.981   2.832  0.1436 -2.3243 -0.9784
  814SOL    HW2 3894   1.448   8.980   2.980 -1.2515  0.8198 -1.1654
  815SOL     OW 3895   7.780   4.572   5.193  0.4171 -0.1867 -0.3237
  815SOL    HW1 3896   7.793   4.634   5.265  1.6572 -2.0684  1.1804
  815SOL    HW2 3897   7.787   4.486   5.234 -5.0746 -1.6021 -1.5495
  816SOL     OW 3898   0.274   1.184   7.167 -0.2513  0.2399  0.3884
  816SOL    HW1 3899   0.290   1.243   7.241  0.8359 -0.1702  0.4984
  816SOL    HW2 3900   0.186   1.150   7.182  0.3137 -0.6113  2.0619
  817SOL     OW 3901   4.918   5.497   7.639  0.1930  0.0502 -0.7794
  817SOL    HW1 3902   4.851   5.507   7.706  0.1101 -1.0566 -0.6958
  817SOL    HW2 3903   4.892   5.558   7.570 -1.5486 -1.1957 -1.2683
  818SOL     OW 3904   1.901   3.404   3.327 -0.1278  0.0904  0.6265
  818SOL    HW1 3905   1.940   3.491   3.317  1.6042 -0.8313 -1.6548
  818SOL    HW2 3906   1.923   3.377   3.416  0.0660  1.6188  1.0678
  819SOL     OW 3907   3.914   4.672   5.815 -0.1089 -0.4390  0.1568
  819SOL    HW1 3908   3.987   4.728   5.791  0.6466 -1.4731 -0.0411
  819SOL    HW2 3909   3.849   4.686   5.747  0.3776 -0.3577 -0.2967
  820SOL     OW 3910   3.523   8.500   4.923  0.4619 -0.7984  0.2565
  820SOL    HW1 3911   3.520   8.470   4.833 -0.6388 -1.9619  0.6477
  820SOL    HW2 3912   3.435   8.484   4.957  0.2925  1.3641  1.0014
  821SOL     OW 3913   9.124   1.261   2.809  0.3643  0.2007  0.1780
  821SOL    HW1 3914   9.056   1.197   2.830  0.8877 -0.4313 -0.0271
  821SOL    HW2 3915   9.122   1.322   2.883 -2.2386  1.7610 -1.0541
  822SOL     OW 3916   8.207   0.774   4.826  0.5638 -0.3080  0.1355
  822SOL    HW1 3917   8.187   0.866   4.806 -0.3581 -0.6251 -0.4982
  822SOL    HW2 3918   8.153   0.724   4.764  1.0734 -1.2781  0.4522
  823SOL     OW 3919   7.977   3.772   6.644  0.2985 -0.4116  0.1235
  823SOL    HW1 3920   7.918   3.731   6.581  0.4138  1.1747 -1.0717
  823SOL    HW2 3921   8.036   3.825   6.591  0.6285  0.7045  1.5409
  824SOL     OW 3922   6.675   8.088   3.556 -0.7094  0.1664  0.0449
  824SOL    HW1 3923   6.709   8.100   3.645 -0.9586 -0.2425  0.1994
  824SOL    HW2 3924   6.735   8.138   3.501 -1.2888  1.5017  0.5672
  825SOL     OW 3925   5.782   3.543   5.935 -0.1863  0.4754 -0.1270
  825SOL    HW1 3926   5.797   3.480   6.005  2.2041 -0.5170 -1.4071
  825SOL    HW2 3927   5.697   3.583   5.956  0.2825  0.0492  3.1348
  826SOL     OW 3928   6.421   6.726   4.222 -0.0245 -0.2417 -0.3394
  826SOL    HW1 3929   6.473   6.647   4.211  0.1459 -0.2255  0.3232
  826SOL    HW2 3930   6.412   6.761   4.133  2.6025  0.7169 -0.2951
  827SOL     OW 3931   1.856   2.523   5.167 -0.3549  0.0010  0.1208
  827SOL    HW1 3932   1.946   2.492   5.171 -0.3015 -0.0013 -0.7990
  827SOL    HW2 3933   1.803   2.448   5.193 -0.1548 -0.4223 -0.6746
  828SOL     OW 3934   4.104   0.216   9.197 -0.5378  0.2234 -0.1093
  828SOL    HW1 3935   4.020   0.218   9.243  0.2138 -0.9077  1.4117
  828SOL    HW2 3936   4.169   0.235   9.265  0.5833 -0.9149 -0.8117
  829SOL     OW 3937   1.441   3.088   2.186 -0.1986 -0.1046  0.5734
  829SOL    HW1 3938   1.412   3.167   2.142 -1.1244 -1.2116 -0.9194
  829SOL    HW2 3939   1.522   3.063   2.140 -1.1189 -1.2153 -0.5069
  830SOL     OW 3940   1.329   0.966   3.333  0.2695  0.3061 -0.1392
  830SOL    HW1 3941   1.292   0.974   3.420 -2.0414  0.2782 -1.0553
  830SOL    HW2 3942   1.285   1.034   3.281  2.0891  0.7938 -1.1684
  831SOL     OW 3943   8.391   0.292   6.755  0.0326 -0.3391 -0.4784
  831SOL    HW1 3944   8.406   0.310   6.662  1.3282  0.9656 -0.0541
  831SOL    HW2 3945   8.307   0.334   6.773 -2.3887 -4.0384 -1.8908
  832SOL     OW 3946   8.394   4.126   6.693  0.0870  0.2893 -0.5517
  832SOL    HW1 3947   8.343   4.196   6.734 -0.1644  0.3834 -1.0166
  832SOL    HW2 3948   8.438   4.169   6.620  0.7251  0.1776 -0.2377
  833SOL     OW 3949   1.775   0.112   0.582  0.1904 -0.5186  0.0415
  833SOL    HW1 3950   1.823   0.034   0.610  1.7896  1.4153  3.3860
  833SOL    HW2 3951   1.828   0.150   0.513  2.6821  0.5491  2.3700
  834SOL     OW 3952   8.018   1.218   9.080 -0.1208  0.2782  0.5711
  834SOL    HW1 3953   8.097   1.210   9.133 -0.2100  1.4394  0.9062
  834SOL    HW2 3954   7.951   1.170   9.129 -0.0844  0.9245  1.2576
  835SOL     OW 3955   7.146   8.858   3.359 -0.3853  0.1108 -0.7457
  835SOL    HW1 3956   7.210   8.891   3.296  1.3976  2.2102  1.9287
  835SOL    HW2 3957   7.099   8.936   3.388 -0.4745 -0.6087  1.1774
  836SOL     OW 3958   1.896   0.433   1.654 -0.2811 -0.0639  0.0198
  836SOL    HW1 3959   1.897   0.361   1.717 -0.8661 -1.5050 -1.5099
  836SOL    HW2 3960   1.953   0.500   1.692 -2.2642  0.0926  3.0550
  837SOL     OW 3961   7.478   2.521   8.217  0.2866  0.4929  0.0600
  837SOL    HW1 3962   7.483   2.596   8.275  2.3795  0.6340 -0.2025
  837SOL    HW2 3963   7.438   2.452   8.269  0.5214  1.1216  1.0933
  838SOL     OW 3964   0.216   6.867   4.694  0.5209 -0.7366 -0.3283
  838SOL    HW1 3965   0.225   6.809   4.769 -0.9175 -1.0393 -0.3674
  838SOL    HW2 3966   0.280   6.937   4.710  1.4766 -1.7225  0.2740
  839SOL     OW 3967   0.757   8.479   1.895  0.6498  0.5266  0.4890
  839SOL    HW1 3968   0.813   8.540   1.847  0.4633  0.7830  0.5933
  839SOL    HW2 3969   0.797   8.393   1.882 -0.2011  0.3558 -1.3330
  840SOL     OW 3970   3.507   6.110   8.947 -0.1469  0.3769  0.4647
  840SOL    HW1 3971   3.411   6.107   8.938 -0.1185 -0.0265  0.2565
  840SOL    HW2 3972   3.527   6.201   8.966 -0.5748  0.4654  0.4966
  841SOL     OW 3973   6.001   6.418   3.270 -0.0353 -0.4453  0.1370
  841SOL    HW1 3974   5.938   6.467   3.217 -1.9072 -2.4355  0.3831
  841SOL    HW2 3975   5.983   6.446   3.360 -0.6046 -1.0210  0.2084
  842SOL     OW 3976   5.210   9.069   4.646  0.4132  0.2441  0.4060
  842SOL    HW1 3977   5.301   9.091   4.667  0.9398 -1.2197 -0.1263
  842SOL    HW2 3978   5.172   9.043   4.730  0.8698 -0.3331  0.4439
  843SOL     OW 3979   5.893   0.995   3.944 -1.0631  0.3046  0.0743
  843SOL    HW1 3980   5.952   1.056   3.899  0.5777 -1.0372  0.3375
  843SOL    HW2 3981   5.933   0.981   4.030 -3.9539  2.5448  2.0031
  844SOL     OW 3982   3.927   7.155   1.641 -0.3561 -0.2918 -0.0160
  844SOL    HW1 3983   3.929   7.140   1.736 -2.1734 -2.0108 -0.1852
  844SOL    HW2 3984   3.879   7.237   1.631 -0.5771 -0.3499  0.5403
  845SOL     OW 3985   9.095   2.172   6.302 -0.0074 -0.9178  0.2560
  845SOL    HW1 3986   9.044   2.234   6.250  0.2919  0.3512  1.4250
  845SOL    HW2 3987   9.081   2.199   6.392  1.1785 -1.7547  0.7148
  846SOL     OW 3988   4.029   2.987   4.591  0.6180 -0.0438  0.0069
  846SOL    HW1 3989   3.964   3.040   4.547  1.3426  2.0288  1.2929
  846SOL    HW2 3990   4.032   2.906   4.540  1.0126  1.9110 -3.4095
  847SOL     OW 3991   4.763   1.815   8.164 -0.1227 -0.9266 -0.4307
  847SOL    HW1 3992   4.675   1.797   8.130 -0.3164 -1.4506  0.3193
  847SOL    HW2 3993   4.751   1.894   8.217 -0.1562 -1.0328 -0.2794
  848SOL     OW 3994   8.597   5.947   6.882  0.1341 -0.1371  0.0335
  848SOL    HW1 3995   8.524   5.914   6.934 -1.1384  1.9515 -0.2957
  848SOL    HW2 3996   8.663   5.973   6.946 -0.1892 -0.3209  0.4414
  849SOL     OW 3997   5.164   7.073   7.182  0.5134  0.6254  0.6411
  849SOL    HW1 3998   5.078   7.103   7.153 -1.0305 -2.7016  1.2939
  849SOL    HW2 3999   5.208   7.044   7.101  0.2992  0.6390  0.5202
  850SOL     OW 4000   6.946   4.892   1.652  0.1260  0.1081  0.2055
  850SOL    HW1 4001   6.953   4.821   1.717  0.5439  0.6639  0.7841
  850SOL    HW2 4002   6.907   4.850   1.575 -0.9896 -0.4278  1.0317
  851SOL     OW 4003   2.200   6.092   0.804  0.3915  0.7529 -0.2759
  851SOL    HW1 4004   2.123   6.140   0.833  1.2352  2.7348 -1.1186
  851SOL    HW2 4005   2.259   6.093   0.879 -1.4685 -3.6091  1.5767
  852SOL     OW 4006   4.557   8.479   5.478  0.4132 -0.2587 -0.0468
  852SOL    HW1 4007   4.633   8.528   5.508  0.4232 -0.7984  0.8560
  852SOL    HW2 4008   4.562   8.395   5.525 -1.5373  0.2587  1.2291
  853SOL     OW 4009   8.862   2.424   6.945 -0.7768  0.0762 -0.0833
  853SOL    HW1 4010   8.926   2.405   7.013 -2.3752 -0.2043  1.4215
  853SOL    HW2 4011   8.853   2.342   6.896  1.1875  0.5881 -1.4217
  854SOL     OW 4012   3.802   7.223   6.831 -0.2468  0.2009  0.1515
  854SOL    HW1 4013   3.802   7.185   6.919 -0.7689 -1.3838 -0.5084
  854SOL    HW2 4014   3.864   7.170   6.782  0.0564  1.0857 -0.4585
  855SOL     OW 4015   7.626   6.585   1.953 -0.3890  0.7011 -0.3050
  855SOL    HW1 4016   7.557   6.547   2.007 -1.0536  1.5306 -0.5371
  855SOL    HW2 4017   7.708   6.553   1.992 -0.8626  0.8108  0.8309
  856SOL     OW 4018   0.948   4.399   2.009 -0.5584 -0.1970  0.2770
  856SOL    HW1 4019   0.881   4.450   2.053  0.3695  0.8647  0.5124
  856SOL    HW2 4020   0.999   4.464   1.959  1.2085 -0.7379  1.2887
  857SOL     OW 4021   6.884   3.456   6.247 -0.1286  0.0261 -0.1701
  857SOL    HW1 4022   6.874   3.363   6.228 -1.2713 -0.3127  1.7900
  857SOL    HW2 4023   6.893   3.497   6.161 -1.7360 -1.6606 -1.2163
  858SOL     OW 4024   8.018   0.668   5.027 -0.0611  0.0446 -0.0448
  858SOL    HW1 4025   8.063   0.588   4.999  0.0209  0.3299 -0.7444
  858SOL    HW2 4026   8.050   0.736   4.968  0.6406  0.8208  1.1823
  859SOL     OW 4027   5.964   9.270   1.074  0.5765  0.2535  0.4414
  859SOL    HW1 4028   5.894   9.312   1.123  0.4494 -1.4217  1.8164
  859SOL    HW2 4029   6.043   9.287   1.126  0.7095 -0.1999  0.3982
  860SOL     OW 4030   1.080   4.587   1.759 -0.2806  0.7606 -0.5505
  860SOL    HW1 4031   1.156   4.617   1.810 -1.4472  1.2612  0.9625
  860SOL    HW2 4032   1.115   4.571   1.671  1.4995  1.3095  0.0127
  861SOL     OW 4033   0.422   0.746   8.519  0.3187  0.1360  0.2507
  861SOL    HW1 4034   0.403   0.668   8.466  0.5741 -0.2658  0.7387
  861SOL    HW2 4035   0.463   0.807   8.458  0.4912 -0.2698 -0.0452
  862SOL     OW 4036   1.195   3.475   4.698 -0.2541  0.3568  0.5061
  862SOL    HW1 4037   1.220   3.383   4.700 -0.2210  0.3124 -0.9157
  862SOL    HW2 4038   1.200   3.503   4.789 -1.9770 -1.4770  1.2340
  863SOL     OW 4039   7.406   1.652   7.172  0.0167  0.1596  0.0654
  863SOL    HW1 4040   7.372   1.689   7.253 -1.7080 -0.8406 -0.1397
  863SOL    HW2 4041   7.425   1.560   7.193  0.5225  0.1558 -0.3902
  864SOL     OW 4042   5.670   0.737   2.107 -0.0066  0.1131 -0.4263
  864SOL    HW1 4043   5.670   0.812   2.166  0.9327 -0.3029  0.1300
  864SOL    HW2 4044   5.584   0.739   2.065 -0.7067  0.4319  0.9487
  865SOL     OW 4045   1.111   7.956   4.719  0.7649  0.9635  0.3821
  865SOL    HW1 4046   1.190   7.927   4.764  0.6532  1.2864  0.7920
  865SOL    HW2 4047   1.063   7.875   4.699 -0.1974  0.8753  2.6936
  866SOL     OW 4048   0.633   4.998   6.581 -0.5547 -0.2515  0.8628
  866SOL    HW1 4049   0.704   5.051   6.617  0.0763 -1.6568  1.7529
  866SOL    HW2 4050   0.659   4.907   6.599 -1.4732 -0.8968 -0.8404
  867SOL     OW 4051   8.006   1.384   1.737 -0.1494 -0.3280 -0.2737
  867SOL    HW1 4052   7.921   1.392   1.693 -0.1755  0.3367 -0.1071
  867SOL    HW2 4053   8.042   1.301   1.704 -1.1130 -0.9170  0.0907
  868SOL     OW 4054   8.192   1.254   2.003  0.9502 -0.2698 -0.1741
  868SOL    HW1 4055   8.180   1.328   1.943  0.8561 -0.3235 -0.2216
  868SOL    HW2 4056   8.186   1.294   2.090 -0.2202 -0.3815 -0.1834
  869SOL     OW 4057   1.385   5.944   3.399  0.0758 -0.3791  0.0784
  869SOL    HW1 4058   1.418   5.863   3.360  1.7363  1.0404 -1.7031
  869SOL    HW2 4059   1.464   5.990   3.429 -0.9003  0.1902  1.9192
  870SOL     OW 4060   7.030   5.471   1.182  0.1349 -0.0320 -0.0960
  870SOL    HW1 4061   7.080   5.392   1.164 -0.9309 -0.8199  0.2845
  870SOL    HW2 4062   6.996   5.458   1.271  0.8391  1.3431  0.3991
  871SOL     OW 4063   1.659   1.933   4.912 -0.3725  0.6339 -0.2480
  871SOL    HW1 4064   1.686   2.017   4.949  0.0546  0.6387 -0.5584
  871SOL    HW2 4065   1.741   1.892   4.884 -0.6866  0.7197 -1.3739
  872SOL     OW 4066   2.290   9.065   2.439 -0.2045 -0.6220 -0.4846
  872SOL    HW1 4067   2.363   9.052   2.379  0.7844  2.5213 -0.1554
  872SOL    HW2 4068   2.328   9.052   2.526 -0.9384 -2.3212 -0.3751
  873SOL     OW 4069   7.983   0.955   5.721  0.4438  0.7704  0.4439
  873SOL    HW1 4070   7.995   0.873   5.673 -2.1461  0.8213 -0.4255
  873SOL    HW2 4071   8.033   0.942   5.802  0.7821 -1.3168 -0.0233
  874SOL     OW 4072   8.902   1.504   2.645 -0.2483  0.9337  0.5618
  874SOL    HW1 4073   8.856   1.487   2.727  1.7935 -1.1014  1.3889
  874SOL    HW2 4074   8.965   1.573   2.667 -0.1428  0.8401  0.5596
  875SOL     OW 4075   6.197   4.306   9.247 -0.3070 -0.3019  0.3757
  875SOL    HW1 4076   6.132   4.342   9.187  1.0658  1.3682 -0.2157
  875SOL    HW2 4077   6.250   4.381   9.273  1.8664 -1.6809  0.2139
  876SOL     OW 4078   7.718   1.070   4.173  0.2515  0.1589 -0.4696
  876SOL    HW1 4079   7.700   0.976   4.175  0.2749  0.1533 -0.5084
  876SOL    HW2 4080   7.660   1.104   4.105  0.0356  0.2181 -0.2540
  877SOL     OW 4081   9.123   5.701   9.197 -0.0468  0.1402 -0.0096
  877SOL    HW1 4082   9.158   5.736   9.115  0.5775  1.2332  0.6966
  877SOL    HW2 4083   9.198   5.658   9.239 -0.6952 -1.7609 -0.6577
  878SOL     OW 4084   1.917   0.873   7.839 -0.0824 -0.2845  0.1992
  878SOL    HW1 4085   1.948   0.959   7.868  1.4545 -0.9735  0.7142
  878SOL    HW2 4086   1.967   0.811   7.892 -1.8414 -1.5065  0.5118
  879SOL     OW 4087   2.836   3.775   2.567  0.1457 -0.4307  0.0970
  879SOL    HW1 4088   2.843   3.680   2.555 -0.0362 -0.4800  0.3853
  879SOL    HW2 4089   2.908   3.810   2.514  0.8345 -0.7859  0.7725
  880SOL     OW 4090   0.247   5.051   4.791  0.0044 -0.1781  0.5566
  880SOL    HW1 4091   0.303   5.122   4.757 -0.8985  0.2927  0.0190
  880SOL    HW2 4092   0.306   4.998   4.844  1.0964 -0.0234 -0.4706
  881SOL     OW 4093   9.009   1.355   2.444  0.5205 -0.1524  0.4330
  881SOL    HW1 4094   8.966   1.425   2.494 -0.1957 -0.8542  0.8296
  881SOL    HW2 4095   8.997   1.276   2.498 -1.3478 -1.1968 -1.3449
  882SOL     OW 4096   8.708   1.605   8.938 -1.1484  0.1602  0.2604
  882SOL    HW1 4097   8.693   1.570   8.850  0.2537  2.9665 -1.2215
  882SOL    HW2 4098   8.620   1.609   8.977 -1.5816 -3.1049 -0.0938
  883SOL     OW 4099   4.664   7.540   8.117  0.4921  0.3248 -0.2627
  883SOL    HW1 4100   4.598   7.473   8.099  0.8463 -0.7338  2.1109
  883SOL    HW2 4101   4.650   7.605   8.048 -2.0746 -0.5531 -0.6948
  884SOL     OW 4102   8.515   7.982   8.260 -0.0185 -0.1046 -0.6638
  884SOL    HW1 4103   8.424   7.956   8.277  0.1565  0.0710  0.6493
  884SOL    HW2 4104   8.510   8.039   8.184 -0.9189 -0.6622 -1.0387
  885SOL     OW 4105   3.416   1.121   2.266 -0.5813  0.3985 -0.0397
  885SOL    HW1 4106   3.322   1.137   2.259 -0.5337  1.7421  1.6153
  885SOL    HW2 4107   3.436   1.139   2.358  1.5161  1.4187 -0.6350
  886SOL     OW 4108   6.223   1.827   0.766 -0.1988  0.1480 -0.4111
  886SOL    HW1 4109   6.221   1.875   0.683 -1.9745 -1.1016 -1.1451
  886SOL    HW2 4110   6.143   1.775   0.766  1.5429 -2.7878  0.3539
  887SOL     OW 4111   7.600   0.705   1.545 -0.2363  0.0734 -0.7301
  887SOL    HW1 4112   7.615   0.656   1.626 -0.0704  1.2080 -0.0543
  887SOL    HW2 4113   7.542   0.777   1.571  1.6033  1.7855 -1.1130
  888SOL     OW 4114   2.938   2.242   1.909 -0.4762  0.3723  0.5584
  888SOL    HW1 4115   3.007   2.176   1.912  0.8857  1.6252 -1.1739
  888SOL    HW2 4116   2.857   2.192   1.909  0.5136 -1.2995 -0.4644
  889SOL     OW 4117   2.646   6.966   7.194 -0.1553  0.0646  0.0371
  889SOL    HW1 4118   2.699   6.917   7.257 -0.0632  0.2106  0.0757
  889SOL    HW2 4119   2.685   6.947   7.109 -0.5391 -0.4652 -0.0211
  890SOL     OW 4120   7.669   4.097   1.945  0.2369 -0.5467 -0.3579
  890SOL    HW1 4121   7.650   4.123   1.854 -1.9236 -0.9421 -0.0802
  890SOL    HW2 4122   7.616   4.157   1.998 -1.8317 -2.9296  0.4383
  891SOL     OW 4123   0.918   0.751   0.097 -0.3119 -0.3485 -0.3018
  891SOL    HW1 4124   0.996   0.796   0.128 -0.0993 -0.7394 -0.2556
  891SOL    HW2 4125   0.933   0.659   0.120 -0.1642 -0.6436 -1.5196
  892SOL     OW 4126   0.661   2.755   4.845 -0.3459  0.5242  0.1457
  892SOL    HW1 4127   0.682   2.842   4.811 -1.6230  0.9920  0.4728
  892SOL    HW2 4128   0.605   2.716   4.779 -0.0021  0.0518  0.1286
  893SOL     OW 4129   4.034   2.868   6.974 -0.2757 -0.5749 -0.2201
  893SOL    HW1 4130   3.967   2.824   7.027  0.2155 -0.7595  0.2593
  893SOL    HW2 4131   4.075   2.797   6.925 -0.1005 -0.5304 -0.1377
  894SOL     OW 4132   2.396   3.835   4.540  0.0535 -0.0763 -0.3172
  894SOL    HW1 4133   2.456   3.765   4.569 -1.4216 -1.2781 -0.0371
  894SOL    HW2 4134   2.314   3.789   4.521 -1.0030  1.6255  0.0004
  895SOL     OW 4135   4.939   1.843   3.889  0.0266 -0.6360 -0.2504
  895SOL    HW1 4136   4.972   1.877   3.973 -0.8547 -2.8419  1.0913
  895SOL    HW2 4137   5.016   1.804   3.848  0.5264  0.7127 -0.6385
  896SOL     OW 4138   2.537   4.871   2.206  0.4220  0.0709 -0.0359
  896SOL    HW1 4139   2.556   4.778   2.218  0.0747 -0.4015 -2.5893
  896SOL    HW2 4140   2.455   4.872   2.157  0.3022  1.7348  0.1591
  897SOL     OW 4141   6.820   4.383   1.532 -0.0875 -0.3019 -0.5325
  897SOL    HW1 4142   6.902   4.335   1.544  0.3232  0.0725 -1.7364
  897SOL    HW2 4143   6.786   4.352   1.448 -0.1337  1.0389 -1.0324
  898SOL     OW 4144   0.650   3.169   3.183  0.2353 -0.2039  0.2246
  898SOL    HW1 4145   0.713   3.204   3.120  0.2757 -0.9267 -0.1475
  898SOL    HW2 4146   0.619   3.246   3.231 -0.3868  0.4803 -1.2090
  899SOL     OW 4147   6.069   6.225   6.750  0.2310  0.0539  0.3207
  899SOL    HW1 4148   6.056   6.236   6.656  0.1660 -1.0532  0.1838
  899SOL    HW2 4149   6.156   6.186   6.757 -1.3435 -3.9176  0.3650
  900SOL     OW 4150   5.858   1.053   2.726 -0.0516 -0.1185  0.2376
  900SOL    HW1 4151   5.818   0.971   2.755  0.7986 -0.1719  1.3525
  900SOL    HW2 4152   5.949   1.046   2.756 -0.4556  2.1071  2.2640
  901SOL     OW 4153   1.556   3.383   1.089  0.4632 -0.0929 -0.1885
  901SOL    HW1 4154   1.562   3.288   1.083  0.3801 -0.0212 -2.0925
  901SOL    HW2 4155   1.482   3.399   1.148  0.1134 -1.1980 -0.3005
  902SOL     OW 4156   4.257   8.178   7.512  0.1660  0.2573 -0.1576
  902SOL    HW1 4157   4.200   8.205   7.440 -0.2071  1.1935  0.4740
  902SOL    HW2 4158   4.260   8.082   7.506 -0.9417  0.2428 -0.5990
  903SOL     OW 4159   1.567   2.812   1.066 -0.3100  0.4360  0.3994
  903SOL    HW1 4160   1.515   2.763   1.129  1.2166  0.3067  1.6311
  903SOL    HW2 4161   1.637   2.751   1.042 -0.0117  1.0257 -0.2460
  904SOL     OW 4162   0.002   7.529   4.448 -0.1535 -0.6592 -0.2727
  904SOL    HW1 4163   0.037   7.448   4.411 -0.7539 -0.6851 -0.7989
  904SOL    HW2 4164   0.009   7.593   4.377  1.1120 -0.0077  0.4049
  905SOL     OW 4165   8.708   5.630   1.785 -0.5111 -0.1427  0.0385
  905SOL    HW1 4166   8.730   5.600   1.873  0.6891  1.2818  0.2503
  905SOL    HW2 4167   8.788   5.617   1.734 -0.8802 -0.0113 -0.5846
  906SOL     OW 4168   6.982   0.069   0.657  0.2353 -0.2821 -0.1357
  906SOL    HW1 4169   6.943   0.138   0.710 -0.0191 -0.6151  0.1181
  906SOL    HW2 4170   7.077   0.084   0.663  0.1992 -0.2143  0.2656
  907SOL     OW 4171   8.286   7.346   4.871  0.7581 -0.4734 -0.2915
  907SOL    HW1 4172   8.371   7.344   4.827  0.8134 -3.1242 -0.2084
  907SOL    HW2 4173   8.237   7.274   4.832  0.0923 -1.6859  2.5739
  908SOL     OW 4174   6.674   8.162   9.054 -0.1694 -0.1736 -0.1541
  908SOL    HW1 4175   6.719   8.134   9.133 -1.8819  0.0519  0.9318
  908SOL    HW2 4176   6.583   8.137   9.066 -0.5727  0.2878 -1.8512
  909SOL     OW 4177   8.968   6.289   8.511 -0.1819  0.3304  0.0272
  909SOL    HW1 4178   9.061   6.298   8.531 -0.2905  0.3985  0.5234
  909SOL    HW2 4179   8.956   6.336   8.429  0.3938 -0.4470 -0.5175
  910SOL     OW 4180   8.807   6.260   0.173 -0.1552  0.3881  0.0417
  910SOL    HW1 4181   8.894   6.295   0.156  0.3034  0.5078  2.3140
  910SOL    HW2 4182   8.772   6.315   0.243 -1.5697 -0.3856 -0.0206
  911SOL     OW 4183   2.177   3.867   7.348  0.1377  0.2713  0.7489
  911SOL    HW1 4184   2.244   3.882   7.282 -0.9457 -0.0285 -0.4506
  911SOL    HW2 4185   2.194   3.933   7.416  0.3537  1.5910 -0.5486
  912SOL     OW 4186   7.250   8.902   1.279 -0.6498  0.2460 -0.0713
  912SOL    HW1 4187   7.298   8.887   1.198  0.4927  0.5697  0.5226
  912SOL    HW2 4188   7.317   8.898   1.347 -1.5396  0.3043  0.8218
  913SOL     OW 4189   7.631   6.918   5.898  0.0462  0.3822 -0.0803
  913SOL    HW1 4190   7.567   6.927   5.828  0.5482 -3.0055 -1.1217
  913SOL    HW2 4191   7.582   6.885   5.973  0.2589 -0.5512 -0.3420
  914SOL     OW 4192   3.944   1.621   1.546 -0.0017 -0.0989  0.5467
  914SOL    HW1 4193   4.009   1.671   1.497 -0.8094  0.9019  0.4662
  914SOL    HW2 4194   3.944   1.534   1.506 -1.6309  1.0581 -2.2212
  915SOL     OW 4195   7.916   6.396   1.687 -0.6426 -0.4133 -0.7677
  915SOL    HW1 4196   7.857   6.391   1.612 -1.1442  1.5864 -0.5485
  915SOL    HW2 4197   7.860   6.376   1.762 -0.5233 -0.6924 -0.7488
  916SOL     OW 4198   8.308   7.641   4.918 -0.2556 -0.6094  0.2257
  916SOL    HW1 4199   8.272   7.555   4.899  1.1652 -0.9085 -1.3846
  916SOL    HW2 4200   8.262   7.700   4.859 -0.8633 -0.3233  0.9668
  917SOL     OW 4201   3.391   7.317   8.616 -0.2859  0.3945  0.0954
  917SOL    HW1 4202   3.317   7.374   8.595  0.2054  0.8345 -0.5050
  917SOL    HW2 4203   3.352   7.232   8.636 -0.8875  0.1985 -1.7084
  918SOL     OW 4204   8.307   0.531   0.291 -0.5623 -0.0830 -0.0398
  918SOL    HW1 4205   8.337   0.492   0.373  0.2004 -1.7456 -1.0487
  918SOL    HW2 4206   8.343   0.474   0.223 -2.0216  0.6451 -1.5031
  919SOL     OW 4207   6.764   6.654   5.654 -0.3036 -0.0366 -0.7285
  919SOL    HW1 4208   6.674   6.656   5.687 -0.4532 -0.8843 -1.0678
  919SOL    HW2 4209   6.763   6.587   5.587  0.7156 -0.4482 -0.3444
  920SOL     OW 4210   8.408   7.911   0.835  0.6800  0.0810  0.3492
  920SOL    HW1 4211   8.375   7.821   0.832 -0.4388  0.4706  0.5964
  920SOL    HW2 4212   8.440   7.928   0.747  0.4879 -0.3998  0.1843
  921SOL     OW 4213   5.856   6.039   5.071 -0.2297  0.1974 -0.0831
  921SOL    HW1 4214   5.807   5.964   5.039 -1.8539  1.7112 -1.3494
  921SOL    HW2 4215   5.802   6.074   5.142  0.5185  0.1833  0.5095
  922SOL     OW 4216   5.949   0.934   4.708 -0.5226  0.2501 -0.5364
  922SOL    HW1 4217   6.002   0.885   4.645 -0.3125 -0.1589 -0.0434
  922SOL    HW2 4218   5.901   0.867   4.756  0.0676  0.4887  0.4175
  923SOL     OW 4219   2.796   2.987   7.197  0.7287 -0.1726 -0.1302
  923SOL    HW1 4220   2.718   3.038   7.219 -0.4234 -1.2802 -1.4858
  923SOL    HW2 4221   2.866   3.028   7.248 -0.7684  0.6963  1.3189
  924SOL     OW 4222   2.241   1.355   2.314 -0.3672  0.1346 -0.2619
  924SOL    HW1 4223   2.323   1.378   2.359 -0.6111 -0.8842  0.7517
  924SOL    HW2 4224   2.268   1.319   2.230  0.3769 -1.9307  0.7895
  925SOL     OW 4225   5.489   4.897   7.248 -0.5270  0.2598  0.7325
  925SOL    HW1 4226   5.396   4.884   7.264 -0.5374 -1.0432 -0.1806
  925SOL    HW2 4227   5.513   4.826   7.188  0.7513  1.3737 -0.1353
  926SOL     OW 4228   1.638   3.332   0.563  0.3287  0.0887  0.1276
  926SOL    HW1 4229   1.574   3.395   0.529 -0.0915 -0.3793  0.0437
  926SOL    HW2 4230   1.598   3.246   0.548  0.4042 -0.1632  1.2270
  927SOL     OW 4231   4.764   4.400   1.197 -0.0366  0.5827  0.0238
  927SOL    HW1 4232   4.682   4.428   1.156 -0.1136 -0.4742 -0.5727
  927SOL    HW2 4233   4.832   4.429   1.136 -0.0070  0.8138  0.1632
  928SOL     OW 4234   4.105   6.778   4.358 -0.1813 -0.4334  0.2290
  928SOL    HW1 4235   4.014   6.809   4.359 -0.5980 -1.5554 -0.6272
  928SOL    HW2 4236   4.126   6.768   4.265  1.7134  2.2353  0.2694
  929SOL     OW 4237   4.624   1.984   6.782 -0.1716 -0.1781  0.2726
  929SOL    HW1 4238   4.584   1.973   6.696  0.2689  2.0286 -0.2778
  929SOL    HW2 4239   4.716   1.961   6.769 -0.3205 -0.8788  0.4297
  930SOL     OW 4240   3.599   2.277   5.780 -0.0880  0.4388  0.0852
  930SOL    HW1 4241   3.536   2.205   5.778 -0.2386  0.5467  0.6074
  930SOL    HW2 4242   3.653   2.259   5.857  0.9889 -0.0353 -0.7585
  931SOL     OW 4243   8.928   9.102   0.579 -0.3560 -0.5365  0.4135
  931SOL    HW1 4244   8.946   9.183   0.628  0.3126 -0.2753 -0.2467
  931SOL    HW2 4245   8.882   9.132   0.501 -0.9559 -0.8971  0.6309
  932SOL     OW 4246   2.055   8.083   5.714 -0.0627 -1.5893 -0.4570
  932SOL    HW1 4247   2.093   8.001   5.680  1.0259 -1.6421  0.8095
  932SOL    HW2 4248   2.129   8.143   5.718 -0.1723 -1.5336  1.6259
  933SOL     OW 4249   7.457   2.827   5.707 -0.2976  0.0605 -0.4958
  933SOL    HW1 4250   7.536   2.873   5.677 -0.6201  0.9586 -0.0295
  933SOL    HW2 4251   7.435   2.870   5.790 -1.3439 -0.0902 -0.6809
  934SOL     OW 4252   5.792   2.478   3.876 -0.2464 -0.0628  0.1665
  934SOL    HW1 4253   5.824   2.502   3.963 -0.0788  2.3432 -0.4607
  934SOL    HW2 4254   5.869   2.442   3.831  1.6380  4.5978 -0.9502
  935SOL     OW 4255   4.276   3.248   8.736 -0.6792  0.2218  0.5507
  935SOL    HW1 4256   4.237   3.170   8.697 -2.4257  0.7045  1.2083
  935SOL    HW2 4257   4.203   3.309   8.745  0.9309  2.6627 -1.5947
  936SOL     OW 4258   5.325   1.937   2.278  0.5340  0.0861 -0.1311
  936SOL    HW1 4259   5.242   1.950   2.231 -0.4210 -0.2218  1.3948
  936SOL    HW2 4260   5.392   1.965   2.216 -0.8479  3.8424 -0.2296
  937SOL     OW 4261   5.926   0.630   7.596  0.2699  0.0226 -0.2769
  937SOL    HW1 4262   5.846   0.678   7.575  0.3131  0.9735  1.5415
  937SOL    HW2 4263   5.895   0.545   7.627  0.0810 -0.2676 -1.2079
  938SOL     OW 4264   6.629   8.756   0.433 -0.0713 -0.5464 -0.1393
  938SOL    HW1 4265   6.674   8.804   0.363 -1.6807  0.1521 -0.7470
  938SOL    HW2 4266   6.666   8.790   0.514  1.3479 -0.8780 -0.6223
  939SOL     OW 4267   2.498   6.162   8.164 -0.0150 -0.6055  0.1357
  939SOL    HW1 4268   2.451   6.221   8.104 -1.0364 -0.5354  0.9667
  939SOL    HW2 4269   2.533   6.093   8.107 -1.9187 -1.1548 -0.4516
  940SOL     OW 4270   4.714   0.565   2.409 -0.5844  0.1924  0.0607
  940SOL    HW1 4271   4.633   0.518   2.388 -1.5216  1.4247  0.7663
  940SOL    HW2 4272   4.686   0.656   2.419  1.0830  0.8193 -0.7139
  941SOL     OW 4273   8.304   5.361   8.359 -0.2414 -0.2242  0.1575
  941SOL    HW1 4274   8.276   5.356   8.450 -2.3498 -0.9484 -0.4766
  941SOL    HW2 4275   8.356   5.282   8.345 -1.8302 -1.3132  0.1660
  942SOL     OW 4276   2.242   8.473   6.775  0.2216  0.8160  0.5436
  942SOL    HW1 4277   2.170   8.451   6.834  0.4565 -0.0694  0.5253
  942SOL    HW2 4278   2.201   8.522   6.704 -0.0212  2.1646  1.5729
  943SOL     OW 4279   2.685   4.407   6.287 -0.1056 -0.2729 -0.0540
  943SOL    HW1 4280   2.711   4.466   6.358 -4.6785  1.1287  0.7571
  943SOL    HW2 4281   2.686   4.320   6.327  0.5299  0.0586  0.6917
  944SOL     OW 4282   8.333   7.088   4.289 -0.2285  0.3960  0.0779
  944SOL    HW1 4283   8.393   7.015   4.307  0.1766  0.4741 -0.9129
  944SOL    HW2 4284   8.388   7.166   4.289 -0.6724  0.7284  1.1932
  945SOL     OW 4285   3.894   5.006   9.231  0.3977 -0.2515 -0.0171
  945SOL    HW1 4286   3.830   5.047   9.173  0.5731  0.0924  0.0295
  945SOL    HW2 4287   3.908   4.920   9.193  2.3900  0.8367 -1.9703
  946SOL     OW 4288   7.981   3.858   4.628 -0.2140  1.0218  0.0319
  946SOL    HW1 4289   7.954   3.912   4.703  0.9537  0.5349  0.8310
  946SOL    HW2 4290   7.935   3.775   4.641  2.4177 -0.2491  2.0616
  947SOL     OW 4291   6.284   7.862   1.037  0.2558  0.2073  0.4471
  947SOL    HW1 4292   6.300   7.864   0.943 -0.6107 -2.3268  0.1788
  947SOL    HW2 4293   6.273   7.770   1.058 -2.0814  0.8573  2.5969
  948SOL     OW 4294   3.530   5.470   7.702 -0.2131 -0.3769 -0.1697
  948SOL    HW1 4295   3.500   5.560   7.695  0.3285 -0.2144 -0.4135
  948SOL    HW2 4296   3.616   5.470   7.661 -0.2515 -1.0249 -0.2580
  949SOL     OW 4297   1.275   8.185   2.619  0.7642 -0.2827 -0.0996
  949SOL    HW1 4298   1.210   8.252   2.641  0.4809 -1.0671  1.5654
  949SOL    HW2 4299   1.352   8.234   2.592  1.0492  0.7797  2.4548
  950SOL     OW 4300   1.190   5.907   2.792 -0.8225  0.0226 -0.2825
  950SOL    HW1 4301   1.113   5.860   2.824  0.1238 -2.0039 -0.8316
  950SOL    HW2 4302   1.254   5.900   2.864  0.1288 -1.6282 -1.2212
  951SOL     OW 4303   0.838   0.065   4.228  0.1059  0.0720 -0.3856
  951SOL    HW1 4304   0.784   0.081   4.305  0.3028 -0.1967 -0.1879
  951SOL    HW2 4305   0.787   0.098   4.154 -0.0640  0.3697 -0.1331
  952SOL     OW 4306   2.663   3.032   2.264  0.4276  0.0577 -0.5070
  952SOL    HW1 4307   2.749   3.012   2.228 -0.3031  0.3966 -2.5501
  952SOL    HW2 4308   2.603   3.027   2.190 -1.3081  0.0380  0.8185
  953SOL     OW 4309   1.613   4.391   2.938  0.1952  0.6260  0.5128
  953SOL    HW1 4310   1.533   4.441   2.953  0.5072  1.5119 -0.5979
  953SOL    HW2 4311   1.583   4.301   2.927 -0.7277  1.0087 -0.3414
  954SOL     OW 4312   8.033   8.208   0.376  0.0786  0.1713 -0.4445
  954SOL    HW1 4313   7.978   8.139   0.338  0.2916 -0.8900  1.1083
  954SOL    HW2 4314   7.971   8.274   0.406 -0.0829  1.5161 -3.3393
  955SOL     OW 4315   8.403   9.069   5.974 -0.4676 -0.4413  0.4800
  955SOL    HW1 4316   8.425   9.160   5.953  2.4229 -1.0067  0.5552
  955SOL    HW2 4317   8.333   9.046   5.914  0.1150  1.2663 -0.9343
  956SOL     OW 4318   6.435   8.788   8.066  0.0147  0.2303 -0.0056
  956SOL    HW1 4319   6.409   8.707   8.110 -1.1142 -0.5996 -2.0872
  956SOL    HW2 4320   6.393   8.857   8.118 -1.3527 -0.7086  0.1829
  957SOL     OW 4321   1.634   5.836   2.737 -0.3582  0.4061  0.2353
  957SOL    HW1 4322   1.570   5.804   2.674  1.0214 -2.0496 -0.0287
  957SOL    HW2 4323   1.625   5.932   2.734 -2.9808  0.1888 -0.7955
  958SOL     OW 4324   0.439   1.902   5.342 -0.7022  0.0553 -0.2885
  958SOL    HW1 4325   0.436   1.961   5.418 -2.1921  0.4006 -0.5788
  958SOL    HW2 4326   0.531   1.877   5.335 -0.6851 -0.8742  2.3101
  959SOL     OW 4327   3.058   3.732   1.065 -0.5676  0.9506 -0.2092
  959SOL    HW1 4328   3.127   3.670   1.088  0.1828  1.8278 -0.0425
  959SOL    HW2 4329   3.093   3.817   1.091 -1.4719  1.4762 -0.6800
  960SOL     OW 4330   1.972   6.917   1.557 -0.1675  0.1609  0.3943
  960SOL    HW1 4331   2.039   6.849   1.565  0.0154  0.4340  1.2682
  960SOL    HW2 4332   1.980   6.948   1.467 -0.3644 -1.0817 -0.0802
  961SOL     OW 4333   4.361   8.528   5.904  0.5815 -0.1637 -0.0247
  961SOL    HW1 4334   4.456   8.525   5.918  0.7270  1.9573 -0.3115
  961SOL    HW2 4335   4.350   8.499   5.813  1.1464  1.2091 -0.5545
  962SOL     OW 4336   6.084   5.843   8.539  0.1508 -0.3764 -0.4020
  962SOL    HW1 4337   6.171   5.844   8.499  0.0171 -0.9003 -0.7265
  962SOL    HW2 4338   6.057   5.935   8.544  0.4867 -0.2554 -0.8249
  963SOL     OW 4339   7.860   4.908   8.540 -0.7869 -0.1663  0.5620
  963SOL    HW1 4340   7.931   4.860   8.496  0.8038  1.3145  1.3758
  963SOL    HW2 4341   7.849   4.987   8.487 -2.2160 -0.6211  0.1604
  964SOL     OW 4342   1.227   7.443   9.169 -0.1423  0.1690 -0.0794
  964SOL    HW1 4343   1.320   7.426   9.152 -0.8126 -1.9303 -2.1033
  964SOL    HW2 4344   1.207   7.388   9.245  0.1554  0.1849  0.0142
  965SOL     OW 4345   3.471   2.379   3.768  0.0968  0.0973  0.3483
  965SOL    HW1 4346   3.501   2.467   3.745  0.6295 -0.3131 -0.5751
  965SOL    HW2 4347   3.423   2.391   3.850 -0.2908  1.3322 -0.0340
  966SOL     OW 4348   4.425   7.902   2.410 -0.0556 -0.0481  0.5443
  966SOL    HW1 4349   4.333   7.907   2.386 -0.0721 -0.6327  0.4558
  966SOL    HW2 4350   4.436   7.813   2.443  0.5503 -0.0948  0.2326
  967SOL     OW 4351   1.150   2.900   4.958 -0.5222 -0.0877  0.1507
  967SOL    HW1 4352   1.146   2.987   4.918 -1.2421 -0.2083 -0.0453
  967SOL    HW2 4353   1.174   2.917   5.049 -0.9325  0.3414  0.1820
  968SOL     OW 4354   8.666   8.688   5.874 -0.0191  0.1432 -0.7568
  968SOL    HW1 4355   8.726   8.613   5.872 -2.3783 -1.9097  0.5132
  968SOL    HW2 4356   8.680   8.727   5.961 -0.9865 -0.8185 -0.1397
  969SOL     OW 4357   6.093   9.101   8.154  0.0167 -0.2190  0.4585
  969SOL    HW1 4358   6.109   9.084   8.246  1.9612 -1.2687 -0.0038
  969SOL    HW2 4359   6.047   9.185   8.152  0.1444 -0.0721  2.3535
  970SOL     OW 4360   4.017   7.484   6.156 -0.1156  0.2056 -0.1129
  970SOL    HW1 4361   3.949   7.493   6.224  1.0656 -0.7767  1.2496
  970SOL    HW2 4362   4.055   7.572   6.150 -0.6582  0.4588  0.0345
  971SOL     OW 4363   5.654   2.455   6.781  0.3065  0.3629 -0.6050
  971SOL    HW1 4364   5.588   2.386   6.774 -0.4895  1.2421 -2.5188
  971SOL    HW2 4365   5.690   2.463   6.693  3.3226 -0.3461  0.4469
  972SOL     OW 4366   1.473   6.404   2.654  0.4659 -0.3716  0.1165
  972SOL    HW1 4367   1.452   6.312   2.634  0.1969 -0.1800 -0.5077
  972SOL    HW2 4368   1.539   6.428   2.589  1.5681 -0.5172  1.1342
  973SOL     OW 4369   3.143   1.880   9.252  0.3742  0.0357 -0.1040
  973SOL    HW1 4370   3.236   1.895   9.234  0.0371  3.5055  0.3006
  973SOL    HW2 4371   3.098   1.917   9.176 -0.7074 -0.5570  0.2376
  974SOL     OW 4372   6.638   7.878   6.723 -0.5792  0.0162 -0.5146
  974SOL    HW1 4373   6.608   7.795   6.758 -0.4774  0.3505  0.3834
  974SOL    HW2 4374   6.561   7.935   6.724 -0.7813 -0.2178 -1.6332
  975SOL     OW 4375   4.794   7.584   9.025 -0.1915 -0.0250  0.8388
  975SOL    HW1 4376   4.872   7.536   8.999 -1.6358 -2.4722  0.6176
  975SOL    HW2 4377   4.736   7.516   9.062 -1.8199  1.8269  1.9024
  976SOL     OW 4378   3.479   7.708   1.865  0.2521 -0.5745 -0.3775
  976SOL    HW1 4379   3.477   7.623   1.821  1.6531 -1.3623  0.9694
  976SOL    HW2 4380   3.430   7.695   1.946  2.0987 -0.7484  0.7886
  977SOL     OW 4381   1.660   5.725   8.178 -0.0608 -0.6969  0.0263
  977SOL    HW1 4382   1.654   5.672   8.099 -1.6077 -0.7710  0.1731
  977SOL    HW2 4383   1.597   5.687   8.238  1.4857 -1.0030  1.5457
  978SOL     OW 4384   8.388   1.837   7.837  0.2469 -0.1418 -0.0083
  978SOL    HW1 4385   8.398   1.846   7.932 -0.2689  0.4319 -0.0011
  978SOL    HW2 4386   8.442   1.908   7.802  0.9770 -0.7681 -0.1736
  979SOL     OW 4387   2.324   5.676   2.893  0.1475 -0.2197  0.1540
  979SOL    HW1 4388   2.400   5.618   2.883  0.7511  0.2379  1.6754
  979SOL    HW2 4389   2.251   5.626   2.858  0.7269 -1.7416  0.9907
  980SOL     OW 4390   1.518   2.419   0.863 -0.1128 -0.3166  0.2719
  980SOL    HW1 4391   1.511   2.326   0.841  0.0667 -0.1022 -0.7434
  980SOL    HW2 4392   1.428   2.451   0.857 -0.6013 -0.8970  3.0224
  981SOL     OW 4393   6.947   5.191   1.404 -0.3190 -0.5198  0.1439
  981SOL    HW1 4394   6.906   5.182   1.318 -3.1997  1.6093  1.1385
  981SOL    HW2 4395   6.882   5.160   1.466  0.4986  0.7325  1.7109
  982SOL     OW 4396   8.816   6.560   1.461 -0.0592  0.1446 -0.6041
  982SOL    HW1 4397   8.834   6.641   1.412 -0.5158 -0.4899 -1.8795
  982SOL    HW2 4398   8.816   6.492   1.394 -1.2532 -0.6916  0.2112
  983SOL     OW 4399   2.824   7.459   3.272  0.5479 -0.5399  0.5793
  983SOL    HW1 4400   2.789   7.386   3.221  0.0887  0.9458 -1.3632
  983SOL    HW2 4401   2.919   7.446   3.271  0.5897 -0.3933 -1.0249
  984SOL     OW 4402   8.212   2.716   8.183  0.1798  0.1916  0.0755
  984SOL    HW1 4403   8.129   2.724   8.135  0.7864 -0.3951 -1.1106
  984SOL    HW2 4404   8.245   2.805   8.188  0.3706  0.2053 -1.1140
  985SOL     OW 4405   2.273   2.862   0.202  0.3323  0.2592  1.3696
  985SOL    HW1 4406   2.307   2.847   0.114  3.1666  2.1168  2.0121
  985SOL    HW2 4407   2.268   2.775   0.241 -0.2308 -0.5167 -0.3358
  986SOL     OW 4408   4.513   5.677   3.413 -0.1592 -0.1099 -0.3623
  986SOL    HW1 4409   4.529   5.609   3.348 -0.0767 -0.7398  0.3005
  986SOL    HW2 4410   4.459   5.634   3.480 -0.4539  0.5955 -0.1399
  987SOL     OW 4411   8.377   4.916   3.496  0.3473  0.1146 -0.2016
  987SOL    HW1 4412   8.426   4.971   3.557  2.1629 -0.1180 -1.3421
  987SOL    HW2 4413   8.420   4.831   3.501 -1.7409 -0.9550  0.7464
  988SOL     OW 4414   1.042   3.309   8.725  0.3399 -0.2605 -0.1825
  988SOL    HW1 4415   1.079   3.292   8.812  0.0318 -0.2717 -0.0508
  988SOL    HW2 4416   0.980   3.381   8.739  2.0836  1.4485 -0.8513
  989SOL     OW 4417   6.997   5.108   0.577 -0.4635  0.1116  0.1870
  989SOL    HW1 4418   7.053   5.184   0.594 -0.7663  0.4042 -0.1032
  989SOL    HW2 4419   7.058   5.038   0.555 -0.1230 -0.0022  1.4329
  990SOL     OW 4420   3.470   6.369   5.119 -0.1662 -0.0194 -0.7472
  990SOL    HW1 4421   3.479   6.462   5.139  1.4396  0.2295 -2.3681
  990SOL    HW2 4422   3.433   6.367   5.030 -2.3138 -0.9919  0.1065
  991SOL     OW 4423   4.744   9.093   5.272  0.4453 -0.0940 -0.0727
  991SOL    HW1 4424   4.661   9.141   5.266 -0.1894 -1.3301 -2.2200
  991SOL    HW2 4425   4.739   9.048   5.356 -0.1523  1.3807  0.7274
  992SOL     OW 4426   7.389   9.176   2.654  0.4255  0.2788  0.6369
  992SOL    HW1 4427   7.463   9.231   2.629  0.4189  0.2960  0.6555
  992SOL    HW2 4428   7.335   9.231   2.710 -0.5943  0.9069 -0.8809
  993SOL     OW 4429   0.804   5.597   3.709 -0.6708 -0.3258  0.0208
  993SOL    HW1 4430   0.769   5.512   3.680 -0.5744 -0.5714  0.6057
  993SOL    HW2 4431   0.886   5.607   3.661 -1.6411  0.3753 -1.5629
  994SOL     OW 4432   5.339   5.815   3.403  0.2618  0.2713  0.1000
  994SOL    HW1 4433   5.311   5.725   3.421  1.3443  0.3102  2.2652
  994SOL    HW2 4434   5.273   5.869   3.445 -1.6775  0.6653 -3.1100
  995SOL     OW 4435   3.264   6.667   4.438 -0.1926 -0.0521 -0.2227
  995SOL    HW1 4436   3.222   6.675   4.352  0.6671 -1.9881 -0.8567
  995SOL    HW2 4437   3.192   6.647   4.498 -0.7467  0.9554 -0.5290
  996SOL     OW 4438   3.583   4.498   2.196 -0.7318  0.6872  0.1372
  996SOL    HW1 4439   3.576   4.475   2.289 -1.0108  0.0844 -0.0369
  996SOL    HW2 4440   3.537   4.429   2.150  0.8123  0.0716 -0.5715
  997SOL     OW 4441   1.836   6.167   2.927  0.5146 -0.3887 -0.3093
  997SOL    HW1 4442   1.800   6.168   2.838 -0.6504 -0.4419  0.1323
  997SOL    HW2 4443   1.930   6.179   2.916  0.1867  1.5807 -1.4452
  998SOL     OW 4444   0.832   2.143   0.318  1.0740 -0.0349 -0.3006
  998SOL    HW1 4445   0.826   2.133   0.413  0.1783 -0.7736 -0.4107
  998SOL    HW2 4446   0.763   2.085   0.284  1.2580  0.3626 -1.3903
  999SOL     OW 4447   8.948   5.049   0.739 -0.2158  0.0801  0.5356
  999SOL    HW1 4448   9.015   5.041   0.807 -0.2575 -0.2086  0.5438
  999SOL    HW2 4449   8.919   4.959   0.723 -0.5636  0.1967  0.4946
 1000SOL     OW 4450   0.709   3.864   2.772  0.4134 -0.0393 -0.5433
 1000SOL    HW1 4451   0.696   3.803   2.699  0.7792  1.0593 -1.5490
 1000SOL    HW2 4452   0.799   3.849   2.801  0.7822  0.6044 -1.3427
 1001SOL     OW 4453   5.733   0.220   0.417  0.0865  0.1056  0.2404
 1001SOL    HW1 4454   5.798   0.152   0.433 -0.0906  0.0936  0.9539
 1001SOL    HW2 4455   5.737   0.236   0.323  0.9980 -0.0136  0.2541
 1002SOL     OW 4456   1.359   8.260   5.350  0.3960 -0.9378  0.5464
 1002SOL    HW1 4457   1.279   8.309   5.368  0.1985 -1.4971  1.2083
 1002SOL    HW2 4458   1.389   8.295   5.266 -0.8183 -1.0751  0.0259
 1003SOL     OW 4459   2.272   7.747   1.715 -0.1881  0.2450  0.2195
 1003SOL    HW1 4460   2.320   7.824   1.748  0.6532 -0.9481  1.9307
 1003SOL    HW2 4461   2.315   7.726   1.632  2.4526 -0.8355  1.7304
 1004SOL     OW 4462   2.799   5.850   4.168  0.7010 -0.0444  0.3530
 1004SOL    HW1 4463   2.865   5.850   4.100 -0.6640 -3.5237 -1.2357
 1004SOL    HW2 4464   2.727   5.903   4.134  1.5232  1.4647  0.8891
 1005SOL     OW 4465   2.824   0.709   9.121  0.2248 -0.1278 -0.1223
 1005SOL    HW1 4466   2.819   0.742   9.032  1.9241 -0.2006 -0.2736
 1005SOL    HW2 4467   2.918   0.697   9.137 -0.1663 -2.7294  0.7013
 1006SOL     OW 4468   5.923   5.141   8.017 -0.2913  0.0891  0.7707
 1006SOL    HW1 4469   5.924   5.236   8.013 -0.8354  0.1199  1.1960
 1006SOL    HW2 4470   5.891   5.113   7.932 -2.9550  0.3964  1.5763
 1007SOL     OW 4471   0.365   4.467   7.985  0.0536 -0.2878 -0.2984
 1007SOL    HW1 4472   0.409   4.382   7.975 -0.2215 -0.6603  1.2988
 1007SOL    HW2 4473   0.420   4.529   7.937 -1.1232 -1.7154 -3.7651
 1008SOL     OW 4474   6.933   3.819   6.480  0.0587 -0.1712 -0.0507
 1008SOL    HW1 4475   6.954   3.829   6.387 -0.5158 -0.1313 -0.1845
 1008SOL    HW2 4476   6.869   3.748   6.482  0.1228 -0.2187  0.3204
 1009SOL     OW 4477   6.024   6.959   8.297  0.7980  0.0304  0.2788
 1009SOL    HW1 4478   5.975   7.009   8.363  1.5234  1.1796 -0.0210
 1009SOL    HW2 4479   5.976   6.877   8.289 -0.7289  0.8588  0.4388
 1010SOL     OW 4480   2.572   1.736   8.054  0.1330 -0.6027  0.2308
 1010SOL    HW1 4481   2.532   1.696   8.131 -1.2225 -1.5174 -0.9088
 1010SOL    HW2 4482   2.566   1.830   8.071 -2.5451 -0.6891  0.1400
 1011SOL     OW 4483   1.278   5.163   4.943  0.3692 -0.4936 -0.3614
 1011SOL    HW1 4484   1.333   5.091   4.974  3.1448  0.7119 -2.1183
 1011SOL    HW2 4485   1.247   5.134   4.857 -0.7957 -0.6406  0.0831
 1012SOL     OW 4486   8.589   0.296   5.423 -0.2265 -0.6703 -0.1862
 1012SOL    HW1 4487   8.541   0.364   5.376 -0.3269 -0.9600 -0.5009
 1012SOL    HW2 4488   8.599   0.331   5.512  0.9209  0.3575 -0.6940
 1013SOL     OW 4489   0.009   1.536   7.845  0.4337 -0.1034 -0.2273
 1013SOL    HW1 4490  -0.048   1.612   7.849  0.9270  0.2238  1.7454
 1013SOL    HW2 4491   0.027   1.514   7.937  2.7307 -0.7327 -0.7468
 1014SOL     OW 4492   1.213   6.955   6.313 -0.4551 -0.4012 -0.0347
 1014SOL    HW1 4493   1.199   6.946   6.407  0.5772 -1.2174  0.0592
 1014SOL    HW2 4494   1.179   7.042   6.291 -0.0531  0.0804  1.2160
 1015SOL     OW 4495   7.195   4.391   1.932 -0.2236  0.4039  0.3817
 1015SOL    HW1 4496   7.228   4.342   1.857 -0.1045  0.8963  0.1066
 1015SOL    HW2 4497   7.131   4.332   1.973  1.7636 -1.0131  1.5892
 1016SOL     OW 4498   5.830   0.217   7.325 -0.6521 -0.0555 -0.3757
 1016SOL    HW1 4499   5.906   0.163   7.345  1.0615  2.7211  1.4004
 1016SOL    HW2 4500   5.845   0.247   7.235  0.1505  0.0904 -0.2011
 1017SOL     OW 4501   1.056   7.729   3.489 -0.1686 -0.7116  0.1712
 1017SOL    HW1 4502   1.024   7.797   3.549 -3.2107 -0.0668 -1.9710
 1017SOL    HW2 4503   1.018   7.648   3.524 -0.9742 -0.5024 -0.1912
 1018SOL     OW 4504   5.130   6.464   4.076 -0.6553  0.2078  0.1730
 1018SOL    HW1 4505   5.076   6.402   4.027  0.2695  0.2128 -0.8849
 1018SOL    HW2 4506   5.213   6.465   4.029  0.5578 -0.3947  2.1996
 1019SOL     OW 4507   1.806   7.746   7.694  0.2208  0.5943 -0.2481
 1019SOL    HW1 4508   1.726   7.799   7.686  0.4657  1.5296  2.5063
 1019SOL    HW2 4509   1.813   7.728   7.787  2.1328 -1.2805 -0.7007
 1020SOL     OW 4510   0.718   6.731   4.757  0.2109 -0.0658 -0.1024
 1020SOL    HW1 4511   0.651   6.751   4.823 -1.0212 -0.2689 -1.2537
 1020SOL    HW2 4512   0.799   6.766   4.794 -0.4633 -0.1012  1.4753
 1021SOL     OW 4513   2.654   4.478   7.967 -0.3458 -0.3463 -0.4276
 1021SOL    HW1 4514   2.704   4.413   8.016  0.5110  1.1217  0.7067
 1021SOL    HW2 4515   2.602   4.426   7.905  0.6691 -2.0639  0.0960
 1022SOL     OW 4516   4.555   4.338   0.992  0.3827 -0.0657 -0.1386
 1022SOL    HW1 4517   4.483   4.394   1.022  1.0939  0.6698  0.2372
 1022SOL    HW2 4518   4.590   4.383   0.915  0.3191 -0.5221 -0.4390
 1023SOL     OW 4519   4.092   4.612   0.237 -0.3454 -0.0028 -0.4018
 1023SOL    HW1 4520   4.026   4.596   0.305  0.8429  0.0539  0.7890
 1023SOL    HW2 4521   4.048   4.585   0.156 -2.3603  1.3990  0.1299
 1024SOL     OW 4522   7.402   9.030   8.974  0.3843 -0.4240 -0.1493
 1024SOL    HW1 4523   7.331   8.975   9.007  0.5892  0.0332  1.1046
 1024SOL    HW2 4524   7.359   9.091   8.915 -0.0691 -0.9787 -0.4020
 1025SOL     OW 4525   7.345   3.754   2.615 -0.2529 -0.1495 -0.5928
 1025SOL    HW1 4526   7.378   3.837   2.651  0.6288 -1.3308  1.5360
 1025SOL    HW2 4527   7.404   3.734   2.543  1.7056 -0.5758  1.0556
 1026SOL     OW 4528   7.761   2.391   6.506  0.5948  0.2955  0.1292
 1026SOL    HW1 4529   7.821   2.429   6.570 -1.1501 -1.7385  3.2376
 1026SOL    HW2 4530   7.788   2.299   6.499  0.7615  0.4605 -2.1942
 1027SOL     OW 4531   1.184   8.256   3.627  0.3551 -0.0330  0.8568
 1027SOL    HW1 4532   1.239   8.178   3.639  2.2636  1.4759  2.8604
 1027SOL    HW2 4533   1.111   8.244   3.688 -0.9772 -1.5096 -0.9495
 1028SOL     OW 4534   6.026   6.729   6.381  0.1484  0.0073  0.1430
 1028SOL    HW1 4535   6.007   6.815   6.419 -0.9515 -0.1135 -0.0886
 1028SOL    HW2 4536   6.011   6.741   6.287 -1.6461 -0.8409  0.2921
 1029SOL     OW 4537   4.434   8.172   3.620 -0.1723 -0.5288  0.4455
 1029SOL    HW1 4538   4.339   8.157   3.622  0.0220 -1.8469  0.4429
 1029SOL    HW2 4539   4.458   8.185   3.711 -0.3092 -0.4801  0.4754
 1030SOL     OW 4540   0.282   0.655   1.350  0.0351  0.1812 -0.0368
 1030SOL    HW1 4541   0.227   0.648   1.429 -0.8406  0.7207 -0.5819
 1030SOL    HW2 4542   0.220   0.652   1.277  0.8978 -1.1585 -0.7637
 1031SOL     OW 4543   4.031   6.994   5.127  0.6435 -0.2281 -0.0655
 1031SOL    HW1 4544   4.085   7.048   5.070  3.3001 -1.6147  1.0050
 1031SOL    HW2 4545   4.003   7.054   5.197  0.2952  0.6200 -0.9056
 1032SOL     OW 4546   6.172   5.783   6.024  0.7910  0.5283 -0.4402
 1032SOL    HW1 4547   6.159   5.692   6.050 -0.3418  0.3179 -1.6621
 1032SOL    HW2 4548   6.187   5.829   6.107  1.5143 -0.7633  0.1900
 1033SOL     OW 4549   6.172   0.347   7.424 -0.3443  0.4292 -0.4133
 1033SOL    HW1 4550   6.142   0.257   7.438 -0.3335  0.5764  0.6110
 1033SOL    HW2 4551   6.148   0.394   7.503  1.2778  0.8910 -0.1473
 1034SOL     OW 4552   4.442   5.635   5.278 -0.0018 -0.3535 -0.5225
 1034SOL    HW1 4553   4.487   5.716   5.299  0.6881 -0.5391 -1.2148
 1034SOL    HW2 4554   4.407   5.649   5.190 -2.4868  0.2762  0.4869
 1035SOL     OW 4555   0.468   5.766   2.148  0.5592 -0.3134  0.0591
 1035SOL    HW1 4556   0.400   5.762   2.081  1.2615  2.0021 -0.8758
 1035SOL    HW2 4557   0.462   5.682   2.194 -2.3549 -0.4929 -0.5183
 1036SOL     OW 4558   5.955   3.012   3.618  0.4563  0.0085  0.0121
 1036SOL    HW1 4559   5.972   3.049   3.704  1.1200  1.8799 -0.8704
 1036SOL    HW2 4560   6.022   3.051   3.561  0.0666 -1.2053 -1.3498
 1037SOL     OW 4561   2.810   4.487   5.797 -0.5228  0.8302 -0.5918
 1037SOL    HW1 4562   2.762   4.425   5.851  0.0107 -0.3193 -1.3995
 1037SOL    HW2 4563   2.763   4.488   5.714 -0.1770  1.0636 -0.7858
 1038SOL     OW 4564   3.640   5.712   0.003 -0.1692 -0.2376  0.4395
 1038SOL    HW1 4565   3.556   5.690   0.045  1.8013 -1.0417  4.4216
 1038SOL    HW2 4566   3.671   5.628  -0.031 -0.9335  0.0820 -1.1454
 1039SOL     OW 4567   9.195   5.444   3.466 -0.3404 -0.4601 -0.4632
 1039SOL    HW1 4568   9.185   5.349   3.472  0.8359 -0.5592  0.2962
 1039SOL    HW2 4569   9.115   5.479   3.507 -0.0179 -1.1466  0.8078
 1040SOL     OW 4570   0.253   4.194   1.404  0.8797 -0.0256 -0.2001
 1040SOL    HW1 4571   0.288   4.117   1.360  0.6553 -0.1898 -0.0878
 1040SOL    HW2 4572   0.160   4.175   1.418  0.7777  0.3456 -0.3545
 1041SOL     OW 4573   2.551   1.111   5.311 -0.4814 -0.2797 -0.5224
 1041SOL    HW1 4574   2.480   1.134   5.372 -1.8460 -2.0186 -1.3752
 1041SOL    HW2 4575   2.631   1.123   5.362 -1.2194  3.0218  0.0950
 1042SOL     OW 4576   1.507   1.220   4.725  0.2563  0.2359 -0.0467
 1042SOL    HW1 4577   1.590   1.180   4.751  0.3085  0.5962  0.3667
 1042SOL    HW2 4578   1.533   1.300   4.679  0.1315  0.8876  0.9932
 1043SOL     OW 4579   1.805   5.619   6.153 -0.2913  0.2000 -0.2369
 1043SOL    HW1 4580   1.881   5.677   6.162 -0.3047 -0.0182  1.6968
 1043SOL    HW2 4581   1.838   5.544   6.103 -0.0871  1.4659 -2.1329
 1044SOL     OW 4582   2.698   3.219   6.874  0.3184 -0.1376  0.3463
 1044SOL    HW1 4583   2.723   3.304   6.911  0.6071  0.0985 -0.3650
 1044SOL    HW2 4584   2.762   3.157   6.908 -0.4196 -0.2478  1.5881
 1045SOL     OW 4585   0.807   0.510   6.554  0.0269 -0.1604  0.3800
 1045SOL    HW1 4586   0.785   0.423   6.520 -1.0566  0.1687  0.2227
 1045SOL    HW2 4587   0.775   0.571   6.488  0.3659  0.3789  0.7066
 1046SOL     OW 4588   7.104   3.857   1.259 -0.4881  0.3300 -0.4415
 1046SOL    HW1 4589   7.074   3.948   1.258  1.8230  1.1829 -2.5585
 1046SOL    HW2 4590   7.076   3.822   1.174  0.7298 -0.1524 -0.6588
 1047SOL     OW 4591   0.802   2.927   7.528 -0.1527  0.2378 -0.1226
 1047SOL    HW1 4592   0.810   2.957   7.438 -0.7285  0.6739 -0.0361
 1047SOL    HW2 4593   0.872   2.864   7.539  0.5740  0.9509 -0.5609
 1048SOL     OW 4594   0.314   4.153   7.346 -0.1141 -0.3748  0.4031
 1048SOL    HW1 4595   0.225   4.169   7.314 -0.6274 -1.5084  1.1881
 1048SOL    HW2 4596   0.338   4.233   7.393 -1.1796 -0.4868  1.1664
 1049SOL     OW 4597   2.338   2.570   0.926 -0.2348  0.1822  0.1493
 1049SOL    HW1 4598   2.431   2.593   0.923 -0.9048  3.6125  1.3032
 1049SOL    HW2 4599   2.296   2.635   0.869 -1.9924 -1.1718 -0.1756
 1050SOL     OW 4600   4.201   3.438   0.834  0.5793 -0.8926 -0.0233
 1050SOL    HW1 4601   4.164   3.384   0.903 -1.2106 -0.8744 -0.9309
 1050SOL    HW2 4602   4.193   3.528   0.867  1.3432 -0.9904  0.4607
 1051SOL     OW 4603   4.058   6.339   5.909  0.3865  0.2726 -0.0291
 1051SOL    HW1 4604   4.057   6.309   5.819 -0.0005 -0.2774  0.1546
 1051SOL    HW2 4605   3.996   6.282   5.955  0.0371  1.0045  0.4375
 1052SOL     OW 4606   4.023   7.495   7.365 -0.1468 -0.0203  0.5073
 1052SOL    HW1 4607   4.066   7.486   7.280 -4.7260 -0.2166 -2.1268
 1052SOL    HW2 4608   4.079   7.554   7.414  2.0182  1.4225 -3.2704
 1053SOL     OW 4609   5.379   3.829   7.801 -0.4268 -1.1712  0.1106
 1053SOL    HW1 4610   5.457   3.820   7.746 -0.4884 -1.0016 -0.0040
 1053SOL    HW2 4611   5.305   3.823   7.740 -0.4982 -1.0836  0.1877
 1054SOL     OW 4612   8.792   1.897   2.168 -0.0634 -0.3176 -0.2378
 1054SOL    HW1 4613   8.714   1.868   2.216  1.0379 -1.3803  0.9745
 1054SOL    HW2 4614   8.833   1.816   2.138 -0.0561  0.2709 -1.9780
 1055SOL     OW 4615   4.381   0.318   2.083  0.0657 -0.6319  0.6108
 1055SOL    HW1 4616   4.367   0.412   2.091  0.7494 -0.5280  0.6235
 1055SOL    HW2 4617   4.303   0.279   2.122 -0.3376 -0.0714  0.3787
 1056SOL     OW 4618   3.229   1.704   1.488 -0.4209  0.5359 -0.3462
 1056SOL    HW1 4619   3.317   1.713   1.452  1.4854  1.0352  3.8416
 1056SOL    HW2 4620   3.208   1.611   1.475  1.5931 -0.0467  0.1768
 1057SOL     OW 4621   9.192   3.004   3.368 -0.2644 -0.1975  0.1754
 1057SOL    HW1 4622   9.280   3.041   3.354 -1.1749  1.5517 -1.1956
 1057SOL    HW2 4623   9.183   2.937   3.300 -0.1057 -0.2272  0.1814
 1058SOL     OW 4624   1.304   1.718   6.102 -0.2362 -0.1225 -0.2689
 1058SOL    HW1 4625   1.271   1.632   6.075 -1.7523  1.0414 -2.4876
 1058SOL    HW2 4626   1.390   1.725   6.060  1.0017 -1.3892  1.8528
 1059SOL     OW 4627   3.701   2.437   0.816  0.6155  0.3773  0.3450
 1059SOL    HW1 4628   3.667   2.420   0.729 -0.0610 -0.5263  0.7722
 1059SOL    HW2 4629   3.678   2.528   0.833  1.3358  0.7695 -0.6593
 1060SOL     OW 4630   4.914   5.807   6.091 -0.1163  0.3619 -0.2889
 1060SOL    HW1 4631   4.858   5.773   6.022  0.7579  1.1703 -1.4246
 1060SOL    HW2 4632   5.003   5.779   6.067 -0.0368 -1.6949  1.9461
 1061SOL     OW 4633   3.121   0.506   6.481 -0.8665  0.1216  0.0884
 1061SOL    HW1 4634   3.045   0.475   6.431 -2.1501  1.3948  1.1632
 1061SOL    HW2 4635   3.142   0.591   6.444  0.4734 -0.4735 -0.5992
 1062SOL     OW 4636   2.381   5.817   1.909 -0.0047  0.6997  0.0779
 1062SOL    HW1 4637   2.297   5.794   1.949 -0.1658 -0.2799 -0.7930
 1062SOL    HW2 4638   2.407   5.739   1.860  2.4126  0.1839  1.9600
 1063SOL     OW 4639   3.085   8.059   5.689 -0.0099 -0.3448 -0.2240
 1063SOL    HW1 4640   3.078   7.967   5.665  1.6239 -0.1863 -1.4638
 1063SOL    HW2 4641   3.032   8.105   5.624  1.3643 -0.2206 -1.2912
 1064SOL     OW 4642   2.048   5.988   8.310  0.6713  0.2059  0.5089
 1064SOL    HW1 4643   1.968   5.982   8.257  0.8772 -3.1368  0.3356
 1064SOL    HW2 4644   2.118   5.959   8.251  1.6693  0.9274  1.3068
 1065SOL     OW 4645   4.969   5.956   5.693  0.0649  0.5402  0.3181
 1065SOL    HW1 4646   4.935   5.868   5.708 -1.5707  0.8290 -1.3259
 1065SOL    HW2 4647   5.064   5.946   5.700 -0.1498 -0.8332  2.5145
 1066SOL     OW 4648   2.433   0.498   5.035  0.1712  0.2487  0.6469
 1066SOL    HW1 4649   2.450   0.587   5.067 -0.3673  0.1650  1.1777
 1066SOL    HW2 4650   2.387   0.510   4.952  2.3724  0.4803 -0.6157
 1067SOL     OW 4651   3.273   3.607   1.972  0.0861  0.0188  0.1174
 1067SOL    HW1 4652   3.356   3.616   1.926 -0.5188 -0.0617 -1.0224
 1067SOL    HW2 4653   3.234   3.527   1.936 -0.4458  0.0059  0.7007
 1068SOL     OW 4654   7.269   3.811   7.043 -0.3504  0.1135 -0.1660
 1068SOL    HW1 4655   7.306   3.729   7.075  0.4689  0.5023 -0.0976
 1068SOL    HW2 4656   7.343   3.858   7.005 -1.1375 -0.0043 -1.9732
 1069SOL     OW 4657   3.880   2.708   1.010  0.6209  0.4339 -0.5509
 1069SOL    HW1 4658   3.790   2.702   1.042  0.2825  0.7646 -1.4090
 1069SOL    HW2 4659   3.932   2.661   1.075 -0.1770  0.2149 -0.0608
 1070SOL     OW 4660   8.664   6.951   2.827  0.0135  0.3105 -0.7606
 1070SOL    HW1 4661   8.590   6.960   2.887  1.1357  1.0698  0.5635
 1070SOL    HW2 4662   8.624   6.948   2.740 -1.5669  0.7198 -0.0817
 1071SOL     OW 4663   6.476   6.027   6.259 -0.1291  0.2754  0.3480
 1071SOL    HW1 4664   6.456   6.118   6.238  0.9348  0.0416 -2.0630
 1071SOL    HW2 4665   6.394   5.991   6.292 -1.8547  1.0940 -2.6104
 1072SOL     OW 4666   8.422   8.448   8.806 -0.5210 -0.2095  0.5094
 1072SOL    HW1 4667   8.423   8.354   8.791  0.8500 -0.6674  2.8929
 1072SOL    HW2 4668   8.502   8.466   8.855 -0.2465  2.3915 -0.6956
 1073SOL     OW 4669   9.109   4.399   7.532  0.0224  0.2913 -0.0078
 1073SOL    HW1 4670   9.101   4.487   7.568  0.1348 -0.2491  1.4034
 1073SOL    HW2 4671   9.185   4.361   7.578 -0.2020 -0.6336 -0.3777
 1074SOL     OW 4672   8.505   6.938   3.367 -0.4595  0.2885 -0.2177
 1074SOL    HW1 4673   8.592   6.976   3.367  0.3661 -1.4351  1.4825
 1074SOL    HW2 4674   8.447   7.010   3.342  1.5592  1.0249 -3.3232
 1075SOL     OW 4675   6.311   3.118   3.103 -0.0842  0.1713 -0.1538
 1075SOL    HW1 4676   6.236   3.173   3.126 -0.8323 -0.8270 -0.1271
 1075SOL    HW2 4677   6.341   3.083   3.186 -0.0199  0.0329 -0.2360
 1076SOL     OW 4678   0.540   1.069   7.123 -0.0818 -0.7920  0.0407
 1076SOL    HW1 4679   0.526   1.001   7.189 -0.7995  1.2635  2.1141
 1076SOL    HW2 4680   0.482   1.140   7.149  0.5326  0.5841 -2.1329
 1077SOL     OW 4681   7.213   6.331   5.229  0.2829 -0.5154  0.4460
 1077SOL    HW1 4682   7.143   6.291   5.178 -0.0956  0.5318  0.1085
 1077SOL    HW2 4683   7.171   6.405   5.273  1.1099 -0.0657  0.4901
 1078SOL     OW 4684   1.243   7.341   7.174  0.1226 -0.3242 -0.3285
 1078SOL    HW1 4685   1.226   7.291   7.254  0.5744 -1.0102 -0.6492
 1078SOL    HW2 4686   1.271   7.427   7.205 -1.2022 -0.0684  0.2273
 1079SOL     OW 4687   3.785   6.800   9.141  0.1575  0.1859 -0.2726
 1079SOL    HW1 4688   3.861   6.742   9.149 -0.9229 -1.4206 -1.2680
 1079SOL    HW2 4689   3.751   6.784   9.053 -1.2350  1.0118  0.0861
 1080SOL     OW 4690   7.553   2.112   5.134 -0.8416  0.2486 -0.5139
 1080SOL    HW1 4691   7.603   2.098   5.214 -1.7527 -0.1874 -0.0062
 1080SOL    HW2 4692   7.546   2.025   5.094 -2.8006 -0.0686  0.4110
 1081SOL     OW 4693   2.552   2.449   3.413  0.1125 -0.5505  0.4115
 1081SOL    HW1 4694   2.564   2.465   3.319  0.8053  1.0361  0.7443
 1081SOL    HW2 4695   2.470   2.399   3.418 -0.1424 -0.3298 -1.0116
 1082SOL     OW 4696   7.232   8.770   2.239  0.7403 -0.2306 -0.1961
 1082SOL    HW1 4697   7.255   8.716   2.164 -0.5619 -0.2766 -0.5797
 1082SOL    HW2 4698   7.138   8.757   2.250  0.3220  2.1683 -0.4786
 1083SOL     OW 4699   2.444   3.140   7.861  0.3690 -0.1057 -0.2026
 1083SOL    HW1 4700   2.538   3.139   7.843  0.1472  0.7163 -1.5791
 1083SOL    HW2 4701   2.433   3.203   7.933  0.7063  1.2136 -1.2729
 1084SOL     OW 4702   6.266   5.443   6.614 -0.2324 -0.4382  0.6790
 1084SOL    HW1 4703   6.241   5.534   6.598 -0.6238 -0.3442  1.7287
 1084SOL    HW2 4704   6.359   5.440   6.593  0.2636  0.7169  2.4957
 1085SOL     OW 4705   1.855   5.838   2.359 -0.2067 -0.3744  0.0998
 1085SOL    HW1 4706   1.939   5.878   2.337  0.0672 -0.9371  0.1202
 1085SOL    HW2 4707   1.793   5.878   2.297  0.0860 -0.0218  0.0296
 1086SOL     OW 4708   5.036   2.463   2.369 -0.2479 -0.1763  0.3018
 1086SOL    HW1 4709   5.044   2.479   2.275 -0.5636 -3.1047 -0.3138
 1086SOL    HW2 4710   4.949   2.497   2.392 -0.6232 -0.4145 -0.7238
 1087SOL     OW 4711   0.848   0.659   0.913 -0.1807  0.1151  0.6985
 1087SOL    HW1 4712   0.858   0.684   0.821  2.0124  0.1870  0.9043
 1087SOL    HW2 4713   0.823   0.567   0.910 -4.2001  1.0441  0.0264
 1088SOL     OW 4714   2.625   5.359   5.506 -0.0268  0.3141 -0.0628
 1088SOL    HW1 4715   2.569   5.340   5.582 -0.5898 -1.3480 -0.8572
 1088SOL    HW2 4716   2.666   5.443   5.528 -1.2753  0.5854  1.4401
 1089SOL     OW 4717   1.414   5.715   2.623  0.0309 -0.4968 -0.1275
 1089SOL    HW1 4718   1.346   5.647   2.629 -1.2356  0.6993 -0.3693
 1089SOL    HW2 4719   1.385   5.782   2.684 -0.0216  0.8717 -1.5990
 1090SOL     OW 4720   3.646   0.422   0.457 -0.3728 -0.7499  0.3723
 1090SOL    HW1 4721   3.597   0.451   0.380  1.5725  2.9850  0.3197
 1090SOL    HW2 4722   3.589   0.443   0.531  0.5405  2.8113  0.2668
 1091SOL     OW 4723   2.091   6.009   4.217  0.4055 -1.1059 -0.2985
 1091SOL    HW1 4724   2.084   5.955   4.139 -0.3490 -2.7019  0.8238
 1091SOL    HW2 4725   2.026   6.079   4.204 -0.4047 -1.9099 -0.6805
 1092SOL     OW 4726   5.452   5.893   1.121 -0.2839  0.1797  0.1827
 1092SOL    HW1 4727   5.448   5.809   1.167 -0.5094 -0.2909 -0.6754
 1092SOL    HW2 4728   5.529   5.886   1.064  0.1743  0.8749  0.6920
 1093SOL     OW 4729   0.535   4.311   1.002 -0.1268 -0.1239  0.0730
 1093SOL    HW1 4730   0.606   4.251   1.023 -0.2468 -0.1381  0.4549
 1093SOL    HW2 4731   0.497   4.334   1.087  0.1725  0.8059 -0.0275
 1094SOL     OW 4732   1.106   3.442   1.651 -0.0680  0.3328 -0.1049
 1094SOL    HW1 4733   1.051   3.467   1.726  0.1283 -1.6500  0.7642
 1094SOL    HW2 4734   1.188   3.489   1.666  0.3847 -0.8700  1.6146
 1095SOL     OW 4735   2.566   6.415   0.136 -0.4232 -0.0044 -0.1364
 1095SOL    HW1 4736   2.621   6.337   0.127 -1.7043 -0.8941 -0.5137
 1095SOL    HW2 4737   2.512   6.397   0.213 -0.1846  0.8740  0.2479
 1096SOL     OW 4738   4.668   0.373   1.103 -0.1568 -0.1771  0.0295
 1096SOL    HW1 4739   4.627   0.458   1.113 -0.6427 -0.4656  0.5520
 1096SOL    HW2 4740   4.605   0.311   1.141 -0.4187 -0.9194 -1.5396
 1097SOL     OW 4741   2.004   8.760   8.780 -0.0929 -0.2854  0.0385
 1097SOL    HW1 4742   2.007   8.688   8.717  2.9240  1.4672 -2.0811
 1097SOL    HW2 4743   2.001   8.839   8.726  3.4415  1.3484  1.8973
 1098SOL     OW 4744   1.420   2.714   8.860 -0.2807 -0.6160  0.2347
 1098SOL    HW1 4745   1.380   2.772   8.925 -0.1772 -1.4263  1.0342
 1098SOL    HW2 4746   1.453   2.640   8.911 -2.2847 -2.4416 -0.9517
 1099SOL     OW 4747   3.888   8.630   0.409  0.0127  0.0563 -0.2317
 1099SOL    HW1 4748   3.883   8.684   0.487 -0.0010  0.3447 -0.4283
 1099SOL    HW2 4749   3.927   8.547   0.438  0.8321  0.4809 -0.0886
 1100SOL     OW 4750   7.571   8.497   8.084  0.3668  0.3874  0.5109
 1100SOL    HW1 4751   7.650   8.547   8.062 -0.1679  0.6743 -0.8353
 1100SOL    HW2 4752   7.507   8.563   8.109 -0.5707  0.5330 -1.9675
 1101SOL     OW 4753   0.420   2.263   6.776  0.0234  0.3546  0.9647
 1101SOL    HW1 4754   0.429   2.168   6.779  1.3159  0.3269 -1.5283
 1101SOL    HW2 4755   0.326   2.278   6.766 -0.0223 -0.7681 -0.6167
 1102SOL     OW 4756   3.239   1.880   4.153 -0.1795 -0.3965 -0.4608
 1102SOL    HW1 4757   3.264   1.795   4.190  0.4784  0.0269  0.0960
 1102SOL    HW2 4758   3.251   1.870   4.059  1.2169 -0.5206 -0.2945
 1103SOL     OW 4759   6.498   3.179   1.321 -0.1237 -0.6362 -0.2770
 1103SOL    HW1 4760   6.423   3.187   1.380 -0.0410 -1.6114 -0.0217
 1103SOL    HW2 4761   6.464   3.206   1.235 -0.7761 -1.0978 -0.1728
 1104SOL     OW 4762   0.735   2.196   2.551  0.2711 -0.3428 -0.2536
 1104SOL    HW1 4763   0.660   2.147   2.584  0.8739 -0.6416  0.7353
 1104SOL    HW2 4764   0.807   2.133   2.548  0.6619  0.1015 -0.4987
 1105SOL     OW 4765   3.040   0.917   4.898  0.3622 -0.0965  0.1994
 1105SOL    HW1 4766   2.980   0.846   4.877 -0.9599  0.9111  0.4574
 1105SOL    HW2 4767   2.992   0.972   4.960  0.7547  1.8259 -1.1110
 1106SOL     OW 4768   4.720   6.721   8.850 -0.0082 -0.0681  0.3878
 1106SOL    HW1 4769   4.672   6.785   8.798  0.6162  0.2994  0.2519
 1106SOL    HW2 4770   4.706   6.638   8.805 -0.7096 -0.0154  0.4862
 1107SOL     OW 4771   5.598   0.914   6.834 -0.1601 -0.1491  0.1035
 1107SOL    HW1 4772   5.685   0.875   6.826 -0.3107 -0.5706  0.5013
 1107SOL    HW2 4773   5.598   0.985   6.770  0.1978 -0.6527 -0.4698
 1108SOL     OW 4774   5.587   5.024   3.078 -0.5054 -0.2009  0.0976
 1108SOL    HW1 4775   5.657   5.038   3.143 -0.6399  1.8850 -0.1353
 1108SOL    HW2 4776   5.508   5.011   3.131 -0.7564  2.2304  0.4616
 1109SOL     OW 4777   1.543   0.919   4.233 -0.1042  0.1336  0.1540
 1109SOL    HW1 4778   1.558   0.907   4.139 -0.1148  0.4844  0.1067
 1109SOL    HW2 4779   1.458   0.878   4.249 -0.5385  0.8910 -0.1679
 1110SOL     OW 4780   7.909   8.841   7.302 -0.5292 -0.2968 -0.2196
 1110SOL    HW1 4781   7.925   8.845   7.208  1.4824 -0.4901  0.0701
 1110SOL    HW2 4782   7.871   8.755   7.317 -0.2215 -0.5314 -0.7740
 1111SOL     OW 4783   2.736   1.361   5.849  0.2999  0.1162  0.6435
 1111SOL    HW1 4784   2.710   1.410   5.927 -1.0352 -0.1065  0.3606
 1111SOL    HW2 4785   2.831   1.351   5.858  1.0288  4.2272 -0.1224
 1112SOL     OW 4786   5.822   5.554   7.033 -0.1743 -0.5491 -0.5764
 1112SOL    HW1 4787   5.852   5.616   7.100 -0.6167  0.6776 -1.4843
 1112SOL    HW2 4788   5.886   5.482   7.037  1.0108  0.4758 -0.2543
 1113SOL     OW 4789   8.437   3.937   3.875 -0.1579  0.4195  0.1419
 1113SOL    HW1 4790   8.358   3.974   3.914 -0.5068  1.0161 -1.0916
 1113SOL    HW2 4791   8.504   3.947   3.943 -1.2845 -0.7847  1.5002
 1114SOL     OW 4792   4.111   3.736   9.131  0.4213  0.1545  0.1652
 1114SOL    HW1 4793   4.185   3.682   9.159 -1.7953 -2.2324  1.8561
 1114SOL    HW2 4794   4.072   3.689   9.058 -1.5175 -0.6187  1.6260
 1115SOL     OW 4795   6.291   7.720   1.516  0.4775  0.1391 -0.4742
 1115SOL    HW1 4796   6.326   7.635   1.544 -1.9936 -0.9839 -0.5121
 1115SOL    HW2 4797   6.368   7.772   1.495  2.1142 -1.7955  0.4029
 1116SOL     OW 4798   7.141   3.982   5.228  0.0667  0.1794 -0.2887
 1116SOL    HW1 4799   7.125   4.013   5.139  0.6236 -2.1334 -1.2633
 1116SOL    HW2 4800   7.226   3.938   5.223  0.2850  0.3214  1.4874
 1117SOL     OW 4801   1.055   1.432   5.848  0.1241  0.2459  0.4692
 1117SOL    HW1 4802   1.102   1.491   5.789  1.1823 -0.7099  0.3257
 1117SOL    HW2 4803   1.068   1.345   5.811 -1.3645 -0.1170  0.7132
 1118SOL     OW 4804   4.409   4.889   6.161 -0.3906  0.9058 -0.8888
 1118SOL    HW1 4805   4.465   4.822   6.121  1.8932  1.1391  1.6061
 1118SOL    HW2 4806   4.359   4.842   6.228 -0.2056  1.3269 -0.4430
 1119SOL     OW 4807   1.835   7.278   7.240 -0.0575  0.2910 -0.0072
 1119SOL    HW1 4808   1.827   7.320   7.326 -0.4412  0.5724 -0.1766
 1119SOL    HW2 4809   1.758   7.307   7.192 -1.3035 -2.0200  0.4481
 1120SOL     OW 4810   5.013   2.825   2.677 -0.2613 -0.0044 -0.0915
 1120SOL    HW1 4811   5.055   2.744   2.705  1.6783  1.2226  0.8252
 1120SOL    HW2 4812   5.060   2.850   2.598  0.7346  1.3164  0.8665
 1121SOL     OW 4813   6.010   8.978   0.612 -0.4881  0.5668  0.1795
 1121SOL    HW1 4814   6.081   8.974   0.548  1.2634 -1.3644  2.0956
 1121SOL    HW2 4815   6.048   8.944   0.693 -3.6525 -0.8658  1.2568
 1122SOL     OW 4816   9.113   0.692   7.970 -0.0046 -0.2125  0.3553
 1122SOL    HW1 4817   9.147   0.755   8.034 -1.3520 -0.0006  0.9100
 1122SOL    HW2 4818   9.020   0.713   7.964 -0.0988 -0.9230 -0.8979
 1123SOL     OW 4819   2.953   1.850   2.168  0.3050  0.3466  0.9037
 1123SOL    HW1 4820   2.953   1.769   2.116  0.2811  0.9285 -0.0399
 1123SOL    HW2 4821   3.039   1.851   2.211  1.6744  1.3509 -1.6237
 1124SOL     OW 4822   3.716   3.341   6.802 -0.7004 -0.5217  0.1174
 1124SOL    HW1 4823   3.722   3.246   6.807 -1.0633 -0.4969  1.4405
 1124SOL    HW2 4824   3.739   3.371   6.890  1.1604  0.7251 -0.7291
 1125SOL     OW 4825   0.088   7.198   4.813  0.6249  0.4512 -0.3441
 1125SOL    HW1 4826   0.040   7.138   4.871  0.1630  1.2197  0.0730
 1125SOL    HW2 4827   0.176   7.161   4.809  0.5095  0.0737  0.3877
 1126SOL     OW 4828   3.383   3.533   0.019 -0.3378 -0.9434 -0.5691
 1126SOL    HW1 4829   3.375   3.458  -0.039 -0.9277 -0.8719 -0.5894
 1126SOL    HW2 4830   3.366   3.609  -0.037  0.4096 -0.7818 -0.5816
 1127SOL     OW 4831   7.581   1.542   5.734 -0.1344 -0.4325 -0.1876
 1127SOL    HW1 4832   7.601   1.597   5.658  0.1796  0.8695  0.7921
 1127SOL    HW2 4833   7.487   1.554   5.749  0.2492  1.3361  1.0993
 1128SOL     OW 4834   4.244   6.526   2.812 -0.3646  0.0595  0.1018
 1128SOL    HW1 4835   4.191   6.505   2.889 -0.3931  0.1619  0.1102
 1128SOL    HW2 4836   4.182   6.529   2.740 -0.3654  0.1538  0.1071
 1129SOL     OW 4837   4.972   4.994   4.988 -0.0034 -0.1701 -0.5759
 1129SOL    HW1 4838   5.046   4.948   5.027  0.3206  1.3242  0.6919
 1129SOL    HW2 4839   4.937   5.048   5.059 -2.8802 -1.4292 -0.8905
 1130SOL     OW 4840   0.392   6.024   6.431 -0.3964 -0.5452  0.3681
 1130SOL    HW1 4841   0.353   6.006   6.516  0.6166 -0.2902  0.9020
 1130SOL    HW2 4842   0.381   6.119   6.419  2.0165 -0.0357  1.5766
 1131SOL     OW 4843   6.328   7.685   9.043 -0.7783  0.2483 -0.1166
 1131SOL    HW1 4844   6.317   7.623   8.971 -0.9942 -0.9797  0.9371
 1131SOL    HW2 4845   6.238   7.711   9.066 -0.7119  0.6091 -0.2533
 1132SOL     OW 4846   1.747   0.166   1.567 -0.1982 -0.0116 -0.3785
 1132SOL    HW1 4847   1.820   0.227   1.574 -2.5122  2.7586  1.5151
 1132SOL    HW2 4848   1.766   0.098   1.632  0.7443  0.5684 -0.0313
 1133SOL     OW 4849   4.684   7.180   3.265 -0.0978  0.0094 -0.3540
 1133SOL    HW1 4850   4.613   7.118   3.246  1.4453 -1.7937 -0.5606
 1133SOL    HW2 4851   4.693   7.177   3.361 -0.0013 -0.1220 -0.3667
 1134SOL     OW 4852   8.645   4.852   8.932  0.8089  0.1761  0.1276
 1134SOL    HW1 4853   8.628   4.892   8.847  0.4052  1.3438  0.7369
 1134SOL    HW2 4854   8.732   4.883   8.956  0.3383  1.0625  0.7762
 1135SOL     OW 4855   6.497   4.707   1.724  0.7029 -0.1269 -0.1959
 1135SOL    HW1 4856   6.542   4.627   1.751  0.3704 -0.1865  0.1892
 1135SOL    HW2 4857   6.465   4.745   1.805 -0.0590 -0.1537 -0.4723
 1136SOL     OW 4858   4.032   6.262   2.794  0.7022  0.0161  0.4888
 1136SOL    HW1 4859   3.960   6.218   2.840  0.3816  0.6943  0.6449
 1136SOL    HW2 4860   4.009   6.355   2.795  0.1740 -0.0190 -1.9407
 1137SOL     OW 4861   0.971   2.220   4.286 -0.5370 -0.2699 -0.0818
 1137SOL    HW1 4862   0.975   2.252   4.196  0.1528 -0.2816 -0.0635
 1137SOL    HW2 4863   1.009   2.133   4.282 -0.0603 -0.0847  0.2968
 1138SOL     OW 4864   3.354   1.432   1.084 -0.1125  0.5589  0.2802
 1138SOL    HW1 4865   3.444   1.404   1.099  0.1251  1.7433  1.2282
 1138SOL    HW2 4866   3.319   1.452   1.171 -0.6410  1.9833 -0.2162
 1139SOL     OW 4867   1.718   3.849   7.146  0.3296  0.5690  0.0186
 1139SOL    HW1 4868   1.778   3.908   7.100 -0.2185  1.4217  0.3717
 1139SOL    HW2 4869   1.659   3.908   7.193 -0.3307 -0.2692  0.2464
 1140SOL     OW 4870   2.866   4.379   8.785 -0.1777  0.1702 -0.3039
 1140SOL    HW1 4871   2.902   4.457   8.827  0.6381 -0.7799  0.8331
 1140SOL    HW2 4872   2.852   4.318   8.858  1.2962 -1.5522 -1.3842
 1141SOL     OW 4873   4.912   6.546   2.495 -0.2760 -0.3051  0.1974
 1141SOL    HW1 4874   4.961   6.477   2.540 -0.1598 -0.8794 -0.7925
 1141SOL    HW2 4875   4.978   6.595   2.446 -0.5183 -0.2764 -0.1026
 1142SOL     OW 4876   1.117   4.196   7.879 -0.1357  0.1916 -0.0736
 1142SOL    HW1 4877   1.176   4.249   7.932 -0.9924 -0.1958  1.3108
 1142SOL    HW2 4878   1.152   4.107   7.884 -1.5296 -0.3219  1.9287
 1143SOL     OW 4879   7.922   2.854   3.316 -0.4193 -0.0306  0.7805
 1143SOL    HW1 4880   7.861   2.800   3.367 -0.5799 -0.2413  0.3676
 1143SOL    HW2 4881   7.953   2.797   3.247 -1.0838  0.5880 -0.0495
 1144SOL     OW 4882   0.384   7.272   1.658 -0.0533  0.0000  0.4777
 1144SOL    HW1 4883   0.300   7.230   1.638  0.2809 -0.5416  0.1872
 1144SOL    HW2 4884   0.370   7.364   1.636 -0.2773 -0.2536 -0.5162
 1145SOL     OW 4885   7.632   3.259   7.795 -0.2760 -0.3815  0.1048
 1145SOL    HW1 4886   7.615   3.226   7.883  0.7260 -1.5354 -0.1018
 1145SOL    HW2 4887   7.725   3.242   7.781  0.0187  1.4686 -0.4988
 1146SOL     OW 4888   0.050   2.109   3.212 -0.5051  0.9573 -0.4376
 1146SOL    HW1 4889  -0.035   2.142   3.240 -0.9862 -1.5918  1.4628
 1146SOL    HW2 4890   0.111   2.136   3.281 -0.5228 -0.2586  0.0859
 1147SOL     OW 4891   6.044   5.996   2.458 -0.4364  0.2163  0.3091
 1147SOL    HW1 4892   6.089   6.036   2.384  1.9080 -2.0039  0.3800
 1147SOL    HW2 4893   6.006   6.069   2.506  0.7155  1.9836 -1.3350
 1148SOL     OW 4894   7.808   6.822   7.932  0.0988  0.6493 -0.2828
 1148SOL    HW1 4895   7.868   6.846   8.003  0.5815 -1.3322  0.0384
 1148SOL    HW2 4896   7.725   6.864   7.956  1.1453  2.9363 -0.4272
 1149SOL     OW 4897   4.024   4.241   4.045 -0.2210  0.3966 -0.2117
 1149SOL    HW1 4898   3.987   4.311   4.098  1.4522  0.3927  1.0377
 1149SOL    HW2 4899   4.005   4.160   4.094 -1.0660  0.0783 -1.0308
 1150SOL     OW 4900   2.220   4.543   0.015  0.2603  0.5383 -0.0561
 1150SOL    HW1 4901   2.302   4.572   0.055  1.3067 -0.1838 -1.5671
 1150SOL    HW2 4902   2.192   4.616  -0.039 -1.3717  1.6725  2.1810
 1151SOL     OW 4903   1.309   3.543   5.510 -0.0275 -0.3732  0.5488
 1151SOL    HW1 4904   1.396   3.581   5.514  0.4676 -1.3929  0.0752
 1151SOL    HW2 4905   1.323   3.450   5.527 -0.8210 -0.7903 -0.8565
 1152SOL     OW 4906   3.774   1.831   1.388  0.2454 -0.8294 -0.2250
 1152SOL    HW1 4907   3.787   1.926   1.388 -0.8522 -0.6688  0.3290
 1152SOL    HW2 4908   3.827   1.801   1.463 -0.4111 -0.4950  0.3862
 1153SOL     OW 4909   4.207   1.076   8.231  0.3302  0.0461 -0.1916
 1153SOL    HW1 4910   4.225   1.167   8.209  0.8757 -0.3462 -1.4706
 1153SOL    HW2 4911   4.145   1.081   8.304  0.0327  1.4313 -0.5050
 1154SOL     OW 4912   2.367   1.269   2.083 -0.5056 -0.5772  0.2598
 1154SOL    HW1 4913   2.436   1.315   2.036 -0.6294  0.9285  1.4842
 1154SOL    HW2 4914   2.374   1.178   2.053  1.1136 -0.1918 -0.6460
 1155SOL     OW 4915   3.854   3.059   6.075 -0.0580 -0.5147  0.6818
 1155SOL    HW1 4916   3.783   3.066   6.139 -0.5130  1.7086  0.0313
 1155SOL    HW2 4917   3.832   2.983   6.022 -1.0262 -0.8873  1.5976
 1156SOL     OW 4918   7.124   7.135   4.119  1.1833  0.7894 -0.5116
 1156SOL    HW1 4919   7.111   7.165   4.029  1.4247 -0.9100 -1.1684
 1156SOL    HW2 4920   7.219   7.133   4.130  1.2368 -0.8859 -0.9565
 1157SOL     OW 4921   2.481   1.981   8.981  0.3070 -0.4699  0.5359
 1157SOL    HW1 4922   2.539   1.951   9.051  0.5118 -2.5144 -0.4522
 1157SOL    HW2 4923   2.493   1.917   8.911 -0.4517  1.1090 -1.0965
 1158SOL     OW 4924   6.244   2.012   2.589  0.3232  0.3057 -0.5412
 1158SOL    HW1 4925   6.326   1.964   2.589  0.0976 -0.1259  0.5557
 1158SOL    HW2 4926   6.180   1.951   2.551  0.4515  0.5439 -1.1480
 1159SOL     OW 4927   8.822   5.411   0.232 -0.5698  0.3859 -0.3898
 1159SOL    HW1 4928   8.850   5.441   0.146 -0.8408  0.9915 -0.2793
 1159SOL    HW2 4929   8.789   5.322   0.218  1.5428 -0.4267 -0.4909
 1160SOL     OW 4930   7.256   1.725   4.163 -0.1949 -0.4206  0.0023
 1160SOL    HW1 4931   7.233   1.656   4.225 -0.9772  0.4064  0.6733
 1160SOL    HW2 4932   7.274   1.801   4.219  1.5098 -0.3005 -0.6684
 1161SOL     OW 4933   1.621   2.629   3.788  0.1277  0.0974 -0.1364
 1161SOL    HW1 4934   1.669   2.704   3.823 -0.6126  0.1703  0.7645
 1161SOL    HW2 4935   1.548   2.667   3.740  0.2830 -0.0314 -0.4743
 1162SOL     OW 4936   7.233   7.296   6.677  0.2539  0.4598  0.0059
 1162SOL    HW1 4937   7.237   7.201   6.689  0.4066  0.6378  1.4705
 1162SOL    HW2 4938   7.150   7.310   6.632 -1.0020 -0.1773  2.0105
 1163SOL     OW 4939   0.342   7.260   5.558  0.1356 -0.7629  0.0631
 1163SOL    HW1 4940   0.290   7.280   5.480 -0.0203  0.8928  0.5502
 1163SOL    HW2 4941   0.278   7.231   5.623 -0.1941  0.9725  0.5630
 1164SOL     OW 4942   7.758   5.610   5.463  0.2857  0.2844 -0.5097
 1164SOL    HW1 4943   7.852   5.606   5.447  0.1531 -2.0662 -1.1156
 1164SOL    HW2 4944   7.719   5.586   5.379 -0.7727 -1.0987  0.3420
 1165SOL     OW 4945   8.317   5.468   2.906  0.0031 -0.2189  0.2620
 1165SOL    HW1 4946   8.283   5.379   2.897 -0.1214 -0.1352 -0.1163
 1165SOL    HW2 4947   8.412   5.458   2.909 -0.0061 -0.3575  0.1068
 1166SOL     OW 4948   5.495   4.556   1.071 -0.7450  0.5825 -0.5620
 1166SOL    HW1 4949   5.472   4.559   1.164 -0.4378  2.6576 -0.5054
 1166SOL    HW2 4950   5.583   4.592   1.067 -0.4321 -0.2647 -1.5786
 1167SOL     OW 4951   3.375   2.397   8.641  0.4422 -0.0356  0.3095
 1167SOL    HW1 4952   3.287   2.433   8.650  0.3760  0.1162 -0.8499
 1167SOL    HW2 4953   3.375   2.355   8.555  1.5575  0.1287  0.2212
 1168SOL     OW 4954   6.528   0.510   7.284 -0.1505  0.9826 -0.4612
 1168SOL    HW1 4955   6.457   0.573   7.299  1.7370  2.7024  2.1061
 1168SOL    HW2 4956   6.507   0.436   7.341 -0.6858  0.7269 -0.9759
 1169SOL     OW 4957   6.211   5.314   7.529  0.2037  0.2440  0.1275
 1169SOL    HW1 4958   6.192   5.396   7.484 -1.2634 -0.3041 -0.3263
 1169SOL    HW2 4959   6.134   5.297   7.583  0.2929 -1.0249 -0.0960
 1170SOL     OW 4960   7.938   5.778   5.850  0.5723  0.1614  0.1381
 1170SOL    HW1 4961   7.956   5.861   5.893  0.6161  0.5579 -0.6372
 1170SOL    HW2 4962   8.024   5.742   5.829  0.5424  1.0118 -1.5774
 1171SOL     OW 4963   3.012   5.190   6.171  0.6215 -0.0604  0.0666
 1171SOL    HW1 4964   3.070   5.228   6.237 -1.7036 -0.3257  2.4060
 1171SOL    HW2 4965   3.066   5.123   6.128  1.7952 -1.0511  2.8441
 1172SOL     OW 4966   9.069   6.886   0.849 -0.0536 -0.3182 -0.2180
 1172SOL    HW1 4967   9.099   6.976   0.859  0.0370 -0.2380 -1.1104
 1172SOL    HW2 4968   9.100   6.841   0.928 -2.0207  0.9191  1.3474
 1173SOL     OW 4969   7.725   4.226   5.133 -0.0877  0.2110  0.4838
 1173SOL    HW1 4970   7.769   4.285   5.195  0.8330 -0.6291  0.6640
 1173SOL    HW2 4971   7.701   4.282   5.059  0.0836  0.9514  0.9768
 1174SOL     OW 4972   2.035   1.706   6.484  0.3003 -0.2765 -0.3855
 1174SOL    HW1 4973   1.985   1.728   6.405 -1.1413 -0.6689  0.3986
 1174SOL    HW2 4974   2.090   1.783   6.499 -2.2094  1.4864  0.3938
 1175SOL     OW 4975   4.149   7.070   0.484 -0.0817  0.1663 -0.4599
 1175SOL    HW1 4976   4.067   7.085   0.436  0.2608  2.4949 -0.4412
 1175SOL    HW2 4977   4.136   7.113   0.568  0.8928 -0.0673 -0.1780
 1176SOL     OW 4978   0.860   5.077   5.074 -0.0136  0.5500  0.9098
 1176SOL    HW1 4979   0.921   5.148   5.093  0.4488  0.6581 -0.7817
 1176SOL    HW2 4980   0.850   5.078   4.978  0.6774 -2.1760  0.7032
 1177SOL     OW 4981   6.825   1.350   3.485  0.1347 -0.1249 -0.2634
 1177SOL    HW1 4982   6.746   1.402   3.501  0.2682  0.1431 -0.4537
 1177SOL    HW2 4983   6.886   1.412   3.444  0.0840 -0.5816 -1.0613
 1178SOL     OW 4984   6.199   4.083   1.184 -0.2431 -0.6693  0.0673
 1178SOL    HW1 4985   6.183   4.176   1.202 -1.5241 -0.4685 -1.8490
 1178SOL    HW2 4986   6.139   4.037   1.242  0.2487 -0.3151  0.8795
 1179SOL     OW 4987   5.321   3.372   8.237  0.4835 -0.4276 -0.3817
 1179SOL    HW1 4988   5.338   3.355   8.330  0.5351 -3.1975 -0.8068
 1179SOL    HW2 4989   5.233   3.407   8.235  1.0026  1.0336  0.7999
 1180SOL     OW 4990   1.531   5.675   6.630 -0.2699 -0.3039 -0.3720
 1180SOL    HW1 4991   1.471   5.633   6.692  0.9462 -1.0699  0.3058
 1180SOL    HW2 4992   1.543   5.763   6.666 -1.0341 -0.1082 -0.5607
 1181SOL     OW 4993   7.874   7.226   3.965  0.4480  0.0675 -0.3826
 1181SOL    HW1 4994   7.866   7.149   4.021  1.1228 -0.2609 -0.7303
 1181SOL    HW2 4995   7.849   7.299   4.022  0.4296 -0.3383  0.1377
 1182SOL     OW 4996   0.246   3.173   0.175 -0.3559  0.2894  0.0543
 1182SOL    HW1 4997   0.319   3.234   0.182 -1.0720  1.1122  0.4525
 1182SOL    HW2 4998   0.174   3.225   0.141 -2.1242  0.6682  3.9268
 1183SOL     OW 4999   3.187   6.367   7.862  0.2669  0.1210  0.6883
 1183SOL    HW1 5000   3.117   6.419   7.902  0.4816 -0.1146  1.3858
 1183SOL    HW2 5001   3.149   6.334   7.780  1.3770  4.6508 -1.9707
 1184SOL     OW 5002   0.135   1.457   7.608  0.5329 -0.4489  0.1410
 1184SOL    HW1 5003   0.077   1.461   7.684  0.0379 -1.3794 -0.1686
 1184SOL    HW2 5004   0.080   1.422   7.538  1.4549 -1.3707 -0.1470
 1185SOL     OW 5005   0.310   2.485   1.249 -0.0584  0.0135 -0.5907
 1185SOL    HW1 5006   0.285   2.567   1.206 -0.7797  0.9409  1.4345
 1185SOL    HW2 5007   0.227   2.442   1.269  0.2078 -0.0738  0.3881
 1186SOL     OW 5008   0.245   4.718   5.950 -0.1006 -0.1359 -0.2878
 1186SOL    HW1 5009   0.320   4.708   5.891  2.7087 -1.4350  3.1940
 1186SOL    HW2 5010   0.281   4.758   6.029 -3.0909 -0.8868  1.6157
 1187SOL     OW 5011   3.797   7.691   6.641 -0.3995  0.6656  0.1967
 1187SOL    HW1 5012   3.874   7.677   6.587  0.1896  1.7974  0.7134
 1187SOL    HW2 5013   3.792   7.614   6.697 -0.4304 -0.0349 -0.7517
 1188SOL     OW 5014   5.930   5.022   2.067 -0.3007 -0.3528 -0.2531
 1188SOL    HW1 5015   5.872   5.096   2.084  0.3359 -0.2900  2.1091
 1188SOL    HW2 5016   5.899   4.985   1.985 -2.1123  1.1233 -0.3013
 1189SOL     OW 5017   0.645   3.858   7.885  0.3480 -0.6272  0.3512
 1189SOL    HW1 5018   0.586   3.925   7.851  0.0785 -0.7719  0.5303
 1189SOL    HW2 5019   0.676   3.811   7.807  1.0467  0.1134  0.1651
 1190SOL     OW 5020   0.966   4.150   3.949  0.3086 -0.5831  0.3903
 1190SOL    HW1 5021   1.048   4.162   3.900  0.3263  1.3243  0.8449
 1190SOL    HW2 5022   0.897   4.177   3.889  0.2630  0.8505  1.0504
 1191SOL     OW 5023   7.061   7.930   8.241 -0.0531  0.3695 -0.3081
 1191SOL    HW1 5024   7.039   7.842   8.274 -0.0149  0.4958  0.0560
 1191SOL    HW2 5025   7.090   7.915   8.151  1.4534 -0.1917  0.2450
 1192SOL     OW 5026   3.081   8.178   9.100  0.7515 -0.1637  0.0603
 1192SOL    HW1 5027   2.992   8.187   9.132 -0.2767  2.1021 -2.9451
 1192SOL    HW2 5028   3.134   8.229   9.162 -0.5698  1.2067  0.1192
 1193SOL     OW 5029   3.484   7.158   3.720  0.2875 -0.3183 -0.0145
 1193SOL    HW1 5030   3.547   7.208   3.669 -0.6063  0.2310 -0.6059
 1193SOL    HW2 5031   3.535   7.085   3.756  1.4557  0.5959  0.2689
 1194SOL     OW 5032   1.347   6.199   0.318 -0.1155  0.4691 -0.8920
 1194SOL    HW1 5033   1.356   6.250   0.399 -0.3787 -0.5579 -0.1860
 1194SOL    HW2 5034   1.265   6.229   0.279  0.2664  1.3312 -1.0554
 1195SOL     OW 5035   5.045   6.506   1.182  0.0080  0.3834 -0.5733
 1195SOL    HW1 5036   5.009   6.594   1.172  1.5949  1.1498  0.1319
 1195SOL    HW2 5037   4.982   6.460   1.238 -1.5512  0.5763 -2.0530
 1196SOL     OW 5038   7.592   8.314   0.828 -0.0969  0.7438  0.1225
 1196SOL    HW1 5039   7.604   8.219   0.830  0.1999  0.7915  1.2337
 1196SOL    HW2 5040   7.497   8.326   0.837 -0.0386  0.5575  1.1696
 1197SOL     OW 5041   3.075   4.256   3.083 -0.5070  0.4543  0.5713
 1197SOL    HW1 5042   3.039   4.173   3.114  0.4097 -0.4352 -0.6558
 1197SOL    HW2 5043   3.119   4.293   3.159 -0.9720 -0.1512  1.1481
 1198SOL     OW 5044   2.701   2.669   3.671  0.3748  0.0140 -0.0510
 1198SOL    HW1 5045   2.694   2.683   3.765 -1.2237 -0.0191 -0.1401
 1198SOL    HW2 5046   2.775   2.608   3.661 -0.0808 -0.7995  1.2631
 1199SOL     OW 5047   0.592   6.871   7.053 -0.3617  0.5115 -0.0746
 1199SOL    HW1 5048   0.581   6.896   7.145 -2.7068 -2.1186  0.5014
 1199SOL    HW2 5049   0.686   6.860   7.042  0.1253  2.6574  1.4636
 1200SOL     OW 5050   3.864   5.240   5.632 -0.0671 -0.2497 -0.0612
 1200SOL    HW1 5051   3.778   5.215   5.598 -0.0636  0.9588 -1.0061
 1200SOL    HW2 5052   3.845   5.289   5.713 -0.0547 -3.5895  2.1602
 1201SOL     OW 5053   7.528   8.320   4.559  0.3868 -0.0059  0.4104
 1201SOL    HW1 5054   7.528   8.225   4.568  0.5418 -0.0183  0.2816
 1201SOL    HW2 5055   7.444   8.348   4.596  0.1695 -0.2240  0.0834
 1202SOL     OW 5056   8.932   0.718   7.206 -0.2480 -0.1838 -0.0634
 1202SOL    HW1 5057   8.897   0.640   7.164 -2.4532  1.6900 -2.0271
 1202SOL    HW2 5058   9.004   0.746   7.149 -0.0938 -0.2694  0.0900
 1203SOL     OW 5059   3.043   6.556   1.498 -0.0079 -0.6010  0.6567
 1203SOL    HW1 5060   3.086   6.615   1.560 -0.9449  1.5852 -0.6199
 1203SOL    HW2 5061   3.112   6.498   1.467  1.0361 -0.0113  1.8126
 1204SOL     OW 5062   8.172   6.822   8.343  0.4205 -0.0840  0.0685
 1204SOL    HW1 5063   8.194   6.901   8.392  1.1004  0.8996 -1.7264
 1204SOL    HW2 5064   8.080   6.806   8.364  0.1265  1.4783  0.0894
 1205SOL     OW 5065   4.785   8.059   1.115 -0.4291 -0.1554 -0.4967
 1205SOL    HW1 5066   4.862   8.026   1.161 -0.6266 -2.6356 -1.7726
 1205SOL    HW2 5067   4.786   8.015   1.030 -1.7328  1.9289 -1.6961
 1206SOL     OW 5068   7.710   1.452   0.469  0.2686  1.1258 -0.2973
 1206SOL    HW1 5069   7.681   1.487   0.554 -0.9988  0.2050 -0.3299
 1206SOL    HW2 5070   7.721   1.530   0.414  1.7745  1.8018  0.8611
 1207SOL     OW 5071   2.306   6.650   5.829  0.4009 -0.2439 -0.3275
 1207SOL    HW1 5072   2.384   6.663   5.882 -0.2839 -0.5380  0.7783
 1207SOL    HW2 5073   2.281   6.559   5.845  0.6591 -0.6083 -1.8364
 1208SOL     OW 5074   0.208   0.314   1.325 -0.1367 -0.1907  0.5094
 1208SOL    HW1 5075   0.129   0.320   1.378  0.7958  0.3592  1.9035
 1208SOL    HW2 5076   0.180   0.271   1.244 -1.9623  0.5298  0.7238
 1209SOL     OW 5077   0.473   1.147   6.837 -0.7923 -0.3452  0.0091
 1209SOL    HW1 5078   0.521   1.123   6.915 -1.9842 -0.7167  0.6541
 1209SOL    HW2 5079   0.387   1.106   6.848 -1.2405  0.2370 -1.1294
 1210SOL     OW 5080   3.980   3.424   1.647 -0.2498 -0.3187  0.0168
 1210SOL    HW1 5081   3.996   3.349   1.590  1.8782 -0.3677  0.5912
 1210SOL    HW2 5082   4.051   3.420   1.712 -0.2603  1.9962  0.2462
 1211SOL     OW 5083   3.808   6.260   6.468  0.6069 -0.3060 -0.3436
 1211SOL    HW1 5084   3.860   6.250   6.547  0.2035  0.1206 -0.0167
 1211SOL    HW2 5085   3.737   6.319   6.493  0.0622 -0.7431 -0.8258
 1212SOL     OW 5086   0.601   3.901   3.464  0.1506  0.3445 -0.1088
 1212SOL    HW1 5087   0.533   3.886   3.530 -0.3608 -2.6713 -1.1504
 1212SOL    HW2 5088   0.683   3.903   3.514 -0.4251  0.5913  0.8519
 1213SOL     OW 5089   6.715   3.499   1.885  0.4079  0.4314 -0.0952
 1213SOL    HW1 5090   6.713   3.529   1.976  0.5396 -0.3320  0.1634
 1213SOL    HW2 5091   6.668   3.568   1.836 -0.0466  0.6324  0.6076
 1214SOL     OW 5092   3.384   1.547   3.751  0.6130 -0.4867 -0.0643
 1214SOL    HW1 5093   3.346   1.620   3.800 -0.7861 -0.0658 -1.6756
 1214SOL    HW2 5094   3.326   1.537   3.675  2.2852 -1.5548 -1.2556
 1215SOL     OW 5095   6.219   6.206   8.410 -0.2475  0.3664 -0.4247
 1215SOL    HW1 5096   6.147   6.165   8.459  1.0490 -1.3168  0.1610
 1215SOL    HW2 5097   6.289   6.216   8.475  0.2745  1.4169 -1.1324
 1216SOL     OW 5098   5.678   6.151   1.558 -0.0362  0.2175 -0.9781
 1216SOL    HW1 5099   5.748   6.172   1.496  1.3756 -1.1221  0.0724
 1216SOL    HW2 5100   5.717   6.086   1.617 -1.0593  1.8704  1.7265
 1217SOL     OW 5101   2.124   7.115   6.896 -0.1342 -1.1463  0.6787
 1217SOL    HW1 5102   2.094   7.152   6.814 -1.6000 -0.7266  1.3651
 1217SOL    HW2 5103   2.220   7.115   6.890 -0.2213 -2.6050 -1.6422
 1218SOL     OW 5104   5.387   8.623   0.503 -1.0828  0.1063  0.6082
 1218SOL    HW1 5105   5.353   8.552   0.448 -0.5954 -0.1675  0.6584
 1218SOL    HW2 5106   5.394   8.698   0.443 -0.3521 -0.2487  0.2418
 1219SOL     OW 5107   7.893   8.320   9.022 -0.1306 -0.0926 -0.1842
 1219SOL    HW1 5108   7.831   8.392   9.011  0.5886  0.4443 -0.8960
 1219SOL    HW2 5109   7.894   8.303   9.116 -0.8416  0.3446 -0.0911
 1220SOL     OW 5110   7.030   7.132   4.743  0.4317 -0.6322 -0.0128
 1220SOL    HW1 5111   7.123   7.115   4.754  0.1197 -1.8420  1.0022
 1220SOL    HW2 5112   6.987   7.062   4.793 -1.0184 -0.3749 -0.8494
 1221SOL     OW 5113   3.747   0.730   6.651  0.0689 -0.4761  0.0346
 1221SOL    HW1 5114   3.667   0.774   6.622  1.1135  1.8569  0.4550
 1221SOL    HW2 5115   3.720   0.681   6.729 -0.7449  1.3653  0.9744
 1222SOL     OW 5116   1.053   2.729   3.893  0.0392  0.5925  0.2724
 1222SOL    HW1 5117   1.127   2.722   3.833 -0.5108 -1.0429 -0.2443
 1222SOL    HW2 5118   1.029   2.822   3.890  1.1963  0.8850 -0.5792
 1223SOL     OW 5119   3.617   8.336   6.635 -0.4812  0.2271 -0.8739
 1223SOL    HW1 5120   3.593   8.263   6.692 -0.6116  0.7352 -0.2571
 1223SOL    HW2 5121   3.537   8.356   6.587 -1.0221  1.1963  0.3654
 1224SOL     OW 5122   3.457   7.290   2.460 -0.6924 -0.5342  0.0765
 1224SOL    HW1 5123   3.443   7.235   2.383  3.8813  0.5928 -1.8843
 1224SOL    HW2 5124   3.488   7.229   2.527 -1.7825 -1.1151  0.0740
 1225SOL     OW 5125   1.632   4.487   6.636  0.1467  0.1843 -0.4818
 1225SOL    HW1 5126   1.584   4.466   6.555 -0.3565 -1.1493  0.1199
 1225SOL    HW2 5127   1.609   4.416   6.696  1.4603  0.5004  0.4445
 1226SOL     OW 5128   0.177   8.523   1.052  0.3183 -0.2052 -0.4905
 1226SOL    HW1 5129   0.238   8.585   1.093  0.7922  0.4449 -2.1048
 1226SOL    HW2 5130   0.227   8.441   1.046  0.2861 -0.2743  0.0922
 1227SOL     OW 5131   3.341   6.189   2.386  0.5925  0.2796 -0.0663
 1227SOL    HW1 5132   3.405   6.257   2.363  0.1963  0.4514 -0.6677
 1227SOL    HW2 5133   3.320   6.147   2.303 -1.5187  1.4900 -0.2123
 1228SOL     OW 5134   0.094   5.131   1.323 -0.2587  0.3933  0.1188
 1228SOL    HW1 5135   0.100   5.050   1.272 -1.0542  0.3058  0.1479
 1228SOL    HW2 5136   0.176   5.134   1.373 -0.7956 -1.1426  1.1998
 1229SOL     OW 5137   0.775   0.597   0.411 -0.1869  0.0400 -0.0566
 1229SOL    HW1 5138   0.726   0.678   0.398 -0.8177 -0.3037  0.1605
 1229SOL    HW2 5139   0.726   0.530   0.363  0.7656 -0.0780 -0.9075
 1230SOL     OW 5140   6.405   6.812   0.837 -0.0587 -0.0569 -0.3568
 1230SOL    HW1 5141   6.498   6.828   0.853  0.2684  1.2517 -3.0370
 1230SOL    HW2 5142   6.364   6.898   0.844 -0.6663 -0.2488 -1.3789
 1231SOL     OW 5143   4.392   7.244   9.246 -0.0066 -0.1848  0.5106
 1231SOL    HW1 5144   4.366   7.267   9.157 -1.3017 -2.1665  0.3068
 1231SOL    HW2 5145   4.310   7.242   9.295  0.6438  0.4955  1.6745
 1232SOL     OW 5146   5.527   6.548   0.872  0.2657  0.3617  1.1403
 1232SOL    HW1 5147   5.441   6.563   0.912 -0.3355 -0.6593  0.2911
 1232SOL    HW2 5148   5.549   6.458   0.894  0.3555  0.0874 -0.0082
 1233SOL     OW 5149   3.730   7.414   2.543  0.1698 -0.4514  0.2958
 1233SOL    HW1 5150   3.788   7.425   2.468  0.7193  3.2747  1.0808
 1233SOL    HW2 5151   3.666   7.349   2.514  1.6394 -0.7736 -2.5598
 1234SOL     OW 5152   3.951   4.969   8.154 -0.0760 -0.2576  0.2172
 1234SOL    HW1 5153   4.039   4.967   8.116  0.8352  1.4120  2.0924
 1234SOL    HW2 5154   3.892   4.977   8.078  1.5080  0.6794 -0.9685
 1235SOL     OW 5155   7.959   8.522   1.120  0.2189  0.2091 -0.4214
 1235SOL    HW1 5156   7.986   8.441   1.163  0.4504 -0.4739 -1.7885
 1235SOL    HW2 5157   7.881   8.498   1.070  0.3377  0.7936 -0.9043
 1236SOL     OW 5158   5.991   3.470   7.300  0.1341 -0.2175 -0.2232
 1236SOL    HW1 5159   6.056   3.400   7.292  0.9149  0.4884 -0.1750
 1236SOL    HW2 5160   6.040   3.550   7.284 -0.7690  0.3207 -0.3550
 1237SOL     OW 5161   2.216   2.719   4.697  0.6786 -0.2520  0.4178
 1237SOL    HW1 5162   2.141   2.747   4.645 -0.4944 -0.1157  2.0864
 1237SOL    HW2 5163   2.275   2.678   4.635 -0.9051 -0.6032 -0.9160
 1238SOL     OW 5164   6.256   1.175   2.736 -0.1266 -0.4582 -0.2902
 1238SOL    HW1 5165   6.248   1.253   2.791  0.8744  1.8292 -3.0976
 1238SOL    HW2 5166   6.171   1.167   2.693 -1.2649 -2.8569  2.1104
 1239SOL     OW 5167   1.157   7.993   9.095  0.1104  0.2843  0.3197
 1239SOL    HW1 5168   1.163   8.070   9.038 -3.1604 -0.2337 -0.9855
 1239SOL    HW2 5169   1.185   7.920   9.039 -2.5235 -0.1408 -0.6204
 1240SOL     OW 5170   3.435   4.287   2.037 -0.4572 -0.1010 -0.6110
 1240SOL    HW1 5171   3.427   4.304   1.943 -1.4933  0.7120 -0.3951
 1240SOL    HW2 5172   3.357   4.236   2.059  0.1139 -0.8606 -0.3045
 1241SOL     OW 5173   3.639   2.134   6.549 -0.3081  0.1258  0.3409
 1241SOL    HW1 5174   3.605   2.218   6.521 -1.6372 -0.6048 -0.3126
 1241SOL    HW2 5175   3.604   2.121   6.637 -1.7339 -0.5972 -0.3069
 1242SOL     OW 5176   7.518   1.183   1.795  0.4592  0.2493 -0.6631
 1242SOL    HW1 5177   7.511   1.155   1.886  0.1368  3.7520  0.5418
 1242SOL    HW2 5178   7.428   1.196   1.767  0.6059  1.0478 -0.7918
 1243SOL     OW 5179   5.434   8.951   0.513  0.2747 -0.2409  0.2928
 1243SOL    HW1 5180   5.471   9.038   0.529  1.3399 -0.5540 -0.2956
 1243SOL    HW2 5181   5.366   8.940   0.579 -1.3152  1.8561 -0.8729
 1244SOL     OW 5182   6.156   4.770   6.698 -0.1241 -0.1762  0.3662
 1244SOL    HW1 5183   6.119   4.690   6.735  1.0890 -0.0877  1.9195
 1244SOL    HW2 5184   6.181   4.822   6.775  0.3052  1.1228 -0.6071
 1245SOL     OW 5185   3.278   5.471   8.551 -0.1534 -0.1391 -0.1046
 1245SOL    HW1 5186   3.339   5.523   8.603 -1.1131  1.6957 -0.7079
 1245SOL    HW2 5187   3.237   5.412   8.614  0.6121  0.1874  0.7202
 1246SOL     OW 5188   1.975   6.763   6.839 -1.2176  0.3989  0.0299
 1246SOL    HW1 5189   1.946   6.725   6.922 -0.0017 -1.9479 -0.5187
 1246SOL    HW2 5190   2.070   6.750   6.839 -1.3022 -0.7445 -2.1818
 1247SOL     OW 5191   2.543   0.903   5.545  0.4354 -0.0959 -0.4508
 1247SOL    HW1 5192   2.477   0.971   5.534 -0.3201 -0.1552  2.8315
 1247SOL    HW2 5193   2.604   0.939   5.610  2.4089 -0.9435 -1.7433
 1248SOL     OW 5194   2.316   7.380   3.266  0.2291 -0.1426 -1.1600
 1248SOL    HW1 5195   2.359   7.302   3.230  0.9057  0.1161 -0.9256
 1248SOL    HW2 5196   2.388   7.436   3.294 -0.2148  0.9844 -2.1797
 1249SOL     OW 5197   2.025   0.805   6.891 -0.1923 -0.3501  0.2813
 1249SOL    HW1 5198   2.086   0.746   6.936  1.6410  0.9408 -0.4034
 1249SOL    HW2 5199   2.046   0.891   6.927 -2.4155  0.0130  0.8307
 1250SOL     OW 5200   8.173   5.328   6.251 -0.7898  0.5739 -0.2317
 1250SOL    HW1 5201   8.144   5.345   6.162 -1.9829 -0.8023 -0.1489
 1250SOL    HW2 5202   8.125   5.392   6.305 -1.7788 -0.0128 -0.3760
 1251SOL     OW 5203   4.182   8.934   4.723 -0.2770  0.0300 -0.1124
 1251SOL    HW1 5204   4.190   9.008   4.782 -2.4748 -1.0303  1.6804
 1251SOL    HW2 5205   4.266   8.887   4.731  0.1655  0.9362  0.6916
 1252SOL     OW 5206   1.699   6.274   3.122 -0.5383 -0.1303 -0.3020
 1252SOL    HW1 5207   1.761   6.263   3.195 -1.0269 -2.4731 -0.1683
 1252SOL    HW2 5208   1.749   6.247   3.045 -0.9829 -0.7818 -0.3683
 1253SOL     OW 5209   2.266   8.299   7.906  0.2471  0.3445 -0.0603
 1253SOL    HW1 5210   2.173   8.315   7.889 -0.2093 -0.5033  1.4419
 1253SOL    HW2 5211   2.294   8.244   7.832 -0.5869  0.1414 -0.2430
 1254SOL     OW 5212   4.986   2.685   8.820 -0.2978  0.4189  0.0144
 1254SOL    HW1 5213   4.930   2.753   8.856 -0.5470  0.4355 -0.3966
 1254SOL    HW2 5214   4.926   2.617   8.790 -0.2402  1.1281 -1.8862
 1255SOL     OW 5215   2.325   1.938   4.206  0.5193 -0.7617 -0.5975
 1255SOL    HW1 5216   2.243   1.895   4.230  0.6461 -0.2062  0.9956
 1255SOL    HW2 5217   2.298   2.012   4.152  0.0698 -1.2088 -0.9935
 1256SOL     OW 5218   7.890   4.050   5.725  0.1132 -0.0518  0.8384
 1256SOL    HW1 5219   7.900   3.955   5.714 -0.3148 -0.1091  0.9383
 1256SOL    HW2 5220   7.948   4.088   5.658 -0.5502 -0.3875  0.0534
 1257SOL     OW 5221   5.996   5.653   3.091 -0.3269  0.6838  0.2957
 1257SOL    HW1 5222   5.902   5.647   3.107 -0.1954 -0.2934  0.7774
 1257SOL    HW2 5223   6.004   5.666   2.996 -0.9292 -0.5291  0.0534
 1258SOL     OW 5224   7.559   8.984   1.742 -0.5725  0.3417  0.6346
 1258SOL    HW1 5225   7.639   9.027   1.711 -0.0206 -0.4572  0.9191
 1258SOL    HW2 5226   7.506   9.054   1.779 -0.6569  1.1177 -0.8839
 1259SOL     OW 5227   0.595   2.387   8.733 -0.1993  0.5258  0.2818
 1259SOL    HW1 5228   0.584   2.346   8.647  1.0552 -0.5439  0.6018
 1259SOL    HW2 5229   0.648   2.465   8.716  1.0020 -0.2830  0.2025
 1260SOL     OW 5230   4.080   5.659   2.712 -0.3670  0.4208  0.2823
 1260SOL    HW1 5231   4.159   5.708   2.734 -0.0475  0.6335 -1.2373
 1260SOL    HW2 5232   4.023   5.669   2.788  1.4362 -0.5669  1.8615
 1261SOL     OW 5233   2.805   6.253   0.183  0.4873 -0.4315  0.2882
 1261SOL    HW1 5234   2.815   6.296   0.268  0.1978  0.5568 -0.1625
 1261SOL    HW2 5235   2.802   6.159   0.204  1.8981 -0.3053  1.2302
 1262SOL     OW 5236   6.052   0.076   7.326  0.0101  0.0247  0.4025
 1262SOL    HW1 5237   6.058  -0.001   7.382  1.2047  0.5967  1.0937
 1262SOL    HW2 5238   6.119   0.062   7.259 -1.2877 -0.5718 -0.8340
 1263SOL     OW 5239   4.194   4.382   9.126  0.3529 -0.3126 -0.1517
 1263SOL    HW1 5240   4.236   4.299   9.109 -0.1141 -0.3163 -1.3539
 1263SOL    HW2 5241   4.112   4.379   9.076  0.2463  0.7916 -0.0821
 1264SOL     OW 5242   1.468   8.957   1.710 -0.0227  0.0512 -0.2797
 1264SOL    HW1 5243   1.477   9.035   1.656 -1.0963 -0.9267 -1.9447
 1264SOL    HW2 5244   1.552   8.951   1.757  0.2549  1.9195 -0.4243
 1265SOL     OW 5245   8.828   2.794   6.445 -0.1142 -0.4347  0.3013
 1265SOL    HW1 5246   8.750   2.840   6.474  0.0905  1.4745 -1.8787
 1265SOL    HW2 5247   8.866   2.851   6.378  1.1797 -2.9680 -1.2797
 1266SOL     OW 5248   2.598   4.005   3.950  0.4167  0.1958  0.0139
 1266SOL    HW1 5249   2.616   3.982   4.041  0.6033  2.0076  0.4825
 1266SOL    HW2 5250   2.566   4.095   3.954 -0.2182  0.0832 -1.6626
 1267SOL     OW 5251   5.736   6.332   3.184 -0.0706 -0.0224 -0.0856
 1267SOL    HW1 5252   5.670   6.392   3.221 -3.1798 -1.8701 -2.2030
 1267SOL    HW2 5253   5.734   6.349   3.090  0.0925 -2.3376 -0.5572
 1268SOL     OW 5254   3.525   1.983   7.696 -0.0617 -0.5996 -0.1266
 1268SOL    HW1 5255   3.512   1.936   7.779 -1.7729  0.0726  0.0395
 1268SOL    HW2 5256   3.574   1.922   7.641  1.4831 -0.9001  1.5084
 1269SOL     OW 5257   6.386   4.687   5.875  0.0758 -0.0669 -0.2192
 1269SOL    HW1 5258   6.375   4.767   5.822  0.6509 -0.8519 -1.5810
 1269SOL    HW2 5259   6.471   4.653   5.848  0.5785 -0.3037  1.5421
 1270SOL     OW 5260   8.112   5.863   0.948  0.5874 -0.3017  0.4698
 1270SOL    HW1 5261   8.019   5.872   0.925  0.3780 -0.2463  1.3029
 1270SOL    HW2 5262   8.141   5.784   0.901 -0.0448 -0.6805  0.7012
 1271SOL     OW 5263   6.708   0.968   6.850 -0.1682 -0.1876 -0.0521
 1271SOL    HW1 5264   6.620   0.930   6.842  0.5441 -1.9715  0.2806
 1271SOL    HW2 5265   6.708   1.009   6.936 -0.6226 -0.2974  0.0058
 1272SOL     OW 5266   5.301   4.630   2.603 -0.2779 -0.2890  0.8435
 1272SOL    HW1 5267   5.362   4.693   2.642  1.1385 -0.8174 -0.4257
 1272SOL    HW2 5268   5.326   4.546   2.643 -2.1192 -0.1345  2.4903
 1273SOL     OW 5269   6.794   3.741   2.551 -0.3126  0.1098  0.9146
 1273SOL    HW1 5270   6.703   3.715   2.534 -1.0842  2.4938  1.0203
 1273SOL    HW2 5271   6.790   3.788   2.634  1.1967 -0.5122  1.3658
 1274SOL     OW 5272   9.008   7.345   7.020  0.9065 -0.2494 -0.4791
 1274SOL    HW1 5273   8.976   7.426   6.981  0.4097  0.4805  1.3311
 1274SOL    HW2 5274   9.035   7.291   6.945  0.3486  1.1892 -1.7719
 1275SOL     OW 5275   1.487   5.042   1.819  0.0401  0.0086  0.0619
 1275SOL    HW1 5276   1.427   5.048   1.893  0.8103 -0.1058  0.7099
 1275SOL    HW2 5277   1.438   5.080   1.745 -1.2228 -1.0983  0.3015
 1276SOL     OW 5278   7.046   9.273   0.303 -0.2298  0.3432  0.0777
 1276SOL    HW1 5279   7.095   9.199   0.266 -0.7695 -0.0577  0.1521
 1276SOL    HW2 5280   7.081   9.350   0.258 -0.0040 -0.0076 -0.3557
 1277SOL     OW 5281   3.317   1.295   8.298 -0.2597 -0.0133 -0.1742
 1277SOL    HW1 5282   3.310   1.377   8.348  2.5614  1.4708 -1.9694
 1277SOL    HW2 5283   3.411   1.276   8.297 -0.6741 -2.3099 -1.3419
 1278SOL     OW 5284   2.165   7.627   6.874  0.1024 -0.0046 -0.2281
 1278SOL    HW1 5285   2.220   7.549   6.883  0.2221  0.2951  1.9063
 1278SOL    HW2 5286   2.190   7.663   6.788  3.2797  0.1493  0.6329
 1279SOL     OW 5287   3.515   4.144   7.565  0.2064 -0.0173  0.3553
 1279SOL    HW1 5288   3.446   4.085   7.595  0.9579  0.0553  2.4085
 1279SOL    HW2 5289   3.499   4.155   7.472 -2.2272 -0.4163  0.6760
 1280SOL     OW 5290   3.212   5.762   6.445  0.0992  0.1419  0.4663
 1280SOL    HW1 5291   3.220   5.697   6.375 -1.9093  1.1276 -0.7781
 1280SOL    HW2 5292   3.299   5.802   6.451  0.2781  0.1912 -1.6763
 1281SOL     OW 5293   1.288   6.812   6.094 -0.3194  0.0012 -0.1182
 1281SOL    HW1 5294   1.252   6.871   6.160  0.9753  0.7612 -0.0530
 1281SOL    HW2 5295   1.230   6.822   6.019 -0.6025  0.7345  0.1891
 1282SOL     OW 5296   4.961   6.328   6.711  0.2902  0.0221 -0.9399
 1282SOL    HW1 5297   4.965   6.267   6.785 -1.1385  0.1571 -0.7186
 1282SOL    HW2 5298   4.880   6.305   6.666 -0.0304  1.4299 -1.1284
 1283SOL     OW 5299   6.741   3.624   5.384 -0.1877  0.0429 -0.4115
 1283SOL    HW1 5300   6.835   3.620   5.402 -0.3482  0.5833  0.6550
 1283SOL    HW2 5301   6.733   3.695   5.320  0.0294  0.8304  0.4073
 1284SOL     OW 5302   2.986   6.405   1.245  0.4136 -0.6028  0.8524
 1284SOL    HW1 5303   3.057   6.343   1.262  2.6639  1.8754  1.0497
 1284SOL    HW2 5304   3.017   6.459   1.172 -2.1382 -0.6159 -0.3588
 1285SOL     OW 5305   4.498   1.573   6.449 -0.0577  0.4311 -0.3501
 1285SOL    HW1 5306   4.513   1.536   6.536 -2.1978  0.8469  0.2782
 1285SOL    HW2 5307   4.560   1.528   6.392 -0.3377 -1.7643  0.9457
 1286SOL     OW 5308   0.400   7.889   5.888  0.1804 -0.1203  0.1293
 1286SOL    HW1 5309   0.405   7.793   5.888  0.2292 -0.1302  1.0835
 1286SOL    HW2 5310   0.416   7.914   5.797  0.0520 -1.0217 -0.1522
 1287SOL     OW 5311   1.757   0.163   8.553  0.6628 -0.2153  0.0670
 1287SOL    HW1 5312   1.748   0.208   8.637 -2.2638  0.6886 -0.6432
 1287SOL    HW2 5313   1.776   0.072   8.577  0.8893  0.2247  1.6716
 1288SOL     OW 5314   4.979   4.295   0.292 -0.4794  0.1329  0.4782
 1288SOL    HW1 5315   5.054   4.279   0.234 -1.1991  2.4958 -1.2331
 1288SOL    HW2 5316   4.945   4.207   0.311  1.5446 -0.8840 -0.2577
 1289SOL     OW 5317   1.750   6.885   4.745  0.1427 -0.6341 -0.3918
 1289SOL    HW1 5318   1.825   6.921   4.698  0.9162  0.1197  1.3081
 1289SOL    HW2 5319   1.755   6.927   4.832 -2.5995 -0.0843 -0.4286
 1290SOL     OW 5320   3.971   1.331   5.102  0.4282 -0.4655  0.1316
 1290SOL    HW1 5321   4.033   1.304   5.169  0.4607 -0.6237  0.0362
 1290SOL    HW2 5322   3.945   1.420   5.129 -0.4343 -0.9509  0.9931
 1291SOL     OW 5323   5.031   9.029   2.211 -0.2893 -0.1177 -0.4969
 1291SOL    HW1 5324   5.010   9.114   2.250 -0.7517  0.5686 -2.1344
 1291SOL    HW2 5325   4.971   8.968   2.254 -0.3382  0.4736  0.3059
 1292SOL     OW 5326   7.433   6.707   5.983  0.3093  0.3194 -0.1877
 1292SOL    HW1 5327   7.345   6.707   5.947  0.0380  1.4612  0.4179
 1292SOL    HW2 5328   7.465   6.618   5.970 -0.1791  0.4088 -2.2026
 1293SOL     OW 5329   7.102   3.114   1.542  0.0285  0.1247  0.2284
 1293SOL    HW1 5330   7.078   3.104   1.450 -0.7773  0.6993  0.3639
 1293SOL    HW2 5331   7.163   3.189   1.543  0.9203 -0.5756  0.0382
 1294SOL     OW 5332   3.920   0.526   1.935 -0.4576  0.2307  0.0013
 1294SOL    HW1 5333   3.938   0.617   1.960  0.5332 -0.0670  0.4219
 1294SOL    HW2 5334   3.837   0.530   1.888 -0.9364  1.2115  0.8844
 1295SOL     OW 5335   9.179   1.336   1.011  0.2881 -0.3159 -0.1283
 1295SOL    HW1 5336   9.245   1.374   0.953 -0.2037 -0.0186 -0.5014
 1295SOL    HW2 5337   9.102   1.391   0.999  0.5970  0.6698  1.8790
 1296SOL     OW 5338   1.590   7.629   8.561  0.2281  0.5348 -0.2650
 1296SOL    HW1 5339   1.629   7.541   8.567  2.2865  1.3151 -1.1222
 1296SOL    HW2 5340   1.509   7.623   8.611  1.0395 -1.4584  0.9351
 1297SOL     OW 5341   2.407   9.228   4.385  0.1448 -0.0185 -0.1647
 1297SOL    HW1 5342   2.497   9.243   4.357  0.1118  0.2100 -0.1455
 1297SOL    HW2 5343   2.357   9.302   4.351 -0.0353 -0.1365 -0.1664
 1298SOL     OW 5344   3.037   3.320   2.833  0.2920 -0.0596 -0.1911
 1298SOL    HW1 5345   3.111   3.323   2.773  0.9613 -2.5338  0.3827
 1298SOL    HW2 5346   2.966   3.283   2.780  0.8184 -2.0221  0.3715
 1299SOL     OW 5347   7.834   6.132   8.838 -0.5647  0.5406  0.2460
 1299SOL    HW1 5348   7.778   6.058   8.816  0.2986  0.0042 -0.1962
 1299SOL    HW2 5349   7.919   6.094   8.855  0.0304  1.4762 -0.5059
 1300SOL     OW 5350   2.296   7.608   0.878  0.1935 -0.3643 -0.0026
 1300SOL    HW1 5351   2.297   7.704   0.880  0.1776 -0.2128 -3.0061
 1300SOL    HW2 5352   2.203   7.584   0.877  0.1195 -0.1967 -1.9582
 1301SOL     OW 5353   2.183   8.869   4.897 -0.0448  0.1904 -0.8433
 1301SOL    HW1 5354   2.240   8.845   4.971 -1.2401 -0.3209 -0.0544
 1301SOL    HW2 5355   2.242   8.909   4.833  1.1890 -0.2913 -0.0420
 1302SOL     OW 5356   1.349   5.127   3.620  0.4357  0.0086  0.0866
 1302SOL    HW1 5357   1.379   5.052   3.568 -0.0872  0.2876 -0.6410
 1302SOL    HW2 5358   1.428   5.159   3.663  0.6734 -0.9111  0.3405
 1303SOL     OW 5359   4.875   5.343   1.830  0.1577  0.1628 -0.2977
 1303SOL    HW1 5360   4.940   5.394   1.878 -1.7406  1.6798  0.8057
 1303SOL    HW2 5361   4.855   5.269   1.887  0.6545 -0.1203 -0.4875
 1304SOL     OW 5362   3.374   5.210   9.128  0.4576 -0.1664  0.2245
 1304SOL    HW1 5363   3.355   5.247   9.214  3.1108  1.9417  0.0346
 1304SOL    HW2 5364   3.343   5.276   9.066  0.7733 -0.5334 -0.3367
 1305SOL     OW 5365   7.176   3.881   2.017  0.2026  0.2114  0.1886
 1305SOL    HW1 5366   7.095   3.933   2.017 -0.8534 -1.3487  0.0419
 1305SOL    HW2 5367   7.246   3.946   2.012 -1.0440  1.6105 -0.0042
 1306SOL     OW 5368   5.861   1.443   2.948 -0.6917  0.0507  0.6899
 1306SOL    HW1 5369   5.937   1.470   3.000 -1.6488  1.0163  1.6559
 1306SOL    HW2 5370   5.791   1.504   2.974 -1.8238 -0.8552 -0.0962
 1307SOL     OW 5371   2.955   2.720   1.558  0.0050  0.4716  0.3757
 1307SOL    HW1 5372   2.905   2.758   1.486 -0.5898 -0.0891  0.4869
 1307SOL    HW2 5373   2.906   2.742   1.637  0.1108  0.2072  0.5164
 1308SOL     OW 5374   3.132   7.270   0.623 -0.4915  0.0261  0.5149
 1308SOL    HW1 5375   3.130   7.338   0.691 -1.7842  0.4412  0.1051
 1308SOL    HW2 5376   3.041   7.239   0.619 -0.3574 -0.2302 -0.7688
 1309SOL     OW 5377   0.185   5.586   3.709  0.5011 -0.1190  0.0229
 1309SOL    HW1 5378   0.168   5.499   3.746  2.0371 -0.5090 -0.1320
 1309SOL    HW2 5379   0.236   5.569   3.630  0.8845  0.9371  0.0302
 1310SOL     OW 5380   8.296   3.077   3.563  0.1637  0.0709  0.1910
 1310SOL    HW1 5381   8.308   3.147   3.499 -0.7417  0.1221  0.0587
 1310SOL    HW2 5382   8.212   3.097   3.605  0.6043 -0.1252  1.1947
 1311SOL     OW 5383   1.858   7.972   7.098 -0.2769  0.1790 -0.7478
 1311SOL    HW1 5384   1.866   8.011   7.011  0.8781  2.0648  0.1504
 1311SOL    HW2 5385   1.942   7.929   7.113 -0.0872  0.7438 -0.1631
 1312SOL     OW 5386   8.878   2.180   8.292  0.1675 -0.6651  0.2163
 1312SOL    HW1 5387   8.812   2.246   8.316  0.3403 -0.6560  0.6745
 1312SOL    HW2 5388   8.870   2.113   8.359  2.2405  0.4656  1.6856
 1313SOL     OW 5389   2.611   2.284   8.205 -0.0367 -0.2548 -0.1043
 1313SOL    HW1 5390   2.645   2.334   8.279  0.5758 -1.3932  0.4066
 1313SOL    HW2 5391   2.518   2.307   8.202  0.4530  1.8783 -0.7060
 1314SOL     OW 5392   1.777   5.487   0.516  0.1577  0.3565 -0.5297
 1314SOL    HW1 5393   1.773   5.542   0.595  0.8297 -1.1295  0.5885
 1314SOL    HW2 5394   1.823   5.541   0.452  0.9408  1.0673  0.5856
 1315SOL     OW 5395   5.916   4.423   6.650  0.1397  0.2510 -0.5308
 1315SOL    HW1 5396   5.843   4.463   6.603  0.1424 -1.5284 -2.1779
 1315SOL    HW2 5397   5.894   4.329   6.652  1.0466  0.0354  1.4447
 1316SOL     OW 5398   4.560   2.312   0.317 -0.2009 -0.1293  0.0780
 1316SOL    HW1 5399   4.646   2.333   0.281  0.0774  1.6708  1.6257
 1316SOL    HW2 5400   4.502   2.382   0.284 -1.0020 -1.1035 -0.6350
 1317SOL     OW 5401   5.536   6.822   0.285  0.0172 -0.1095 -0.1990
 1317SOL    HW1 5402   5.574   6.815   0.373  0.5250  0.3785 -0.3721
 1317SOL    HW2 5403   5.456   6.872   0.298  1.1741  1.8835 -0.2797
 1318SOL     OW 5404   7.483   5.648   2.930 -0.6490 -0.0385 -0.0610
 1318SOL    HW1 5405   7.415   5.652   2.998 -1.3989  1.3652 -0.8232
 1318SOL    HW2 5406   7.508   5.740   2.917  2.7404 -0.6306  1.4340
 1319SOL     OW 5407   1.578   5.792   8.620  0.1062  0.1434 -0.2675
 1319SOL    HW1 5408   1.538   5.875   8.593  1.0094  0.2846 -1.2609
 1319SOL    HW2 5409   1.665   5.794   8.580  0.6411 -0.6907  0.8298
 1320SOL     OW 5410   1.726   6.365   0.378  0.1488  0.1711 -0.6309
 1320SOL    HW1 5411   1.721   6.428   0.450  0.7166  1.1635 -1.4212
 1320SOL    HW2 5412   1.809   6.319   0.392 -0.6218 -0.9414  0.3630
 1321SOL     OW 5413   9.146   7.988   0.425 -0.2053 -0.4437 -0.4914
 1321SOL    HW1 5414   9.181   7.999   0.513 -1.3665  0.2572 -0.0965
 1321SOL    HW2 5415   9.064   7.941   0.437 -0.6804  0.1972 -1.1282
 1322SOL     OW 5416   2.159   9.194   5.488  0.1215  0.5717  0.0112
 1322SOL    HW1 5417   2.245   9.178   5.449 -0.4296 -0.8526 -0.7179
 1322SOL    HW2 5418   2.158   9.140   5.567 -0.7077 -0.8389 -0.9164
 1323SOL     OW 5419   3.563   4.154   4.151  0.5708  0.0381  0.4492
 1323SOL    HW1 5420   3.592   4.209   4.079 -2.2410 -0.9340 -1.5958
 1323SOL    HW2 5421   3.611   4.072   4.140 -0.0853 -0.2213 -0.5419
 1324SOL     OW 5422   2.688   0.502   7.656  0.1906  0.3590 -0.3402
 1324SOL    HW1 5423   2.725   0.444   7.723 -0.3473 -0.9825 -1.1516
 1324SOL    HW2 5424   2.748   0.576   7.652  1.3515 -0.5149  0.1840
 1325SOL     OW 5425   6.031   6.995   6.497 -0.4602  0.5340  0.0078
 1325SOL    HW1 5426   6.079   7.076   6.482 -0.4577  0.5801  0.2547
 1325SOL    HW2 5427   5.974   7.014   6.572 -0.4584  0.3088  0.0688
 1326SOL     OW 5428   2.498   6.056   0.002 -0.1707  0.8174 -0.0294
 1326SOL    HW1 5429   2.441   5.988   0.038  1.8338 -1.0191 -0.1343
 1326SOL    HW2 5430   2.440   6.112  -0.049 -2.3262  0.7398  2.1647
 1327SOL     OW 5431   2.374   5.719   4.176  0.0134  0.3312  0.2440
 1327SOL    HW1 5432   2.468   5.710   4.194  0.0499 -0.6850 -0.3951
 1327SOL    HW2 5433   2.332   5.710   4.262  0.4693  0.5146  0.4932
 1328SOL     OW 5434   3.756   6.567   1.741  0.1514 -0.6538 -0.0279
 1328SOL    HW1 5435   3.778   6.661   1.743 -2.9134  0.1937 -0.2269
 1328SOL    HW2 5436   3.753   6.546   1.647  1.3513 -1.1365  0.0245
 1329SOL     OW 5437   6.961   1.951   0.147 -0.2539 -0.3153 -0.5448
 1329SOL    HW1 5438   6.953   2.020   0.212  0.7020  0.4885 -1.2494
 1329SOL    HW2 5439   7.055   1.929   0.147 -0.0130  0.5511 -2.4895
 1330SOL     OW 5440   7.092   8.761   3.061  0.8779 -0.3711 -0.2000
 1330SOL    HW1 5441   7.151   8.696   3.097  0.7695 -1.1082 -1.3330
 1330SOL    HW2 5442   7.146   8.815   3.004  0.7496 -0.1174 -0.0872
 1331SOL     OW 5443   2.364   2.165   1.347 -0.0025 -0.2516  0.3834
 1331SOL    HW1 5444   2.292   2.113   1.310 -0.0329 -0.3586  0.5880
 1331SOL    HW2 5445   2.344   2.255   1.321 -0.8869 -0.1060  1.4681
 1332SOL     OW 5446   4.752   3.389   9.182 -0.4050 -0.2747 -0.4053
 1332SOL    HW1 5447   4.662   3.357   9.195 -0.8397  0.0262 -2.3864
 1332SOL    HW2 5448   4.758   3.405   9.088  1.4853  0.4896 -0.1854
 1333SOL     OW 5449   0.943   0.833   1.254  0.2207  0.4157  0.6854
 1333SOL    HW1 5450   1.015   0.830   1.191 -0.3935 -1.5312  0.0043
 1333SOL    HW2 5451   0.892   0.753   1.237 -1.6035  1.2843  1.7326
 1334SOL     OW 5452   8.847   5.011   3.090  0.0504  0.9318  0.2749
 1334SOL    HW1 5453   8.855   5.041   3.181 -1.6958  0.1981  0.7030
 1334SOL    HW2 5454   8.870   4.918   3.094 -2.0150  0.3694  0.4024
 1335SOL     OW 5455   8.044   3.106   7.305  0.3048 -0.5205  0.5032
 1335SOL    HW1 5456   8.000   3.080   7.224  1.7033  1.6231 -1.0608
 1335SOL    HW2 5457   8.020   3.039   7.368  0.5220 -3.2813 -2.1117
 1336SOL     OW 5458   0.674   4.551   6.384  0.2432  0.7044 -0.2857
 1336SOL    HW1 5459   0.739   4.490   6.348 -0.8561  0.1274 -1.3517
 1336SOL    HW2 5460   0.617   4.496   6.438  0.5797  1.1954  0.5859
 1337SOL     OW 5461   7.573   6.690   1.265 -0.0728  0.2061  0.1591
 1337SOL    HW1 5462   7.662   6.724   1.252  0.2264 -0.8341 -0.6285
 1337SOL    HW2 5463   7.527   6.710   1.183 -0.2839 -0.0849  0.2045
 1338SOL     OW 5464   8.300   5.819   1.762  0.4988  0.5487 -0.2013
 1338SOL    HW1 5465   8.366   5.819   1.692 -0.6260 -0.1745 -1.2791
 1338SOL    HW2 5466   8.313   5.736   1.807 -0.1282  0.0728 -0.8731
 1339SOL     OW 5467   7.082   1.277   7.396 -0.1729  0.0957 -0.5290
 1339SOL    HW1 5468   7.044   1.201   7.441  0.1028  0.2874  0.0395
 1339SOL    HW2 5469   7.106   1.337   7.467  0.1335  0.4699 -0.9450
 1340SOL     OW 5470   3.353   4.290   9.277  0.0363  0.2714  0.2418
 1340SOL    HW1 5471   3.350   4.376   9.236  0.4712  0.7007  1.0835
 1340SOL    HW2 5472   3.445   4.263   9.268  0.0524  0.2049  0.5927
 1341SOL     OW 5473   7.398   4.941   5.151  0.4449  0.0336 -0.3959
 1341SOL    HW1 5474   7.411   4.851   5.120 -0.7296 -1.0650  2.0014
 1341SOL    HW2 5475   7.455   4.949   5.227 -1.9091  0.0474  1.5045
 1342SOL     OW 5476   4.778   2.832   3.179 -0.4034 -0.1119 -0.0426
 1342SOL    HW1 5477   4.700   2.886   3.165 -1.2795 -1.3707 -0.2210
 1342SOL    HW2 5478   4.852   2.889   3.159 -1.3592  0.3876 -2.4157
 1343SOL     OW 5479   1.168   9.070   1.172  0.0077 -0.0536  0.4847
 1343SOL    HW1 5480   1.099   9.005   1.162  0.5139 -0.5941  0.4215
 1343SOL    HW2 5481   1.142   9.120   1.250 -0.7658  0.1564  0.0969
 1344SOL     OW 5482   8.205   2.075   4.223  0.1038 -0.1764  0.2046
 1344SOL    HW1 5483   8.257   2.099   4.145 -0.1138  0.2150  0.1773
 1344SOL    HW2 5484   8.258   2.009   4.267  0.9324  0.6632  0.5045
 1345SOL     OW 5485   5.927   8.038   0.932 -0.0660 -0.2456 -0.0282
 1345SOL    HW1 5486   5.912   7.978   0.859 -0.6234  0.7212 -0.7359
 1345SOL    HW2 5487   5.904   8.124   0.897  0.0093  0.2867  1.1848
 1346SOL     OW 5488   1.418   1.846   6.473  0.3875 -0.0227  0.9673
 1346SOL    HW1 5489   1.410   1.768   6.417  0.3015  0.0856  0.8284
 1346SOL    HW2 5490   1.366   1.825   6.551  1.0779 -0.4547  1.3200
 1347SOL     OW 5491   4.295   2.880   0.460 -0.2619  0.2479 -0.0285
 1347SOL    HW1 5492   4.247   2.953   0.501  0.6182  0.8911 -0.1104
 1347SOL    HW2 5493   4.242   2.803   0.478 -0.6715  0.7521  0.9965
 1348SOL     OW 5494   0.434   7.063   4.313  0.6881  0.5343  0.4167
 1348SOL    HW1 5495   0.418   7.137   4.372 -0.2407  0.6815 -0.0036
 1348SOL    HW2 5496   0.475   6.997   4.368  0.8012  1.0636  0.9818
 1349SOL     OW 5497   2.329   3.558   2.748 -0.3042  0.0736 -0.4046
 1349SOL    HW1 5498   2.309   3.649   2.728  1.1901  0.3535 -0.7427
 1349SOL    HW2 5499   2.424   3.555   2.755 -0.2748 -1.5840 -1.0233
 1350SOL     OW 5500   0.354   1.075   9.087  0.2540  0.2098 -0.2435
 1350SOL    HW1 5501   0.415   1.141   9.121  0.0292  0.0783  0.4367
 1350SOL    HW2 5502   0.408   0.997   9.072  0.1475 -0.1327  1.0308
 1351SOL     OW 5503   6.309   5.957   8.037  0.3922  0.2684 -0.0514
 1351SOL    HW1 5504   6.395   5.996   8.024  0.1630  1.0024  0.6190
 1351SOL    HW2 5505   6.248   6.031   8.038 -0.1269 -0.1558  0.5624
 1352SOL     OW 5506   6.725   7.419   0.693 -0.1698 -0.3935  0.2349
 1352SOL    HW1 5507   6.636   7.444   0.720  0.0902 -0.8173  1.5441
 1352SOL    HW2 5508   6.778   7.429   0.772  1.4388  1.9127 -0.9980
 1353SOL     OW 5509   1.674   3.484   6.278  0.0396  0.3697 -0.4451
 1353SOL    HW1 5510   1.677   3.468   6.184 -1.2544  1.5228 -0.7093
 1353SOL    HW2 5511   1.692   3.578   6.287 -0.6567  0.4331  0.3905
 1354SOL     OW 5512   8.373   7.278   8.535 -0.1512  0.0659  0.7083
 1354SOL    HW1 5513   8.281   7.278   8.564 -0.2452  2.1035  0.5231
 1354SOL    HW2 5514   8.384   7.362   8.491  1.4195 -0.7950 -0.6203
 1355SOL     OW 5515   7.365   1.430   6.828  0.1779  0.4758  0.3249
 1355SOL    HW1 5516   7.426   1.368   6.867  0.7900 -0.4666 -1.9472
 1355SOL    HW2 5517   7.329   1.384   6.753 -1.2926  1.9995  0.0233
 1356SOL     OW 5518   4.940   5.739   6.358  0.2095  0.4835 -0.2837
 1356SOL    HW1 5519   4.939   5.820   6.409 -0.3055  0.2665  0.0602
 1356SOL    HW2 5520   4.922   5.767   6.268 -1.7006  0.5899  0.0929
 1357SOL     OW 5521   2.949   8.480   7.438 -0.1578  0.5346  0.4146
 1357SOL    HW1 5522   2.890   8.498   7.365  0.7926 -0.0602 -0.5348
 1357SOL    HW2 5523   2.980   8.391   7.423  1.0720  0.8668  0.8035
 1358SOL     OW 5524   3.892   4.088   0.387 -0.2227 -0.2722 -0.3529
 1358SOL    HW1 5525   3.931   4.001   0.379 -2.3514 -1.4383  1.0027
 1358SOL    HW2 5526   3.897   4.125   0.299  2.5161 -0.9156 -0.5289
 1359SOL     OW 5527   8.422   0.043   7.589  0.0299 -0.4552 -0.1414
 1359SOL    HW1 5528   8.479   0.006   7.656  0.1342 -0.1240 -0.0467
 1359SOL    HW2 5529   8.425  -0.020   7.517  1.1090 -0.0901 -0.4424
 1360SOL     OW 5530   5.995   1.055   6.678 -0.4971 -0.0352  0.7812
 1360SOL    HW1 5531   5.911   1.042   6.633 -0.8454 -3.1959  2.0933
 1360SOL    HW2 5532   5.973   1.108   6.755 -1.5850 -1.7777  1.7319
 1361SOL     OW 5533   2.209   8.481   1.677  0.1855  0.2496  0.1505
 1361SOL    HW1 5534   2.192   8.507   1.767  1.8233 -1.6945  1.1197
 1361SOL    HW2 5535   2.298   8.444   1.679  0.0769 -0.3218 -2.1606
 1362SOL     OW 5536   8.018   0.556   0.565 -0.1808  0.3865 -0.7275
 1362SOL    HW1 5537   8.104   0.577   0.602 -0.4718  1.2303 -0.5150
 1362SOL    HW2 5538   8.032   0.473   0.519  1.3472  1.6195 -2.6840
 1363SOL     OW 5539   5.040   0.405   7.304  0.0898  0.3041 -0.4239
 1363SOL    HW1 5540   5.057   0.320   7.263 -0.2718  0.3771 -0.7326
 1363SOL    HW2 5541   5.116   0.458   7.281  0.9027 -0.2860  0.7770
 1364SOL     OW 5542   7.439   8.286   7.947  0.0564 -0.0371  0.6227
 1364SOL    HW1 5543   7.502   8.353   7.975  0.4831 -0.2830  0.2751
 1364SOL    HW2 5544   7.483   8.241   7.874 -0.6770  0.0436  0.1141
 1365SOL     OW 5545   8.071   0.669   6.797  0.0096 -0.0343  1.0104
 1365SOL    HW1 5546   8.105   0.736   6.857 -0.2474  1.0994 -0.0656
 1365SOL    HW2 5547   7.981   0.695   6.780  0.9318  1.5636 -2.2983
 1366SOL     OW 5548   0.227   8.760   7.515  0.0393  0.1351  0.3902
 1366SOL    HW1 5549   0.154   8.818   7.535  0.8113  0.5026  2.3893
 1366SOL    HW2 5550   0.305   8.812   7.535  0.7771 -1.2119  1.1399
 1367SOL     OW 5551   0.234   8.294   7.583 -0.1826  0.8136  0.1852
 1367SOL    HW1 5552   0.263   8.367   7.528  1.1358 -0.0794 -0.3318
 1367SOL    HW2 5553   0.232   8.331   7.672  0.9798  1.3575  0.0031
 1368SOL     OW 5554   6.134   1.208   3.046  0.0324  0.0833 -0.4600
 1368SOL    HW1 5555   6.129   1.136   2.984  0.1601 -0.1810 -0.1684
 1368SOL    HW2 5556   6.139   1.287   2.992  0.2921 -0.1533 -0.7807
 1369SOL     OW 5557   5.904   0.373   5.941  0.7230  0.2549  0.1200
 1369SOL    HW1 5558   5.852   0.295   5.919 -0.6233  0.7765  1.3358
 1369SOL    HW2 5559   5.989   0.357   5.898 -0.3655 -0.6646 -1.8601
 1370SOL     OW 5560   8.742   7.048   2.160  0.0422  0.3282  0.5053
 1370SOL    HW1 5561   8.663   7.005   2.127  0.8936 -0.4512 -0.5778
 1370SOL    HW2 5562   8.784   7.085   2.083  2.2365 -1.7769  0.5505
 1371SOL     OW 5563   9.230   5.004   0.556 -0.3061 -0.3792  0.0044
 1371SOL    HW1 5564   9.232   4.972   0.647 -0.8197 -0.8111 -0.1329
 1371SOL    HW2 5565   9.241   4.925   0.503  0.2694 -0.0956 -0.3150
 1372SOL     OW 5566   8.407   5.142   6.058  0.8511  0.3107  0.0851
 1372SOL    HW1 5567   8.430   5.094   5.979  0.9035 -0.3822  0.5148
 1372SOL    HW2 5568   8.315   5.122   6.074  1.2846 -0.9883  1.1663
 1373SOL     OW 5569   5.508   4.174   0.084  0.0949 -0.0842  0.1702
 1373SOL    HW1 5570   5.540   4.240   0.146  1.0433 -1.0629  0.7498
 1373SOL    HW2 5571   5.584   4.154   0.028 -0.2831 -0.4324 -0.2286
 1374SOL     OW 5572   8.290   6.377   8.882  0.1277  0.0730  0.4452
 1374SOL    HW1 5573   8.224   6.439   8.914  0.5191  1.0362 -0.5659
 1374SOL    HW2 5574   8.246   6.332   8.809  0.3823  0.3079  0.1441
 1375SOL     OW 5575   6.342   2.630   0.461 -0.0868 -0.2089 -0.3144
 1375SOL    HW1 5576   6.322   2.691   0.532  0.8023  1.4212 -1.4008
 1375SOL    HW2 5577   6.342   2.544   0.502 -0.5125  0.6013  1.4573
 1376SOL     OW 5578   4.569   0.357   3.841 -0.1569 -0.2650 -0.3458
 1376SOL    HW1 5579   4.521   0.361   3.758  1.7787 -1.2631 -1.5809
 1376SOL    HW2 5580   4.660   0.377   3.818  0.3847 -0.2758  1.5949
 1377SOL     OW 5581   7.302   6.420   6.742 -0.3528  0.6191  0.4713
 1377SOL    HW1 5582   7.329   6.373   6.664 -0.3504  1.6997 -0.2014
 1377SOL    HW2 5583   7.340   6.371   6.815 -0.3030 -0.3592 -0.2036
 1378SOL     OW 5584   5.194   1.073   0.322 -0.0043  0.5652  0.1885
 1378SOL    HW1 5585   5.108   1.099   0.354 -0.1286  0.1567  0.1950
 1378SOL    HW2 5586   5.193   1.093   0.229  0.2859  1.5702  0.3960
 1379SOL     OW 5587   0.502   0.042   1.364  0.1770 -0.3017 -0.4170
 1379SOL    HW1 5588   0.479   0.061   1.273 -0.7180  1.9282  0.2062
 1379SOL    HW2 5589   0.426  -0.007   1.398  0.1606 -0.4301 -0.6360
 1380SOL     OW 5590   6.187   5.952   4.493  0.9545  0.3405  0.3535
 1380SOL    HW1 5591   6.125   5.972   4.563  1.2146 -0.9925  1.0028
 1380SOL    HW2 5592   6.267   5.925   4.539  0.7942 -1.5780 -0.4027
 1381SOL     OW 5593   5.542   7.623   4.529 -0.2445  0.0203 -0.1552
 1381SOL    HW1 5594   5.604   7.696   4.526 -0.1566 -0.0637 -0.3786
 1381SOL    HW2 5595   5.459   7.661   4.500 -0.4287  0.2595  0.6376
 1382SOL     OW 5596   6.099   9.131   9.250  0.5983  0.3168 -0.2206
 1382SOL    HW1 5597   6.152   9.052   9.264 -1.4607 -1.3652 -1.3487
 1382SOL    HW2 5598   6.009   9.101   9.257 -0.2592  2.6311 -0.5378
 1383SOL     OW 5599   8.256   5.648   5.969 -0.6571  0.0454  0.1354
 1383SOL    HW1 5600   8.345   5.673   5.995 -0.3427 -0.3638 -0.5332
 1383SOL    HW2 5601   8.255   5.657   5.874 -0.2812 -3.0896 -0.2739
 1384SOL     OW 5602   7.867   4.704   4.056  0.0081 -0.6305  1.0143
 1384SOL    HW1 5603   7.836   4.614   4.046  0.2211 -0.5215 -1.2239
 1384SOL    HW2 5604   7.854   4.724   4.149 -1.5573 -2.4038  1.2361
 1385SOL     OW 5605   8.041   1.931   5.004  0.2784 -0.1967 -0.1621
 1385SOL    HW1 5606   8.094   1.888   5.071 -2.4309 -3.6160  0.1096
 1385SOL    HW2 5607   8.078   1.900   4.921  1.2982  0.9968 -0.1879
 1386SOL     OW 5608   7.680   8.560   4.917  0.6898  0.3789  0.2272
 1386SOL    HW1 5609   7.721   8.581   5.001  0.5476 -0.2497  0.4611
 1386SOL    HW2 5610   7.598   8.516   4.941 -0.0103  1.4024 -0.2406
 1387SOL     OW 5611   7.179   6.235   7.294 -0.1054  0.1022 -0.5647
 1387SOL    HW1 5612   7.275   6.228   7.300 -0.0852  0.1418 -0.8078
 1387SOL    HW2 5613   7.158   6.196   7.209 -0.2600  0.5344 -0.7225
 1388SOL     OW 5614   7.507   2.053   1.834 -0.5090 -0.1462 -0.7961
 1388SOL    HW1 5615   7.599   2.031   1.818 -0.3027  1.0422 -1.3723
 1388SOL    HW2 5616   7.458   1.985   1.788  0.0661 -1.2398  0.1719
 1389SOL     OW 5617   5.607   5.152   7.134  0.4304  0.2697 -0.4591
 1389SOL    HW1 5618   5.627   5.076   7.188  0.3281 -0.0541 -0.8702
 1389SOL    HW2 5619   5.536   5.197   7.180  0.1463 -0.1609 -0.4734
 1390SOL     OW 5620   5.701   3.640   0.078 -0.1102  0.1291 -0.1312
 1390SOL    HW1 5621   5.707   3.653   0.173  0.2883  1.6146 -0.3257
 1390SOL    HW2 5622   5.777   3.586   0.056  0.8127  1.2499  0.1927
 1391SOL     OW 5623   6.209   2.771   0.231  0.2197 -0.0246 -0.2737
 1391SOL    HW1 5624   6.160   2.828   0.290 -0.2718 -0.5432 -0.1744
 1391SOL    HW2 5625   6.244   2.702   0.287  1.7543  0.7538 -0.2000
 1392SOL     OW 5626   4.483   0.938   7.837 -0.0257 -0.7132  0.4408
 1392SOL    HW1 5627   4.484   0.978   7.750 -1.4046 -1.6412 -0.0450
 1392SOL    HW2 5628   4.406   0.977   7.880  0.3329 -0.6613  1.0535
 1393SOL     OW 5629   4.378   1.373   4.934  0.1807  0.5198  0.0577
 1393SOL    HW1 5630   4.296   1.324   4.942 -1.0963  2.5322 -0.0590
 1393SOL    HW2 5631   4.382   1.397   4.841  2.3174 -1.7471 -0.5714
 1394SOL     OW 5632   5.623   4.831   8.999 -0.1845 -0.6470  0.4794
 1394SOL    HW1 5633   5.697   4.773   8.979  1.7026  2.4353 -2.5207
 1394SOL    HW2 5634   5.661   4.899   9.056 -0.5113  1.1062 -1.2835
 1395SOL     OW 5635   1.779   8.869   7.342 -0.1225  0.1380  0.1709
 1395SOL    HW1 5636   1.875   8.864   7.351 -0.3342 -0.8988  2.2958
 1395SOL    HW2 5637   1.766   8.894   7.250  2.1823  0.6450 -0.0967
 1396SOL     OW 5638   4.275   4.722   5.909 -0.3998  0.4627  0.6533
 1396SOL    HW1 5639   4.273   4.699   5.817 -0.6223  1.0269  0.5129
 1396SOL    HW2 5640   4.358   4.687   5.942 -1.2501 -1.6390  0.7437
 1397SOL     OW 5641   7.333   3.248   8.882  0.5563 -0.4206 -0.2254
 1397SOL    HW1 5642   7.348   3.263   8.789  0.7213  1.0105  0.0038
 1397SOL    HW2 5643   7.254   3.298   8.902  0.1668 -1.2162  0.2901
 1398SOL     OW 5644   7.614   8.699   6.209 -0.2922 -0.0190 -0.0258
 1398SOL    HW1 5645   7.620   8.657   6.295  0.2609 -1.5737 -0.7960
 1398SOL    HW2 5646   7.538   8.757   6.216 -0.2795 -0.1507  1.4903
 1399SOL     OW 5647   8.546   8.390   1.860 -0.8212  0.0385 -0.3660
 1399SOL    HW1 5648   8.566   8.305   1.820 -0.9609  0.5883 -1.6820
 1399SOL    HW2 5649   8.590   8.454   1.803  1.6587  0.7659  2.1496
 1400SOL     OW 5650   5.242   2.257   4.642 -0.2262  0.3314  0.6371
 1400SOL    HW1 5651   5.320   2.290   4.687  2.1376  0.1051 -2.8489
 1400SOL    HW2 5652   5.245   2.163   4.656  1.1220  0.1326 -0.7268
 1401SOL     OW 5653   6.833   3.261   2.555  0.0934  0.6628  0.1351
 1401SOL    HW1 5654   6.771   3.299   2.617 -1.6493  0.7947 -1.5871
 1401SOL    HW2 5655   6.898   3.330   2.542  0.7910  0.4489  2.1273
 1402SOL     OW 5656   1.592   0.584   3.732  0.5711 -0.1788  0.0827
 1402SOL    HW1 5657   1.609   0.536   3.651 -0.9021 -0.8956  0.1626
 1402SOL    HW2 5658   1.532   0.655   3.707 -0.3433 -0.7389  0.5992
 1403SOL     OW 5659   2.527   2.702   2.170 -0.3842 -0.5638  0.3442
 1403SOL    HW1 5660   2.585   2.626   2.164 -0.0772 -0.3780  0.8858
 1403SOL    HW2 5661   2.584   2.774   2.198 -0.8705 -0.3732  0.8670
 1404SOL     OW 5662   3.547   3.418   2.470 -0.3160  0.7917 -0.5708
 1404SOL    HW1 5663   3.542   3.512   2.451  0.4233  0.4615 -2.6316
 1404SOL    HW2 5664   3.552   3.376   2.384 -1.0948 -1.1869  0.2933
 1405SOL     OW 5665   1.439   1.070   7.601  0.2885  0.6382  0.2279
 1405SOL    HW1 5666   1.378   0.996   7.602  1.1450 -0.0823 -0.0046
 1405SOL    HW2 5667   1.431   1.109   7.688 -0.6162  0.6460  0.1465
 1406SOL     OW 5668   8.388   6.690   5.393  0.3099  0.0673 -0.1511
 1406SOL    HW1 5669   8.383   6.648   5.307 -0.8277 -0.4251  0.1453
 1406SOL    HW2 5670   8.414   6.780   5.373 -0.5073  0.1228 -1.0761
 1407SOL     OW 5671   8.074   8.234   4.144  0.3256 -0.3571 -0.0043
 1407SOL    HW1 5672   8.065   8.309   4.085 -1.6531 -0.5973 -0.0714
 1407SOL    HW2 5673   8.013   8.252   4.215 -1.8337 -2.8074 -1.0688
 1408SOL     OW 5674   6.958   7.072   3.628 -0.6255 -0.1928 -0.5008
 1408SOL    HW1 5675   6.990   7.064   3.538  0.5007  2.1844 -0.3791
 1408SOL    HW2 5676   6.984   6.990   3.670  2.0649  0.0902 -1.4174
 1409SOL     OW 5677   3.730   4.266   6.641  0.2867 -0.0849 -0.0424
 1409SOL    HW1 5678   3.821   4.293   6.652  0.4212  0.2744 -1.7503
 1409SOL    HW2 5679   3.735   4.176   6.609  0.1065  0.1812 -0.8704
 1410SOL     OW 5680   6.196   5.704   8.208 -0.0046  0.3243  0.1043
 1410SOL    HW1 5681   6.247   5.743   8.137 -2.2478  2.6870 -0.3693
 1410SOL    HW2 5682   6.229   5.746   8.287  0.6635 -0.2732  0.1478
 1411SOL     OW 5683   1.928   5.718   3.309 -0.0187 -0.0697 -0.3310
 1411SOL    HW1 5684   1.967   5.726   3.223  1.0420  0.8858  0.2155
 1411SOL    HW2 5685   1.990   5.665   3.359 -0.0082  0.4127  0.1851
 1412SOL     OW 5686   8.541   2.272   0.863  0.4231 -0.1998 -0.4508
 1412SOL    HW1 5687   8.485   2.242   0.935  2.5695 -0.2580  1.2927
 1412SOL    HW2 5688   8.574   2.191   0.824  2.8674 -0.2986  1.5470
 1413SOL     OW 5689   3.935   4.119   3.811  0.2742  0.1862 -0.6589
 1413SOL    HW1 5690   3.977   4.160   3.887 -1.3658  1.9870 -0.6347
 1413SOL    HW2 5691   3.982   4.037   3.798  1.2033  0.2691  1.7391
 1414SOL     OW 5692   8.698   0.980   6.457 -0.2426 -0.1241  0.3617
 1414SOL    HW1 5693   8.741   1.065   6.448 -0.7182  0.3438  2.1511
 1414SOL    HW2 5694   8.619   0.987   6.404  0.5055 -0.0560 -0.7958
 1415SOL     OW 5695   2.489   2.167   5.920 -0.5509  0.2400 -0.2411
 1415SOL    HW1 5696   2.543   2.244   5.935 -0.9391  0.1728  1.8057
 1415SOL    HW2 5697   2.400   2.201   5.917 -0.5974  0.0537 -0.9619
 1416SOL     OW 5698   4.140   2.313   8.092 -0.2599 -0.1521  0.4237
 1416SOL    HW1 5699   4.184   2.229   8.081  1.2240  0.5838  0.4209
 1416SOL    HW2 5700   4.074   2.298   8.159 -1.0225 -1.6624 -0.6121
 1417SOL     OW 5701   9.203   6.530   1.392 -0.4316 -0.8818 -0.0540
 1417SOL    HW1 5702   9.220   6.519   1.486 -4.0545 -0.1238  0.8616
 1417SOL    HW2 5703   9.227   6.620   1.374 -0.4004 -0.8060  0.3501
 1418SOL     OW 5704   4.095   6.171   4.779  0.2769  0.3282  0.2161
 1418SOL    HW1 5705   4.058   6.116   4.847  1.1975  0.9858  1.2881
 1418SOL    HW2 5706   4.152   6.113   4.729 -1.0419 -0.3528 -0.5606
 1419SOL     OW 5707   3.700   7.120   0.929 -0.0446 -0.1005  0.4165
 1419SOL    HW1 5708   3.645   7.164   0.994 -1.0801 -0.7807  0.0198
 1419SOL    HW2 5709   3.707   7.184   0.857 -1.0374 -0.3246  0.1045
 1420SOL     OW 5710   4.965   6.982   0.451 -0.3434  0.4033  0.3150
 1420SOL    HW1 5711   5.022   7.008   0.524 -2.1744  0.8534  1.6741
 1420SOL    HW2 5712   4.898   6.927   0.493 -1.0122  0.0351 -1.1889
 1421SOL     OW 5713   2.442   4.974   4.094 -0.1623 -0.1917  0.0291
 1421SOL    HW1 5714   2.406   5.047   4.043  1.7752 -0.4391 -1.8439
 1421SOL    HW2 5715   2.528   5.004   4.122  0.0826 -1.2602  0.4531
 1422SOL     OW 5716   4.212   6.972   2.204  0.4869 -0.0666 -0.4954
 1422SOL    HW1 5717   4.237   6.883   2.227  2.4194  0.5643  0.0595
 1422SOL    HW2 5718   4.173   7.008   2.284 -0.5241 -0.4647 -0.7941
 1423SOL     OW 5719   6.267   0.776   3.770 -1.2231  0.2967 -0.1238
 1423SOL    HW1 5720   6.324   0.853   3.761  0.5975 -1.0760 -0.8800
 1423SOL    HW2 5721   6.228   0.765   3.683  0.1365 -0.8055 -0.6232
 1424SOL     OW 5722   8.903   8.245   0.960 -0.2981  0.2440 -0.6342
 1424SOL    HW1 5723   8.981   8.297   0.943  0.7305 -1.4095 -1.2826
 1424SOL    HW2 5724   8.931   8.181   1.026 -1.0306 -0.4948 -1.0158
 1425SOL     OW 5725   0.710   0.387   6.798 -0.3223  0.3305  0.2139
 1425SOL    HW1 5726   0.760   0.426   6.727 -1.3760  1.7595  0.1983
 1425SOL    HW2 5727   0.773   0.377   6.869 -0.2233  3.4566  0.7164
 1426SOL     OW 5728   7.391   7.595   3.971 -0.1907 -0.1901  0.1333
 1426SOL    HW1 5729   7.338   7.674   3.960  0.7627  0.5408  0.6373
 1426SOL    HW2 5730   7.427   7.579   3.884  0.7186  0.7555  0.3164
 1427SOL     OW 5731   4.720   6.862   2.530  0.2024  0.4190  0.0246
 1427SOL    HW1 5732   4.680   6.942   2.563  1.0537  1.1053 -0.5614
 1427SOL    HW2 5733   4.690   6.794   2.590 -0.5070  1.1754  0.5512
 1428SOL     OW 5734   2.104   8.692   3.864 -0.1201 -0.6316  0.4875
 1428SOL    HW1 5735   2.088   8.771   3.814  0.9927 -1.3169 -1.0062
 1428SOL    HW2 5736   2.074   8.713   3.953  0.6023  1.5956  0.2405
 1429SOL     OW 5737   2.276   3.976   3.750  0.0885 -0.7251  0.8251
 1429SOL    HW1 5738   2.358   3.978   3.700 -1.0174  1.6712 -1.0974
 1429SOL    HW2 5739   2.226   3.904   3.711 -0.2439  0.3190 -0.8357
 1430SOL     OW 5740   9.192   1.002   3.734 -0.3236  0.1081 -0.6453
 1430SOL    HW1 5741   9.171   0.967   3.820  2.6944 -0.8462 -0.1621
 1430SOL    HW2 5742   9.135   1.078   3.724  0.1598  1.0739  2.7785
 1431SOL     OW 5743   7.709   7.919   8.862  0.5690  0.1800  0.6471
 1431SOL    HW1 5744   7.680   8.010   8.858  1.3159  0.4669  1.3428
 1431SOL    HW2 5745   7.630   7.869   8.879 -0.3309  0.3786 -2.4644
 1432SOL     OW 5746   5.280   3.604   5.821  0.0432 -0.6405  0.4132
 1432SOL    HW1 5747   5.258   3.512   5.836  2.3260 -1.2512  0.4465
 1432SOL    HW2 5748   5.199   3.651   5.836 -1.1514 -2.6385  0.5521
 1433SOL     OW 5749   3.814   4.502   7.840 -0.4251 -0.0506  1.0116
 1433SOL    HW1 5750   3.850   4.451   7.912  3.2509  3.0254  1.6697
 1433SOL    HW2 5751   3.862   4.474   7.762 -0.7661  0.1208  0.7301
 1434SOL     OW 5752   6.439   8.575   6.118  0.0841  0.2354 -0.1741
 1434SOL    HW1 5753   6.437   8.484   6.089 -0.5615  0.2187 -0.0884
 1434SOL    HW2 5754   6.526   8.585   6.157  0.1010 -0.3973 -0.0281
 1435SOL     OW 5755   7.562   7.978   5.429  0.1453  0.0310 -0.3412
 1435SOL    HW1 5756   7.580   7.951   5.519  0.4402  0.6784 -0.2004
 1435SOL    HW2 5757   7.548   7.896   5.382  0.9447 -0.3603  0.0875
 1436SOL     OW 5758   7.639   5.050   5.088  0.4070 -0.2121 -0.1223
 1436SOL    HW1 5759   7.686   5.020   5.166 -0.4769  0.4198  0.6776
 1436SOL    HW2 5760   7.593   4.972   5.057  1.0246 -0.5453 -0.2152
 1437SOL     OW 5761   8.705   1.870   8.658 -0.5587  0.7738  0.4960
 1437SOL    HW1 5762   8.786   1.908   8.694 -1.1089  1.9125  0.5599
 1437SOL    HW2 5763   8.700   1.783   8.699  1.5448 -0.0789 -0.8553
 1438SOL     OW 5764   9.134   0.847   3.954 -0.2680  0.7045 -0.6409
 1438SOL    HW1 5765   9.070   0.776   3.943 -0.3185  0.7170 -0.4385
 1438SOL    HW2 5766   9.115   0.883   4.041  1.3714 -0.6580  0.3387
 1439SOL     OW 5767   8.534   8.127   5.488 -0.1095 -0.0602  0.0153
 1439SOL    HW1 5768   8.474   8.157   5.556  0.3118 -0.1125  0.4152
 1439SOL    HW2 5769   8.511   8.035   5.475 -0.5476  0.0904 -0.2996
 1440SOL     OW 5770   5.710   7.470   0.479 -0.3556 -0.6143  0.3507
 1440SOL    HW1 5771   5.662   7.496   0.558 -0.3276  1.4870 -0.2689
 1440SOL    HW2 5772   5.741   7.381   0.498 -0.4879 -0.2321  2.6382
 1441SOL     OW 5773   4.545   5.993   6.347  0.0045 -0.0144  0.6192
 1441SOL    HW1 5774   4.590   6.057   6.292 -2.0920  0.7800 -0.2834
 1441SOL    HW2 5775   4.526   6.039   6.428 -0.9618  0.3333  0.2061
 1442SOL     OW 5776   1.756   1.271   6.329  0.5460  0.3240 -0.1677
 1442SOL    HW1 5777   1.704   1.322   6.266 -0.4766 -1.0524 -0.4865
 1442SOL    HW2 5778   1.843   1.309   6.325  0.0516  1.4254 -1.0845
 1443SOL     OW 5779   0.501   5.811   3.481 -0.6293  0.3055 -0.5043
 1443SOL    HW1 5780   0.517   5.828   3.573 -2.8753 -2.2122  0.4836
 1443SOL    HW2 5781   0.409   5.834   3.468 -0.2930  0.8432 -2.2108
 1444SOL     OW 5782   0.307   8.940   8.236  0.2580 -0.5652 -0.0510
 1444SOL    HW1 5783   0.258   8.895   8.167 -0.6058  0.1817  0.0606
 1444SOL    HW2 5784   0.304   8.881   8.311  2.3535 -2.0094 -1.0117
 1445SOL     OW 5785   6.788   5.441   2.697  0.0068  0.8196 -0.2342
 1445SOL    HW1 5786   6.856   5.374   2.707 -0.8009  0.0039 -0.0984
 1445SOL    HW2 5787   6.832   5.523   2.722  0.6137  0.1386  1.0841
 1446SOL     OW 5788   7.522   7.699   1.001 -0.2891 -0.1373 -0.2274
 1446SOL    HW1 5789   7.520   7.605   1.022 -0.4081  0.0970  0.8757
 1446SOL    HW2 5790   7.614   7.723   1.010 -0.1559 -0.2648 -1.1251
 1447SOL     OW 5791   4.238   5.236   8.174 -0.4507  0.1808 -0.6525
 1447SOL    HW1 5792   4.301   5.165   8.166 -1.1690 -0.7515  1.2005
 1447SOL    HW2 5793   4.247   5.266   8.265 -0.5706  2.1054 -1.2203
 1448SOL     OW 5794   2.254   7.370   6.563  0.1589  0.3524  0.0321
 1448SOL    HW1 5795   2.322   7.407   6.620  1.0370  0.4909 -1.0558
 1448SOL    HW2 5796   2.208   7.446   6.528  1.1689  0.4315 -1.2467
 1449SOL     OW 5797   0.450   1.702   4.224 -0.3290 -0.3507  0.2555
 1449SOL    HW1 5798   0.364   1.675   4.256 -0.3783 -0.1724  0.2745
 1449SOL    HW2 5799   0.450   1.797   4.233 -0.2293 -0.3254  0.0082
 1450SOL     OW 5800   5.309   6.967   6.936 -0.0391 -0.2588 -0.1867
 1450SOL    HW1 5801   5.223   6.936   6.910 -1.1264  2.5947 -0.3345
 1450SOL    HW2 5802   5.362   6.963   6.857 -0.5099 -0.5768 -0.4843
 1451SOL     OW 5803   8.413   8.193   7.685  0.2941  0.1208  0.5630
 1451SOL    HW1 5804   8.376   8.134   7.619  1.4034 -1.4692  1.3017
 1451SOL    HW2 5805   8.493   8.227   7.645 -0.2480  1.0482  0.2116
 1452SOL     OW 5806   0.890   6.990   8.731 -0.1086 -0.6401  0.0631
 1452SOL    HW1 5807   0.867   7.012   8.641 -0.9008 -1.6777  0.0044
 1452SOL    HW2 5808   0.983   6.967   8.727 -0.1358 -0.6726 -0.4848
 1453SOL     OW 5809   8.829   1.230   6.481  0.2856 -0.0325  0.5239
 1453SOL    HW1 5810   8.829   1.269   6.394  0.0762  0.1958  0.6261
 1453SOL    HW2 5811   8.921   1.206   6.496  0.5115  0.9004  0.6757
 1454SOL     OW 5812   1.428   3.541   3.654 -0.2829 -0.5098 -0.0087
 1454SOL    HW1 5813   1.435   3.465   3.711  1.0845 -0.9620 -0.7494
 1454SOL    HW2 5814   1.347   3.584   3.682 -0.1407 -1.2387  1.6029
 1455SOL     OW 5815   4.795   4.591   7.623 -0.2743  0.0588 -0.3327
 1455SOL    HW1 5816   4.872   4.632   7.662 -0.5914  0.7989 -0.4570
 1455SOL    HW2 5817   4.739   4.665   7.597 -0.9073 -0.4570 -0.4769
 1456SOL     OW 5818   5.232   3.479   4.038  0.1594  0.1231  0.0579
 1456SOL    HW1 5819   5.190   3.427   4.107  0.5964 -1.2286 -0.6491
 1456SOL    HW2 5820   5.160   3.525   3.995 -0.2115  0.3197  0.8698
 1457SOL     OW 5821   6.849   6.366   3.042 -0.2530  0.7991 -0.1539
 1457SOL    HW1 5822   6.760   6.394   3.020 -0.0792  0.0933 -1.9384
 1457SOL    HW2 5823   6.838   6.279   3.079 -0.2665  0.3366 -1.2070
 1458SOL     OW 5824   8.036   4.404   6.612  0.1916 -0.2377  0.4004
 1458SOL    HW1 5825   7.971   4.424   6.680  0.3356 -2.6770  1.3515
 1458SOL    HW2 5826   8.002   4.448   6.534 -0.8991  1.2051  1.6087
 1459SOL     OW 5827   4.856   9.017   1.767  0.5070  0.0407  0.3816
 1459SOL    HW1 5828   4.820   8.954   1.704 -1.6179  1.0235  0.5312
 1459SOL    HW2 5829   4.791   9.021   1.837  1.6599  0.8022  1.4480
 1460SOL     OW 5830   7.214   7.539   1.055 -0.3404 -0.2968  0.0932
 1460SOL    HW1 5831   7.298   7.493   1.047 -0.3997 -0.2610 -0.8949
 1460SOL    HW2 5832   7.230   7.608   1.119  1.3477  1.7728 -2.3348
 1461SOL     OW 5833   3.109   2.913   4.626  0.3096 -0.1168 -0.3554
 1461SOL    HW1 5834   3.040   2.979   4.628  0.7996  0.3931 -0.1441
 1461SOL    HW2 5835   3.184   2.957   4.587  1.9605  0.7710  3.4019
 1462SOL     OW 5836   2.203   1.717   6.255 -0.4473  0.4110 -0.3487
 1462SOL    HW1 5837   2.205   1.773   6.332  0.5550  1.3991 -1.0719
 1462SOL    HW2 5838   2.110   1.705   6.236 -0.7099  0.0687  1.0529
 1463SOL     OW 5839   4.258   2.535   5.885  0.1373  0.5136  0.5672
 1463SOL    HW1 5840   4.323   2.552   5.816 -1.4083  1.4760 -0.7264
 1463SOL    HW2 5841   4.292   2.580   5.962  2.9272 -2.2151  1.1616
 1464SOL     OW 5842   3.465   2.229   7.805  0.1358 -0.3011  0.7478
 1464SOL    HW1 5843   3.483   2.307   7.753  0.5528  0.0599  1.4138
 1464SOL    HW2 5844   3.494   2.157   7.751  0.0122  0.0231  0.2399
 1465SOL     OW 5845   5.444   8.251   7.026  0.1099 -0.0080 -0.2441
 1465SOL    HW1 5846   5.490   8.304   7.091  0.2124  0.8987 -1.0261
 1465SOL    HW2 5847   5.352   8.257   7.050 -0.0656  1.8699 -1.2221
 1466SOL     OW 5848   7.697   5.720   4.049  0.8536 -0.2072 -0.2371
 1466SOL    HW1 5849   7.757   5.698   3.977 -1.0108  0.5156 -2.1323
 1466SOL    HW2 5850   7.677   5.813   4.035  1.6443  0.3889  2.2168
 1467SOL     OW 5851   5.031   4.962   3.045  1.0980 -0.2490  0.6202
 1467SOL    HW1 5852   5.084   4.909   2.985 -0.9222 -0.3130 -1.2200
 1467SOL    HW2 5853   5.014   4.904   3.119  2.2439 -0.7696  0.5013
 1468SOL     OW 5854   7.395   8.764   1.000 -0.5590 -0.2405 -0.0292
 1468SOL    HW1 5855   7.474   8.777   1.054 -0.7531  0.9889 -0.0176
 1468SOL    HW2 5856   7.405   8.826   0.928 -1.5749 -0.0124  0.0240
 1469SOL     OW 5857   2.869   7.001   6.722  0.4270 -0.1008  0.2111
 1469SOL    HW1 5858   2.849   7.023   6.631  1.0426  0.5116  0.2180
 1469SOL    HW2 5859   2.943   6.941   6.716 -0.3619 -1.1063  0.2590
 1470SOL     OW 5860   7.239   5.661   6.040 -0.4635 -0.6178  0.3972
 1470SOL    HW1 5861   7.162   5.633   6.090 -0.3065  0.1677  1.1119
 1470SOL    HW2 5862   7.229   5.756   6.034 -0.4389 -0.6810 -1.0276
 1471SOL     OW 5863   3.961   2.949   1.342  0.6535  0.2268 -0.1382
 1471SOL    HW1 5864   3.958   2.949   1.246  0.6149  0.5078 -0.1379
 1471SOL    HW2 5865   3.888   3.005   1.368  0.6970  0.1944  0.0554
 1472SOL     OW 5866   1.736   7.164   8.778  0.7425 -0.2521  0.2893
 1472SOL    HW1 5867   1.667   7.098   8.779 -2.0819  2.4851  0.3810
 1472SOL    HW2 5868   1.753   7.183   8.871 -0.1822  0.7292  0.2825
 1473SOL     OW 5869   5.089   3.503   2.384  0.1619 -0.4284  0.2490
 1473SOL    HW1 5870   5.055   3.578   2.433 -0.8274 -1.0516  0.5476
 1473SOL    HW2 5871   5.016   3.474   2.330  0.5811 -1.0821  0.0171
 1474SOL     OW 5872   0.449   6.198   5.376 -0.2540 -0.0131 -0.2748
 1474SOL    HW1 5873   0.360   6.199   5.410  0.2831 -0.0082  1.1998
 1474SOL    HW2 5874   0.472   6.106   5.370 -1.0488 -0.1475 -2.7113
 1475SOL     OW 5875   6.576   8.806   7.836 -0.3322 -0.0035 -0.5989
 1475SOL    HW1 5876   6.528   8.804   7.919 -0.1238  1.3305 -0.4141
 1475SOL    HW2 5877   6.668   8.819   7.862 -0.1154 -0.6820 -1.0089
 1476SOL     OW 5878   3.274   4.351   3.256  0.2155  0.2491 -0.5555
 1476SOL    HW1 5879   3.341   4.326   3.320  0.8432 -0.8416 -1.5853
 1476SOL    HW2 5880   3.321   4.351   3.172 -0.7600  0.8826 -1.1152
 1477SOL     OW 5881   1.705   5.140   7.186 -0.1478 -0.6557  0.8638
 1477SOL    HW1 5882   1.658   5.217   7.218 -0.1900 -0.0185 -0.6730
 1477SOL    HW2 5883   1.637   5.076   7.168 -0.3682 -0.1221 -0.3036
 1478SOL     OW 5884   1.962   4.514   2.378 -0.2607 -0.4970 -0.1435
 1478SOL    HW1 5885   1.990   4.426   2.406  0.4111 -0.7024 -1.3890
 1478SOL    HW2 5886   1.911   4.547   2.452  1.5139 -0.9621  1.3829
 1479SOL     OW 5887   4.915   3.223   2.318  0.0230 -0.0207  0.5072
 1479SOL    HW1 5888   4.895   3.133   2.290 -0.4993  0.6925 -1.5447
 1479SOL    HW2 5889   4.833   3.271   2.305  0.7997  1.1528 -0.1739
 1480SOL     OW 5890   0.557   2.284   5.944 -0.4359  0.2765  0.8947
 1480SOL    HW1 5891   0.480   2.323   5.902  0.4267 -0.9763 -2.0938
 1480SOL    HW2 5892   0.623   2.354   5.943 -0.3674  0.2147 -0.1058
 1481SOL     OW 5893   2.357   8.665   7.408 -0.5780 -0.1497 -0.3727
 1481SOL    HW1 5894   2.407   8.651   7.488 -1.1674  0.6032  0.1454
 1481SOL    HW2 5895   2.405   8.734   7.361 -0.0735 -0.7940 -0.8164
 1482SOL     OW 5896   1.828   2.199   7.238  0.0145 -0.0293 -0.3117
 1482SOL    HW1 5897   1.844   2.277   7.185 -0.1991  1.2256  1.3777
 1482SOL    HW2 5898   1.785   2.233   7.317 -0.6463 -1.9477  0.1983
 1483SOL     OW 5899   5.743   7.231   5.172  0.1944 -0.4673  0.4181
 1483SOL    HW1 5900   5.779   7.280   5.098  2.1871 -0.4310  1.3574
 1483SOL    HW2 5901   5.674   7.177   5.134  0.6610  0.1185 -1.3258
 1484SOL     OW 5902   2.547   0.893   7.129 -0.4339 -0.3679 -0.5695
 1484SOL    HW1 5903   2.481   0.959   7.106 -1.9497 -1.9290 -0.8665
 1484SOL    HW2 5904   2.569   0.852   7.045 -0.4601 -1.0973 -0.2256
 1485SOL     OW 5905   4.520   7.000   2.727 -0.1667 -0.0462 -0.2139
 1485SOL    HW1 5906   4.491   7.091   2.726 -1.7569 -0.5118  0.6159
 1485SOL    HW2 5907   4.439   6.949   2.731  0.6771 -1.5215 -1.1800
 1486SOL     OW 5908   5.835   1.737   2.109  0.0854 -0.5992  0.4853
 1486SOL    HW1 5909   5.862   1.680   2.036  1.1553 -0.3294  0.6519
 1486SOL    HW2 5910   5.890   1.709   2.182  0.1576  0.2146  0.7422
 1487SOL     OW 5911   1.480   9.164   1.505 -0.3495  0.5814 -0.3255
 1487SOL    HW1 5912   1.450   9.247   1.468  1.4691  2.1441  1.4311
 1487SOL    HW2 5913   1.532   9.123   1.436 -2.6577 -0.0254 -1.8162
 1488SOL     OW 5914   2.665   6.426   8.335 -0.4203 -0.2351 -0.2729
 1488SOL    HW1 5915   2.726   6.368   8.290 -0.0271 -0.6547  0.7683
 1488SOL    HW2 5916   2.596   6.444   8.270 -0.1021 -1.1628 -0.8818
 1489SOL     OW 5917   1.920   6.343   8.152  0.3094  0.2569  0.0275
 1489SOL    HW1 5918   1.979   6.310   8.219  0.4556  0.9939  0.2761
 1489SOL    HW2 5919   1.833   6.315   8.180  0.4481 -0.0454  0.1504
 1490SOL     OW 5920   4.915   5.195   3.108  0.6981 -0.3945  0.8537
 1490SOL    HW1 5921   4.978   5.216   3.177 -0.1835 -0.3097  1.6545
 1490SOL    HW2 5922   4.932   5.104   3.086  0.5699 -0.6137  1.6394
 1491SOL     OW 5923   8.764   1.308   1.658  0.1225  0.7560 -0.0918
 1491SOL    HW1 5924   8.835   1.274   1.604 -0.8055 -2.6211  0.5811
 1491SOL    HW2 5925   8.705   1.351   1.596  0.6569 -0.1870 -1.2863
 1492SOL     OW 5926   6.613   4.176   3.309 -0.0099 -0.6995  0.0037
 1492SOL    HW1 5927   6.593   4.216   3.225  0.5109 -2.3867 -0.9674
 1492SOL    HW2 5928   6.533   4.130   3.334 -0.1262 -0.2975  0.3870
 1493SOL     OW 5929   2.416   6.059   7.044  0.6396  0.1312 -0.2729
 1493SOL    HW1 5930   2.450   6.118   7.111 -1.9343  1.0330  0.3832
 1493SOL    HW2 5931   2.438   5.972   7.075 -1.4071  0.4487  2.4454
 1494SOL     OW 5932   0.914   3.560   7.045 -0.2507  0.0526  0.6523
 1494SOL    HW1 5933   0.933   3.474   7.007 -1.1928  1.0483 -2.4331
 1494SOL    HW2 5934   0.838   3.546   7.102  0.5298 -1.3679  1.3896
 1495SOL     OW 5935   9.126   8.619   5.047  0.2210 -0.4596 -0.4756
 1495SOL    HW1 5936   9.138   8.642   4.954 -3.9446  1.2162 -0.8288
 1495SOL    HW2 5937   9.052   8.558   5.047 -0.5849  0.4107  1.7402
 1496SOL     OW 5938   8.138   3.063   3.955 -0.2472  0.3259 -0.3281
 1496SOL    HW1 5939   8.201   2.991   3.963 -1.3626 -0.5829  0.7079
 1496SOL    HW2 5940   8.145   3.090   3.863  0.8376 -0.5115 -0.5164
 1497SOL     OW 5941   4.637   8.972   7.242 -0.5027  0.9905 -0.1799
 1497SOL    HW1 5942   4.699   9.032   7.283  1.4485 -1.3304  0.5327
 1497SOL    HW2 5943   4.611   9.016   7.161 -0.0321  3.2182  0.8101
 1498SOL     OW 5944   2.298   2.189   7.226 -0.3454  0.4955  0.5205
 1498SOL    HW1 5945   2.232   2.202   7.159 -0.9220 -1.7158  0.5918
 1498SOL    HW2 5946   2.258   2.224   7.306 -0.8054  0.5464  0.2711
 1499SOL     OW 5947   3.576   2.640   5.497 -0.2062  0.2620 -0.2102
 1499SOL    HW1 5948   3.561   2.725   5.457 -1.1059  0.4165  0.4192
 1499SOL    HW2 5949   3.670   2.624   5.486  0.5726  2.5973  2.0919
 1500SOL     OW 5950   6.371   5.563   0.484  0.6959  0.1183  0.4869
 1500SOL    HW1 5951   6.408   5.541   0.399 -1.1872  0.1635 -0.3884
 1500SOL    HW2 5952   6.284   5.522   0.484 -0.7020  2.8840  1.0130
 1501SOL     OW 5953   3.287   6.816   2.145 -0.2392 -0.3533 -0.5562
 1501SOL    HW1 5954   3.252   6.730   2.167 -0.5416 -0.1422 -0.2125
 1501SOL    HW2 5955   3.211   6.873   2.135 -0.0155  0.0523 -0.0300
 1502SOL     OW 5956   1.490   3.210   8.291 -0.3074  0.1790  0.4517
 1502SOL    HW1 5957   1.406   3.164   8.290  0.6165 -1.6595  1.6525
 1502SOL    HW2 5958   1.482   3.276   8.223 -2.1685 -0.9746 -0.5335
 1503SOL     OW 5959   2.455   4.597   6.704  0.5105 -0.1237 -0.2421
 1503SOL    HW1 5960   2.508   4.669   6.740  1.4509 -0.0197 -1.7108
 1503SOL    HW2 5961   2.414   4.635   6.626 -1.0749 -0.4635  0.4007
 1504SOL     OW 5962   5.916   3.123   0.307  0.3828 -0.1998 -0.2372
 1504SOL    HW1 5963   5.933   3.077   0.389 -1.0464 -0.8978 -0.3175
 1504SOL    HW2 5964   5.892   3.212   0.334  1.5963  0.0811 -0.0087
 1505SOL     OW 5965   0.603   5.531   1.055 -0.4385  0.6386  0.2314
 1505SOL    HW1 5966   0.696   5.533   1.077 -0.4455  0.1703  0.3040
 1505SOL    HW2 5967   0.561   5.495   1.133 -0.6331  0.4411  0.0366
 1506SOL     OW 5968   0.053   6.311   5.248 -0.2145 -0.3378  0.0153
 1506SOL    HW1 5969  -0.028   6.320   5.299 -0.1693 -0.4565  0.1074
 1506SOL    HW2 5970   0.073   6.217   5.251 -1.9953 -0.9847 -2.9211
 1507SOL     OW 5971   2.019   6.064   1.370  0.0948  0.3607  0.0344
 1507SOL    HW1 5972   1.999   6.112   1.290 -2.2956 -0.2933  0.1577
 1507SOL    HW2 5973   2.090   6.005   1.345 -0.8501 -0.1045 -1.7483
 1508SOL     OW 5974   3.403   1.707   2.761 -0.2650  0.1237 -0.8378
 1508SOL    HW1 5975   3.496   1.708   2.738 -0.0549 -0.0536 -0.0312
 1508SOL    HW2 5976   3.401   1.672   2.850 -1.1749 -0.7292 -1.1689
 1509SOL     OW 5977   8.211   3.545   9.215  0.0697  0.1088  0.3878
 1509SOL    HW1 5978   8.256   3.528   9.132  0.1202  0.8254  0.2643
 1509SOL    HW2 5979   8.281   3.544   9.280  0.4159  2.0510  0.0904
 1510SOL     OW 5980   4.974   0.471   5.900 -0.1350  0.4698  0.2449
 1510SOL    HW1 5981   4.997   0.458   5.993  1.1985  2.1341  0.1985
 1510SOL    HW2 5982   5.014   0.396   5.855 -1.0029 -0.4866  1.0125
 1511SOL     OW 5983   8.739   6.740   3.466 -1.0364  0.2836 -0.3137
 1511SOL    HW1 5984   8.744   6.723   3.560 -2.1676 -2.0791 -0.6205
 1511SOL    HW2 5985   8.659   6.793   3.456 -1.6065 -0.5124 -0.0528
 1512SOL     OW 5986   3.994   6.007   3.343 -0.4779 -0.0930  0.6891
 1512SOL    HW1 5987   4.073   5.982   3.390  1.0456  2.4276 -0.3514
 1512SOL    HW2 5988   3.988   5.945   3.270 -0.0378 -0.9011  1.3341
 1513SOL     OW 5989   6.161   0.504   7.677  0.3078 -0.1922  0.5842
 1513SOL    HW1 5990   6.078   0.549   7.695 -0.2652 -0.9712 -0.0032
 1513SOL    HW2 5991   6.225   0.574   7.669 -0.9417  0.8133 -2.5096
 1514SOL     OW 5992   3.502   3.464   4.246 -0.0185 -0.6075 -0.2536
 1514SOL    HW1 5993   3.485   3.507   4.162  0.9367  0.5717  0.1383
 1514SOL    HW2 5994   3.432   3.399   4.254 -0.7574  0.0100 -1.4569
 1515SOL     OW 5995   5.668   2.713   2.989 -0.1082 -0.0698 -0.0784
 1515SOL    HW1 5996   5.594   2.752   3.035 -1.0305  1.2231 -2.4573
 1515SOL    HW2 5997   5.736   2.704   3.055 -0.7759  3.1002  1.2195
 1516SOL     OW 5998   0.074   1.423   5.669  0.6762  0.6887  0.1530
 1516SOL    HW1 5999   0.146   1.479   5.698  0.5307  1.0934 -0.2698
 1516SOL    HW2 6000   0.067   1.438   5.575  0.4374  0.1886  0.0830
 1517SOL     OW 6001   3.472   0.602   2.075 -0.8684 -0.2439 -0.5697
 1517SOL    HW1 6002   3.456   0.696   2.083 -1.0372 -0.2680 -0.6137
 1517SOL    HW2 6003   3.552   0.596   2.022  0.6540 -0.0757  1.5815
 1518SOL     OW 6004   5.357   8.021   1.687  0.1852  0.6610 -0.1052
 1518SOL    HW1 6005   5.417   8.090   1.718  0.6619  0.7575 -1.1780
 1518SOL    HW2 6006   5.404   7.981   1.614 -0.1353 -0.7489  0.4293
 1519SOL     OW 6007   2.639   3.062   2.540 -0.4483  0.3055  0.7297
 1519SOL    HW1 6008   2.653   3.043   2.447 -0.3982  1.5927  0.4504
 1519SOL    HW2 6009   2.574   2.998   2.568 -0.7679  0.1565 -0.3017
 1520SOL     OW 6010   6.364   4.250   1.906  0.2989 -0.5443 -0.0185
 1520SOL    HW1 6011   6.429   4.243   1.836  0.5001  0.1142  0.0957
 1520SOL    HW2 6012   6.409   4.299   1.975 -0.8107  1.3124 -0.5477
 1521SOL     OW 6013   8.646   8.364   4.045  0.0576 -0.3873 -0.3745
 1521SOL    HW1 6014   8.584   8.375   3.973 -0.7529  0.8498  0.4714
 1521SOL    HW2 6015   8.610   8.293   4.098 -0.5488  0.1829 -0.0052
 1522SOL     OW 6016   7.708   2.403   3.850  0.4727 -0.1596 -0.4565
 1522SOL    HW1 6017   7.754   2.326   3.884  0.9026  0.3862  0.2407
 1522SOL    HW2 6018   7.616   2.380   3.856  0.6309 -1.1978 -1.6903
 1523SOL     OW 6019   2.308   8.168   2.051  0.2776 -0.4239  0.0546
 1523SOL    HW1 6020   2.355   8.109   1.993  0.9935 -0.2050  0.4038
 1523SOL    HW2 6021   2.345   8.152   2.138 -0.7773 -0.7497  0.4589
 1524SOL     OW 6022   3.486   5.123   7.616 -0.2449 -0.3453 -0.1386
 1524SOL    HW1 6023   3.500   5.162   7.702 -2.8218  0.9760 -0.1929
 1524SOL    HW2 6024   3.491   5.029   7.631 -0.9125 -0.1547  1.5624
 1525SOL     OW 6025   5.696   4.805   6.263  0.6211 -0.2130 -0.0987
 1525SOL    HW1 6026   5.694   4.892   6.302  1.4420 -0.2579  0.0583
 1525SOL    HW2 6027   5.727   4.748   6.334 -3.1548 -1.2516  0.9245
 1526SOL     OW 6028   2.020   8.988   1.846 -0.0144 -0.0663  0.2040
 1526SOL    HW1 6029   2.079   8.971   1.773 -2.1500 -0.5907 -1.5149
 1526SOL    HW2 6030   2.068   8.959   1.924  1.9695 -0.3926 -1.0904
 1527SOL     OW 6031   0.432   0.699   6.085 -0.0688  0.5274 -0.0912
 1527SOL    HW1 6032   0.421   0.773   6.025 -0.9282  0.5994  0.1441
 1527SOL    HW2 6033   0.527   0.687   6.091  0.1936  2.7418  1.2088
 1528SOL     OW 6034   8.642   1.161   2.469  0.5438 -0.2678 -0.0841
 1528SOL    HW1 6035   8.607   1.073   2.478  2.3519 -1.0824 -0.5769
 1528SOL    HW2 6036   8.618   1.205   2.551 -1.1396 -0.8943 -0.1937
 1529SOL     OW 6037   2.456   5.977   8.574  0.5070  0.5464  0.4937
 1529SOL    HW1 6038   2.443   5.975   8.668 -1.2132  0.1234  0.2837
 1529SOL    HW2 6039   2.444   5.887   8.546 -1.4618  1.0270 -0.3820
 1530SOL     OW 6040   7.923   5.945   2.708 -0.2403 -0.0803  0.1439
 1530SOL    HW1 6041   7.870   6.025   2.705  0.2832  0.2354 -1.8925
 1530SOL    HW2 6042   8.007   5.971   2.671 -0.4368 -1.8164 -1.6957
 1531SOL     OW 6043   9.078   0.068   6.561 -0.6623 -0.5925  0.2865
 1531SOL    HW1 6044   9.156   0.103   6.603  0.8064  1.4839 -3.6418
 1531SOL    HW2 6045   9.018   0.142   6.557 -0.2230 -0.2858 -2.2083
 1532SOL     OW 6046   5.192   5.409   6.087  0.2986 -0.2358 -0.3198
 1532SOL    HW1 6047   5.196   5.379   5.996 -2.9247 -2.9452  0.2337
 1532SOL    HW2 6048   5.272   5.376   6.127  1.8007  1.0579 -2.1228
 1533SOL     OW 6049   8.108   2.939   7.018 -0.1995 -0.6916 -0.0047
 1533SOL    HW1 6050   8.032   2.989   7.046  1.0499  0.2493  1.9402
 1533SOL    HW2 6051   8.166   2.939   7.094  1.9163 -1.0142 -1.5173
 1534SOL     OW 6052   4.480   4.625   6.645  0.4502  0.3606 -0.1505
 1534SOL    HW1 6053   4.386   4.642   6.635  0.3985  0.7482  0.8666
 1534SOL    HW2 6054   4.515   4.633   6.557 -0.4667  0.2620 -0.5343
 1535SOL     OW 6055   0.991   0.382   2.027 -0.3131 -0.0421 -0.4241
 1535SOL    HW1 6056   0.973   0.329   1.949  0.4203  1.3165 -1.5479
 1535SOL    HW2 6057   0.962   0.470   2.005 -1.0244  0.1763  1.2288
 1536SOL     OW 6058   7.988   1.929   6.318  0.4869 -0.2904  0.0325
 1536SOL    HW1 6059   7.931   1.886   6.254 -0.8497 -0.0030  0.9781
 1536SOL    HW2 6060   7.928   1.978   6.374  1.7714  0.8667  0.4549
 1537SOL     OW 6061   1.464   0.276   6.009  0.1907 -0.1453  0.0722
 1537SOL    HW1 6062   1.408   0.274   5.932 -0.7532  2.1719  0.6201
 1537SOL    HW2 6063   1.540   0.328   5.983  1.4409 -1.9732 -0.1849
 1538SOL     OW 6064   1.834   0.939   9.176  0.4606 -0.0359  0.0410
 1538SOL    HW1 6065   1.739   0.930   9.170  0.3650  0.2306  1.0572
 1538SOL    HW2 6066   1.848   1.022   9.221  1.1297 -0.7646  1.2433
 1539SOL     OW 6067   4.353   9.193   8.043  0.2568 -0.4468 -0.1895
 1539SOL    HW1 6068   4.263   9.180   8.013  0.3241  0.6503 -0.9148
 1539SOL    HW2 6069   4.407   9.148   7.977  0.2480 -1.5835  0.5380
 1540SOL     OW 6070   6.213   2.778   1.746 -0.5778  0.1135  0.0239
 1540SOL    HW1 6071   6.279   2.821   1.801 -0.3729  0.5177 -0.5276
 1540SOL    HW2 6072   6.248   2.691   1.731 -1.1068 -0.3462  1.3457
 1541SOL     OW 6073   2.184   3.187   7.168  0.3200  0.4113 -0.0696
 1541SOL    HW1 6074   2.276   3.179   7.143 -0.1687 -2.3453 -1.4062
 1541SOL    HW2 6075   2.158   3.273   7.135  2.2142  0.9025 -0.4026
 1542SOL     OW 6076   3.980   1.235   5.590  0.1974  0.3151  0.1908
 1542SOL    HW1 6077   3.947   1.206   5.505 -1.0064  0.5689  0.5510
 1542SOL    HW2 6078   3.983   1.154   5.642  1.1603  0.1215 -0.1572
 1543SOL     OW 6079   5.260   7.306   7.308 -0.1437  0.3168  0.0487
 1543SOL    HW1 6080   5.202   7.309   7.384 -1.2007 -0.8772 -0.6603
 1543SOL    HW2 6081   5.252   7.216   7.275  1.9904  0.1550 -0.1995
 1544SOL     OW 6082   7.516   7.217   0.658 -0.4672  0.2500  0.1829
 1544SOL    HW1 6083   7.425   7.247   0.649 -0.9824 -0.9881  0.8811
 1544SOL    HW2 6084   7.528   7.157   0.584 -0.1674  0.5482 -0.0059
 1545SOL     OW 6085   0.685   6.656   3.514  0.3476 -0.2410  0.3847
 1545SOL    HW1 6086   0.605   6.629   3.558  0.7333 -0.3399  1.0456
 1545SOL    HW2 6087   0.723   6.722   3.573 -0.3957  1.5250 -1.0091
 1546SOL     OW 6088   1.887   5.232   6.265 -0.2074  0.1977 -0.4802
 1546SOL    HW1 6089   1.966   5.181   6.253 -0.2464 -0.0747  0.3140
 1546SOL    HW2 6090   1.888   5.256   6.358 -1.6930 -0.9211 -0.1283
 1547SOL     OW 6091   2.832   6.312   8.124  0.2592 -0.1634 -0.2809
 1547SOL    HW1 6092   2.807   6.291   8.034 -0.6589  1.0044 -0.3175
 1547SOL    HW2 6093   2.883   6.236   8.153  0.5694 -0.5556 -1.7752
 1548SOL     OW 6094   1.001   4.621   5.651 -0.3223  1.4178  0.0827
 1548SOL    HW1 6095   1.084   4.584   5.680  0.0583  0.7203 -1.7409
 1548SOL    HW2 6096   0.938   4.549   5.663  0.4799 -0.1983 -3.7770
 1549SOL     OW 6097   0.073   3.115   8.912  0.1157 -0.1231  0.0976
 1549SOL    HW1 6098   0.147   3.078   8.961  0.8380  3.5353  2.1266
 1549SOL    HW2 6099  -0.004   3.069   8.947  0.9761 -0.2543  1.9391
 1550SOL     OW 6100   1.319   8.619   8.327  0.1022 -0.4983  0.3269
 1550SOL    HW1 6101   1.306   8.531   8.292 -0.1393 -0.2308 -0.2827
 1550SOL    HW2 6102   1.251   8.672   8.284  0.3391  0.0141  0.5708
 1551SOL     OW 6103   0.932   2.603   5.301 -0.3498  0.0353  0.1828
 1551SOL    HW1 6104   0.952   2.613   5.208 -1.0472  0.2161  0.0441
 1551SOL    HW2 6105   0.979   2.524   5.327  0.3070  0.2927 -0.1843
 1552SOL     OW 6106   4.577   4.037   8.397  0.0367  0.3763 -0.0195
 1552SOL    HW1 6107   4.516   4.021   8.325 -0.4858 -0.7500  0.6443
 1552SOL    HW2 6108   4.586   4.132   8.400 -0.3001  0.4629 -1.2625
 1553SOL     OW 6109   6.284   8.888   8.735  0.1565  0.0550  0.0065
 1553SOL    HW1 6110   6.214   8.864   8.795 -1.6900 -1.1155 -2.4043
 1553SOL    HW2 6111   6.359   8.837   8.763 -1.0113 -1.4029  0.6169
 1554SOL     OW 6112   6.109   4.735   7.436 -0.3355  0.9383 -0.5854
 1554SOL    HW1 6113   6.076   4.712   7.349 -0.0558  0.9252 -0.6910
 1554SOL    HW2 6114   6.161   4.814   7.421 -0.5974  1.1504 -0.3653
 1555SOL     OW 6115   5.814   9.102   0.503 -0.2003 -0.0298 -0.1393
 1555SOL    HW1 6116   5.884   9.051   0.544 -1.4159 -1.9272 -0.2903
 1555SOL    HW2 6117   5.811   9.069   0.413 -0.0912  1.3568 -0.6666
 1556SOL     OW 6118   8.904   6.176   5.114 -0.3101 -0.4953  0.0214
 1556SOL    HW1 6119   8.975   6.229   5.079 -0.1271 -0.8703 -0.1878
 1556SOL    HW2 6120   8.827   6.233   5.111  0.1382  0.1978  1.0234
 1557SOL     OW 6121   3.315   4.324   8.855  0.0999 -0.0504 -0.2564
 1557SOL    HW1 6122   3.394   4.300   8.904 -0.9108 -0.1120  1.4239
 1557SOL    HW2 6123   3.283   4.242   8.819  0.2044 -0.1844 -0.0435
 1558SOL     OW 6124   5.177   8.362   1.872 -0.1601 -0.3801 -0.9642
 1558SOL    HW1 6125   5.184   8.270   1.897  0.2043  0.0249  0.4960
 1558SOL    HW2 6126   5.227   8.409   1.939 -1.8755  1.0534 -0.6288
 1559SOL     OW 6127   8.247   0.263   0.705  0.2581  0.1966 -0.5693
 1559SOL    HW1 6128   8.274   0.352   0.682 -2.6240  1.2114 -0.4062
 1559SOL    HW2 6129   8.291   0.208   0.640  1.9587  1.7023 -0.7929
 1560SOL     OW 6130   6.663   4.904   8.071  0.1169 -0.2726 -0.1882
 1560SOL    HW1 6131   6.753   4.927   8.050  0.5210 -2.0879 -0.6232
 1560SOL    HW2 6132   6.610   4.958   8.011  0.8611  1.0514  0.2979
 1561SOL     OW 6133   1.971   6.686   3.348  0.2026  0.1081 -0.3199
 1561SOL    HW1 6134   2.014   6.647   3.424 -1.6375 -1.1364  0.1528
 1561SOL    HW2 6135   1.879   6.695   3.375  0.0456  2.3175 -1.4066
 1562SOL     OW 6136   4.097   6.858   9.111  0.0555 -0.1809  0.0230
 1562SOL    HW1 6137   4.112   6.810   9.193 -0.9437  0.8572  0.8546
 1562SOL    HW2 6138   4.184   6.876   9.077  0.4906 -0.6306  0.8638
 1563SOL     OW 6139   9.190   7.713   5.556 -0.1594 -0.1021 -0.2204
 1563SOL    HW1 6140   9.122   7.664   5.511 -2.4551  1.6265  1.1423
 1563SOL    HW2 6141   9.173   7.805   5.534  0.1750  0.5890  2.0582
 1564SOL     OW 6142   2.926   5.542   4.630 -0.6252 -0.4574  0.2642
 1564SOL    HW1 6143   2.832   5.559   4.631 -0.4680  0.5425  1.7450
 1564SOL    HW2 6144   2.944   5.500   4.714  0.2280 -0.8390 -0.0950
 1565SOL     OW 6145   3.657   5.975   6.637 -0.5939 -0.2000  0.5454
 1565SOL    HW1 6146   3.647   5.977   6.732 -1.3943 -2.8810  0.5863
 1565SOL    HW2 6147   3.585   6.029   6.604  0.8379  2.4270  1.4005
 1566SOL     OW 6148   1.606   1.874   9.202  0.2884  0.1146 -0.1469
 1566SOL    HW1 6149   1.558   1.841   9.278  1.6295 -1.9733 -0.1331
 1566SOL    HW2 6150   1.662   1.943   9.237  0.8403 -0.7760  0.7821
 1567SOL     OW 6151   2.472   2.370   2.538 -0.1989  0.1459  0.0121
 1567SOL    HW1 6152   2.456   2.421   2.618  1.2768 -0.8242  0.9658
 1567SOL    HW2 6153   2.511   2.288   2.569  0.7693 -0.0953 -1.7362
 1568SOL     OW 6154   6.452   1.228   0.310 -0.1019 -0.5333 -0.3914
 1568SOL    HW1 6155   6.418   1.163   0.372 -0.0173  0.2157  0.4682
 1568SOL    HW2 6156   6.462   1.308   0.363  1.1223 -0.2054 -1.0818
 1569SOL     OW 6157   6.066   8.629   8.703 -0.4753  0.5090 -0.4937
 1569SOL    HW1 6158   5.978   8.622   8.666  0.4758 -1.5653 -2.6885
 1569SOL    HW2 6159   6.120   8.662   8.631  0.6627  1.2413  0.6445
 1570SOL     OW 6160   0.533   1.525   7.759  0.4718  0.3708 -0.2630
 1570SOL    HW1 6161   0.593   1.475   7.703 -1.2079 -1.7452 -0.3088
 1570SOL    HW2 6162   0.548   1.491   7.847 -0.8533 -0.4859 -0.3288
 1571SOL     OW 6163   2.273   5.087   5.960 -0.8248  0.0998 -0.1961
 1571SOL    HW1 6164   2.349   5.109   5.906 -1.3761  0.0448 -1.0091
 1571SOL    HW2 6165   2.299   5.008   6.007  0.2866  1.0792  0.9260
 1572SOL     OW 6166   5.424   8.888   3.962 -0.2920  0.0434  0.3981
 1572SOL    HW1 6167   5.477   8.962   3.988 -0.9134  0.6701 -0.0713
 1572SOL    HW2 6168   5.452   8.869   3.872 -1.1923  0.7127 -0.0450
 1573SOL     OW 6169   0.356   0.407   0.101 -0.6087  0.2162  0.4996
 1573SOL    HW1 6170   0.386   0.388   0.012 -0.2271 -0.1154  0.6962
 1573SOL    HW2 6171   0.389   0.495   0.119 -1.4038  0.6251  0.0075
 1574SOL     OW 6172   0.723   1.914   2.268  0.8439  0.0668 -0.3379
 1574SOL    HW1 6173   0.771   1.983   2.223 -1.2373  0.2717 -2.4577
 1574SOL    HW2 6174   0.640   1.955   2.293 -1.2436 -1.9332 -3.2758
 1575SOL     OW 6175   6.774   3.447   3.920  0.4578  0.2419  0.0864
 1575SOL    HW1 6176   6.847   3.411   3.869 -0.8230 -1.7953 -0.4533
 1575SOL    HW2 6177   6.761   3.385   3.991 -0.8074  0.4996  0.1060
 1576SOL     OW 6178   1.041   1.510   6.466  0.0334 -0.1728  0.2234
 1576SOL    HW1 6179   1.090   1.579   6.421 -1.3363 -0.5133 -1.9187
 1576SOL    HW2 6180   0.961   1.554   6.495  1.1923  0.2288  3.1536
 1577SOL     OW 6181   3.157   4.108   2.533 -0.1273  0.0176  0.0721
 1577SOL    HW1 6182   3.163   4.151   2.618  0.8846  1.0035 -0.4708
 1577SOL    HW2 6183   3.131   4.178   2.472  1.1215 -0.1879 -0.7517
 1578SOL     OW 6184   0.939   8.350   9.023 -0.6323 -0.0942  0.7862
 1578SOL    HW1 6185   1.035   8.348   9.032 -0.7039  0.5193  1.8334
 1578SOL    HW2 6186   0.924   8.352   8.929  0.4053  0.3396  0.6156
 1579SOL     OW 6187   1.042   4.544   4.298  0.1071 -1.1858 -0.2624
 1579SOL    HW1 6188   1.002   4.471   4.251  0.3490 -1.7430  0.3862
 1579SOL    HW2 6189   0.977   4.567   4.365  0.2702 -1.1719 -0.1095
 1580SOL     OW 6190   0.062   6.008   4.529 -0.2231 -0.4383  0.0242
 1580SOL    HW1 6191   0.050   6.096   4.564  1.5423 -0.1447  0.0119
 1580SOL    HW2 6192  -0.019   5.962   4.549 -0.1512  0.3797  2.5085
 1581SOL     OW 6193   2.191   3.864   3.234  0.2801  0.2921  1.0213
 1581SOL    HW1 6194   2.190   3.911   3.151  0.7700 -0.9527  0.2869
 1581SOL    HW2 6195   2.283   3.861   3.259  0.3933 -1.1750  0.5084
 1582SOL     OW 6196   9.116   1.229   9.036 -0.2648 -0.4663 -0.6028
 1582SOL    HW1 6197   9.058   1.286   8.986  0.6512  1.2845  0.2599
 1582SOL    HW2 6198   9.072   1.217   9.120  0.1804  0.0964 -0.2875
 1583SOL     OW 6199   2.572   4.257   1.236 -0.3097  0.5459 -0.0676
 1583SOL    HW1 6200   2.639   4.302   1.184  1.2822 -0.8384  0.6723
 1583SOL    HW2 6201   2.622   4.205   1.299 -2.0370 -1.5853 -0.3371
 1584SOL     OW 6202   6.776   4.124   4.075  0.0218 -0.9099 -0.2917
 1584SOL    HW1 6203   6.694   4.165   4.048  1.2253  0.8611 -1.5318
 1584SOL    HW2 6204   6.790   4.155   4.164 -1.0008 -1.8539  0.2191
 1585SOL     OW 6205   8.195   7.340   3.135  0.0276 -0.0237  0.7668
 1585SOL    HW1 6206   8.116   7.293   3.108  0.3992 -1.6521  2.3100
 1585SOL    HW2 6207   8.261   7.312   3.072 -0.1613 -0.2318  0.6571
 1586SOL     OW 6208   9.231   3.857   9.149 -0.4252  0.0287  0.5169
 1586SOL    HW1 6209   9.160   3.904   9.105  0.3960  0.2677 -0.6135
 1586SOL    HW2 6210   9.201   3.767   9.155 -1.4126  0.4030  1.3735
 1587SOL     OW 6211   0.901   6.919   6.227 -0.3237 -0.1826 -1.0929
 1587SOL    HW1 6212   0.907   6.929   6.322 -0.7830 -1.1329 -0.9555
 1587SOL    HW2 6213   0.913   7.008   6.193  0.8037  0.0312 -0.2074
 1588SOL     OW 6214   9.085   7.156   1.797  0.1854  0.2241  0.0988
 1588SOL    HW1 6215   9.148   7.217   1.835  1.8303 -1.8683  0.9210
 1588SOL    HW2 6216   9.125   7.070   1.808 -3.4287 -1.4286  1.9194
 1589SOL     OW 6217   8.553   4.671   8.403  0.2231  0.6107  0.1134
 1589SOL    HW1 6218   8.551   4.579   8.429 -2.7447 -0.0579 -1.9575
 1589SOL    HW2 6219   8.583   4.670   8.312 -0.7986  1.5213 -0.2625
 1590SOL     OW 6220   4.825   7.781   2.413 -0.2870  0.3252  0.1052
 1590SOL    HW1 6221   4.732   7.757   2.419 -0.7382  1.5001 -1.2909
 1590SOL    HW2 6222   4.835   7.855   2.473 -0.1471 -0.0755  0.5769
 1591SOL     OW 6223   8.440   8.887   6.398 -0.1673  0.6027  0.6431
 1591SOL    HW1 6224   8.471   8.862   6.311 -1.9618  0.4583 -0.0072
 1591SOL    HW2 6225   8.380   8.960   6.381 -0.8219  0.3340  1.7217
 1592SOL     OW 6226   1.601   5.067   8.772  0.0525 -0.0360  0.2208
 1592SOL    HW1 6227   1.665   5.138   8.775  1.0860 -0.9890  2.0100
 1592SOL    HW2 6228   1.523   5.103   8.813 -0.6950  1.1817 -2.0975
 1593SOL     OW 6229   0.285   2.798   2.824 -0.0983 -0.3217 -0.6765
 1593SOL    HW1 6230   0.326   2.752   2.751 -0.7045 -1.4161 -0.3335
 1593SOL    HW2 6231   0.270   2.887   2.791 -0.1028 -0.7253 -1.7755
 1594SOL     OW 6232   4.692   6.508   0.884 -0.0382  0.0253 -0.1217
 1594SOL    HW1 6233   4.609   6.486   0.841 -1.0566  3.3381 -0.1352
 1594SOL    HW2 6234   4.758   6.490   0.818 -0.7873 -1.7704 -0.4534
 1595SOL     OW 6235   2.079   7.003   6.466 -0.3971  0.0729 -0.7805
 1595SOL    HW1 6236   2.017   7.052   6.413  0.3287 -0.9530 -2.6684
 1595SOL    HW2 6237   2.034   6.922   6.488  0.0722 -0.4902 -1.8008
 1596SOL     OW 6238   5.627   7.594   2.042  0.7325 -0.3315 -0.2831
 1596SOL    HW1 6239   5.681   7.520   2.015 -0.0123 -0.4979 -1.3757
 1596SOL    HW2 6240   5.537   7.562   2.035  0.4237  0.5140 -0.2934
 1597SOL     OW 6241   6.292   0.596   2.532  0.0581  0.2691 -0.5060
 1597SOL    HW1 6242   6.376   0.624   2.498  0.2943 -1.4433 -1.4129
 1597SOL    HW2 6243   6.312   0.519   2.585 -0.8452  0.3618 -0.0034
 1598SOL     OW 6244   1.359   2.271   2.209 -0.3180 -0.5312 -0.1378
 1598SOL    HW1 6245   1.274   2.292   2.171 -0.6471 -0.5004  0.5906
 1598SOL    HW2 6246   1.339   2.241   2.297  0.2956 -2.1621 -0.5227
 1599SOL     OW 6247   5.935   1.510   6.714  0.4157 -0.2022  0.3553
 1599SOL    HW1 6248   5.850   1.468   6.725 -0.5620  1.1924 -1.4089
 1599SOL    HW2 6249   5.996   1.438   6.698 -0.8481 -1.0721 -0.6420
 1600SOL     OW 6250   1.512   1.893   5.623 -0.0571 -0.5067 -0.0232
 1600SOL    HW1 6251   1.596   1.868   5.662  0.0633  0.7911  0.6161
 1600SOL    HW2 6252   1.519   1.988   5.611 -1.9293 -0.1312  1.3307
 1601SOL     OW 6253   8.782   6.110   7.559 -0.6917 -0.0090 -0.2985
 1601SOL    HW1 6254   8.812   6.183   7.505  1.3456  0.3436  1.1876
 1601SOL    HW2 6255   8.852   6.045   7.552 -1.8482 -1.2889 -0.5118
 1602SOL     OW 6256   2.938   2.195   6.751 -0.0258 -0.2174  0.4655
 1602SOL    HW1 6257   2.967   2.110   6.782 -0.0378 -1.3582 -2.3497
 1602SOL    HW2 6258   2.850   2.206   6.789  0.0898 -1.3073  1.0867
 1603SOL     OW 6259   1.068   5.653   0.031  0.2788  0.1345 -0.0338
 1603SOL    HW1 6260   1.019   5.675  -0.048  0.8014 -1.0178 -0.7141
 1603SOL    HW2 6261   1.117   5.733   0.052 -0.4534  0.6950 -0.4181
 1604SOL     OW 6262   6.789   2.931   5.171 -0.2555  0.2151 -0.0881
 1604SOL    HW1 6263   6.707   2.888   5.197 -0.3143  0.1060 -0.4394
 1604SOL    HW2 6264   6.780   3.021   5.201 -0.4714  0.1828 -0.0516
 1605SOL     OW 6265   7.966   1.481   5.446  0.2081 -0.2078 -0.3082
 1605SOL    HW1 6266   8.012   1.409   5.402  0.3916 -0.4432  0.2651
 1605SOL    HW2 6267   7.884   1.443   5.475  0.6204 -0.4003  0.6543
 1606SOL     OW 6268   4.515   5.064   8.565 -0.1234  0.6732  0.0349
 1606SOL    HW1 6269   4.543   5.107   8.484 -1.1795  0.2522 -0.5877
 1606SOL    HW2 6270   4.447   5.003   8.536 -0.6216  0.6219  1.2703
 1607SOL     OW 6271   8.463   6.440   4.024  0.4387  0.0811 -0.1691
 1607SOL    HW1 6272   8.518   6.487   4.086  1.6765 -0.1885 -1.0169
 1607SOL    HW2 6273   8.496   6.350   4.025 -2.5571 -1.1434  2.2004
 1608SOL     OW 6274   0.585   5.700   5.490 -0.3145 -0.6340 -0.2093
 1608SOL    HW1 6275   0.602   5.773   5.550 -0.0978 -1.7733  1.1724
 1608SOL    HW2 6276   0.524   5.644   5.538 -1.3902 -0.8060 -1.7186
 1609SOL     OW 6277   5.764   5.810   4.092 -0.0160 -0.4647 -0.5216
 1609SOL    HW1 6278   5.806   5.839   4.011 -0.4662 -2.5633 -1.5848
 1609SOL    HW2 6279   5.678   5.852   4.092  0.6441  0.9494 -0.1823
 1610SOL     OW 6280   4.161   8.311   0.208 -0.1379  0.6358 -0.0371
 1610SOL    HW1 6281   4.245   8.273   0.180  0.2870  0.5138  1.3122
 1610SOL    HW2 6282   4.186   8.391   0.254 -0.6367 -0.1562  1.6717
 1611SOL     OW 6283   6.276   3.309   3.586  0.1630  0.0845  0.0357
 1611SOL    HW1 6284   6.256   3.366   3.511 -0.6007  1.8224  1.4889
 1611SOL    HW2 6285   6.204   3.246   3.586  1.6959 -1.8425 -2.3707
 1612SOL     OW 6286   5.996   7.649   2.555 -0.2796  0.2555  0.5848
 1612SOL    HW1 6287   5.974   7.713   2.487 -0.0285 -0.2305  0.0389
 1612SOL    HW2 6288   6.086   7.623   2.535 -0.4274 -0.3738  0.7226
 1613SOL     OW 6289   3.107   8.982   8.733  0.3278  1.1466 -0.2249
 1613SOL    HW1 6290   3.166   9.009   8.663  0.6666 -0.8345 -0.7462
 1613SOL    HW2 6291   3.025   8.959   8.689  0.4397  0.1885  0.0406
 1614SOL     OW 6292   3.852   0.960   1.291  0.4377 -0.8499 -0.1905
 1614SOL    HW1 6293   3.771   0.957   1.241  1.1149 -1.0636 -1.2914
 1614SOL    HW2 6294   3.823   0.966   1.382 -0.8090 -0.8536 -0.5690
 1615SOL     OW 6295   4.431   0.104   1.469  0.5661 -0.5078  0.0159
 1615SOL    HW1 6296   4.400   0.171   1.529  2.5327  1.3838 -0.9325
 1615SOL    HW2 6297   4.457   0.152   1.391  1.3013 -2.4875 -1.0316
 1616SOL     OW 6298   4.880   4.121   7.094  0.3286 -0.4719 -0.2687
 1616SOL    HW1 6299   4.922   4.202   7.064  0.8259 -1.4872 -2.5307
 1616SOL    HW2 6300   4.847   4.142   7.181 -1.7197  2.9478 -1.6853
 1617SOL     OW 6301   2.670   1.923   6.558  0.2305  0.0286 -0.1081
 1617SOL    HW1 6302   2.665   1.838   6.601  0.1198 -0.8778 -1.8173
 1617SOL    HW2 6303   2.622   1.982   6.615  1.6146 -0.6946  1.8948
 1618SOL     OW 6304   1.822   9.251   1.783  0.3776 -0.1147 -0.2049
 1618SOL    HW1 6305   1.793   9.160   1.775 -2.2094  0.5081  1.1698
 1618SOL    HW2 6306   1.784   9.282   1.865  1.9950  1.9722 -0.1484
 1619SOL     OW 6307   0.670   5.391   5.759 -0.1794  1.1106  0.1340
 1619SOL    HW1 6308   0.607   5.441   5.811 -1.2524 -0.3203  0.2828
 1619SOL    HW2 6309   0.737   5.455   5.734 -1.4625  2.5873  0.3213
 1620SOL     OW 6310   8.551   0.634   7.012  0.0440 -0.5669 -0.4719
 1620SOL    HW1 6311   8.560   0.663   7.103 -3.7115 -1.2914  0.2883
 1620SOL    HW2 6312   8.548   0.539   7.018  2.5305 -0.8052 -1.7915
 1621SOL     OW 6313   9.177   2.726   3.479 -0.4387  0.0685  0.1859
 1621SOL    HW1 6314   9.164   2.805   3.427  0.3299 -0.0839 -0.2501
 1621SOL    HW2 6315   9.105   2.726   3.542 -0.7595  0.8194 -0.1777
 1622SOL     OW 6316   1.268   9.218   3.446 -0.4233 -0.1317 -0.0667
 1622SOL    HW1 6317   1.341   9.233   3.387 -0.9077 -0.8810 -0.8771
 1622SOL    HW2 6318   1.298   9.147   3.503 -1.1272 -1.6614 -1.5304
 1623SOL     OW 6319   4.350   3.265   3.811 -0.0313  0.3342  0.0511
 1623SOL    HW1 6320   4.412   3.202   3.847  1.3563  2.0663  0.8484
 1623SOL    HW2 6321   4.347   3.245   3.718  0.7288 -0.6234  0.2182
 1624SOL     OW 6322   5.204   0.856   4.535 -0.3818  0.0260 -0.1888
 1624SOL    HW1 6323   5.190   0.950   4.548  0.3595 -0.0940  1.8756
 1624SOL    HW2 6324   5.118   0.816   4.546 -0.0948  0.1160  3.3367
 1625SOL     OW 6325   0.485   1.316   8.229  0.2904 -0.7581  0.2451
 1625SOL    HW1 6326   0.492   1.384   8.162  0.5938  0.9271  1.8847
 1625SOL    HW2 6327   0.520   1.237   8.188  2.5318  0.7177 -0.8895
 1626SOL     OW 6328   5.328   0.643   4.688  0.2956  0.3197 -0.4678
 1626SOL    HW1 6329   5.285   0.721   4.652  1.6335  0.6837 -1.3505
 1626SOL    HW2 6330   5.314   0.575   4.621  0.9079  0.3878 -0.6711
 1627SOL     OW 6331   7.564   4.156   5.752  0.3769  0.0944  0.2596
 1627SOL    HW1 6332   7.585   4.242   5.715 -0.5590  0.6018  0.8656
 1627SOL    HW2 6333   7.534   4.104   5.676  1.1529  0.2193 -0.1433
 1628SOL     OW 6334   9.132   7.362   1.474 -0.0764 -0.0763  0.2349
 1628SOL    HW1 6335   9.042   7.339   1.449 -0.0822 -2.1694  1.8712
 1628SOL    HW2 6336   9.121   7.431   1.539 -0.3682  0.9314 -0.8452
 1629SOL     OW 6337   5.972   1.342   5.223  0.5568 -0.4450 -0.1769
 1629SOL    HW1 6338   5.912   1.408   5.258 -1.8321 -2.5507 -0.0312
 1629SOL    HW2 6339   5.951   1.338   5.130  0.1684 -1.4719 -0.0537
 1630SOL     OW 6340   4.451   7.371   8.062 -0.5134 -0.9470 -0.0565
 1630SOL    HW1 6341   4.453   7.283   8.025  1.6446 -1.3075  0.7798
 1630SOL    HW2 6342   4.358   7.396   8.060 -1.0020 -2.6791 -1.5383
 1631SOL     OW 6343   1.534   6.847   7.231 -0.1562 -0.6152  0.3467
 1631SOL    HW1 6344   1.459   6.906   7.226 -1.4658 -2.0954  1.3449
 1631SOL    HW2 6345   1.606   6.895   7.190 -0.9802  1.8983  1.6433
 1632SOL     OW 6346   5.158   5.164   0.580 -0.0783  0.3328  0.3706
 1632SOL    HW1 6347   5.195   5.175   0.668  3.5096 -1.0091 -0.8072
 1632SOL    HW2 6348   5.179   5.246   0.535  0.2309  0.1038  0.0953
 1633SOL     OW 6349   3.064   7.747   3.193  0.2777  0.0159 -0.3513
 1633SOL    HW1 6350   3.034   7.727   3.282  2.2496 -1.3745  0.0934
 1633SOL    HW2 6351   3.104   7.833   3.200  1.3505 -0.5163  0.4092
 1634SOL     OW 6352   7.930   2.690   1.731  0.2300  0.2629 -0.3262
 1634SOL    HW1 6353   7.941   2.700   1.826  4.4019 -1.9869 -0.3714
 1634SOL    HW2 6354   7.902   2.777   1.701  1.2950  1.7864  2.6872
 1635SOL     OW 6355   4.999   4.116   8.957 -0.5153  0.4952 -0.6957
 1635SOL    HW1 6356   5.046   4.170   9.021 -1.8587  3.4252 -1.9686
 1635SOL    HW2 6357   5.000   4.028   8.994  1.0628  1.5201  2.0021
 1636SOL     OW 6358   2.662   5.755   3.281 -0.4066 -0.1040  0.1799
 1636SOL    HW1 6359   2.710   5.760   3.198 -3.0067  0.0742 -1.4507
 1636SOL    HW2 6360   2.585   5.811   3.267 -2.2771 -2.0921  1.7270
 1637SOL     OW 6361   1.035   2.538   7.760 -0.1199  0.3223  0.1122
 1637SOL    HW1 6362   1.125   2.563   7.740 -0.6885  1.5177 -1.1535
 1637SOL    HW2 6363   0.996   2.617   7.796 -1.2074  0.4785 -1.3111
 1638SOL     OW 6364   5.226   5.211   0.819 -0.0790 -0.6854  0.4075
 1638SOL    HW1 6365   5.170   5.238   0.892 -0.5286  1.2681 -0.5776
 1638SOL    HW2 6366   5.300   5.271   0.822  0.0930 -0.8371 -0.4912
 1639SOL     OW 6367   7.272   0.160   2.873 -0.2047  0.0919 -0.0597
 1639SOL    HW1 6368   7.366   0.144   2.884 -0.5797 -3.0855 -0.4986
 1639SOL    HW2 6369   7.236   0.153   2.962 -0.2577 -0.8975 -0.1476
 1640SOL     OW 6370   7.757   8.169   1.707  0.5290  0.8434 -0.3797
 1640SOL    HW1 6371   7.757   8.252   1.754 -1.0403  0.5894  0.1494
 1640SOL    HW2 6372   7.799   8.107   1.767 -1.5601  0.4944  0.8570
 1641SOL     OW 6373   6.752   2.644   8.114 -0.2249  0.0282 -0.3847
 1641SOL    HW1 6374   6.847   2.627   8.115  0.3847  2.8870 -0.4156
 1641SOL    HW2 6375   6.722   2.614   8.199  0.7354 -0.8233 -0.3245
 1642SOL     OW 6376   4.223   7.543   3.578 -0.1751  0.1537 -0.6591
 1642SOL    HW1 6377   4.300   7.596   3.599 -0.1916  0.5329 -1.4796
 1642SOL    HW2 6378   4.157   7.606   3.550 -0.8648 -0.1541  0.2314
 1643SOL     OW 6379   0.142   2.770   1.215  0.7393 -0.4250  0.2467
 1643SOL    HW1 6380   0.225   2.806   1.182  0.5384  0.2680  0.4818
 1643SOL    HW2 6381   0.143   2.790   1.308  0.7644 -1.3242  0.4457
 1644SOL     OW 6382   3.124   6.755   7.899  0.0837 -0.1800  0.1968
 1644SOL    HW1 6383   3.080   6.689   7.846  2.2988 -0.9687 -0.8162
 1644SOL    HW2 6384   3.180   6.704   7.958  1.5528  0.7260 -0.3466
 1645SOL     OW 6385   5.066   8.510   7.275  0.2856  0.4800 -0.0726
 1645SOL    HW1 6386   5.147   8.544   7.314 -0.3921  1.7920  0.2646
 1645SOL    HW2 6387   5.031   8.584   7.225 -0.7457 -0.0386 -0.1352
 1646SOL     OW 6388   0.850   3.786   5.946  0.7744  0.2873  0.0285
 1646SOL    HW1 6389   0.938   3.790   5.909  0.1679  3.4493 -1.4370
 1646SOL    HW2 6390   0.819   3.876   5.943 -3.1902 -0.9129 -1.2114
 1647SOL     OW 6391   8.895   3.504   0.739  0.1693 -0.2736  0.3946
 1647SOL    HW1 6392   8.824   3.504   0.802 -0.6815 -2.8867 -0.4203
 1647SOL    HW2 6393   8.929   3.415   0.741  0.9677 -0.0930 -1.8913
 1648SOL     OW 6394   4.828   2.735   4.927 -0.1936  0.6456  0.4259
 1648SOL    HW1 6395   4.917   2.770   4.930 -0.1981  0.5570  2.3406
 1648SOL    HW2 6396   4.786   2.769   5.005 -2.1683  1.4419 -0.9132
 1649SOL     OW 6397   1.412   3.417   2.712  0.2974  0.2861 -0.6515
 1649SOL    HW1 6398   1.381   3.490   2.767  1.6856  0.5683 -0.2095
 1649SOL    HW2 6399   1.479   3.374   2.765 -0.5426 -1.3690 -0.8865
 1650SOL     OW 6400   0.563   7.609   2.381  0.6258 -0.5601  0.5325
 1650SOL    HW1 6401   0.624   7.556   2.330 -0.1877  0.2524 -1.3508
 1650SOL    HW2 6402   0.495   7.548   2.408  0.4214 -0.7730 -0.4306
 1651SOL     OW 6403   1.513   3.602   4.929  0.8134  0.2738  0.3174
 1651SOL    HW1 6404   1.457   3.664   4.883 -0.2523 -0.2168  0.9023
 1651SOL    HW2 6405   1.561   3.556   4.860 -1.0584 -0.7470 -0.3916
 1652SOL     OW 6406   4.012   4.175   6.138  0.1926 -0.0955 -0.4024
 1652SOL    HW1 6407   3.997   4.227   6.217 -0.5936  2.1789 -1.9383
 1652SOL    HW2 6408   3.927   4.139   6.115  0.1392  0.3475 -0.9196
 1653SOL     OW 6409   1.745   6.169   1.758 -0.2415  0.6541 -0.0714
 1653SOL    HW1 6410   1.711   6.116   1.830  0.0716  3.1993  2.0995
 1653SOL    HW2 6411   1.836   6.189   1.783  0.1231  0.9971 -1.5509
 1654SOL     OW 6412   3.475   7.930   0.838 -0.2799 -0.4377  0.6608
 1654SOL    HW1 6413   3.517   7.943   0.753 -0.4887 -1.3326  0.4166
 1654SOL    HW2 6414   3.452   7.837   0.840  0.4677 -0.6158  2.0374
 1655SOL     OW 6415   6.439   0.087   4.398 -0.7176  0.4859 -0.2063
 1655SOL    HW1 6416   6.385   0.008   4.399  1.5959 -1.2264 -1.2872
 1655SOL    HW2 6417   6.436   0.117   4.307  0.0300  0.4261 -0.2577
 1656SOL     OW 6418   6.739   1.766   0.479 -0.1222 -0.1898  0.5757
 1656SOL    HW1 6419   6.820   1.750   0.528 -0.0314  0.7004  0.7488
 1656SOL    HW2 6420   6.745   1.710   0.402  1.2307  0.7537 -0.0368
 1657SOL     OW 6421   8.887   8.005   1.651 -0.0950  0.4493  0.0432
 1657SOL    HW1 6422   8.805   8.006   1.601 -0.4579  0.3791  0.6258
 1657SOL    HW2 6423   8.900   7.913   1.674  0.0304  0.4918  0.1442
 1658SOL     OW 6424   6.912   5.821   8.320  0.8627  0.2150  0.9488
 1658SOL    HW1 6425   6.856   5.805   8.396 -0.5579  0.4114 -0.0175
 1658SOL    HW2 6426   6.877   5.763   8.252  1.2347  1.0203  0.0385
 1659SOL     OW 6427   0.234   1.011   6.934 -0.1137 -0.6027  0.3429
 1659SOL    HW1 6428   0.232   1.069   7.010  3.0768 -0.3717  0.3708
 1659SOL    HW2 6429   0.251   0.924   6.970  0.9928 -0.5572 -0.0150
 1660SOL     OW 6430   3.775   3.535   7.970 -0.0307  0.5200 -0.2400
 1660SOL    HW1 6431   3.766   3.450   7.926  1.3375  0.6585 -0.8322
 1660SOL    HW2 6432   3.744   3.599   7.906 -0.8039  0.5012  0.1058
 1661SOL     OW 6433   2.445   5.178   1.189  0.2006 -0.5121  0.4827
 1661SOL    HW1 6434   2.386   5.204   1.119 -0.0007  1.2949  1.2664
 1661SOL    HW2 6435   2.418   5.089   1.211 -0.9949 -0.4026 -0.4215
 1662SOL     OW 6436   8.032   8.054   1.593 -0.1576  0.7753 -0.7345
 1662SOL    HW1 6437   8.088   7.985   1.558  0.8140  1.5263 -0.6758
 1662SOL    HW2 6438   7.951   8.047   1.541  0.0591 -0.1772 -0.9594
 1663SOL     OW 6439   2.758   4.014   2.684  0.2542  0.0447 -0.2739
 1663SOL    HW1 6440   2.834   4.024   2.742 -0.2659 -0.2359  0.4776
 1663SOL    HW2 6441   2.756   3.921   2.662 -0.4640 -0.1500  0.5613
 1664SOL     OW 6442   0.847   4.586   3.609 -0.4801 -0.0433  0.3659
 1664SOL    HW1 6443   0.900   4.512   3.582 -0.1926  0.4855 -0.5590
 1664SOL    HW2 6444   0.905   4.662   3.602 -1.6050  0.7076 -1.6699
 1665SOL     OW 6445   7.515   6.701   8.098  0.4880 -0.2754 -0.2872
 1665SOL    HW1 6446   7.540   6.676   8.187 -0.3179 -1.2185 -0.3077
 1665SOL    HW2 6447   7.421   6.684   8.093  0.4525  0.0898 -1.2218
 1666SOL     OW 6448   7.515   3.675   3.507  0.8138  0.6926 -0.1373
 1666SOL    HW1 6449   7.579   3.705   3.572 -0.1409  1.7564  0.3551
 1666SOL    HW2 6450   7.484   3.591   3.540  0.8736  0.8802  0.4063
 1667SOL     OW 6451   2.446   4.313   3.079 -0.6330 -0.2682 -0.1357
 1667SOL    HW1 6452   2.482   4.227   3.099  0.2345  0.4275  1.4272
 1667SOL    HW2 6453   2.502   4.375   3.126 -0.5371  1.2640 -2.0964
 1668SOL     OW 6454   1.398   8.524   8.646  0.3594 -0.7040 -0.2412
 1668SOL    HW1 6455   1.371   8.438   8.614 -2.6409  0.0615 -0.0778
 1668SOL    HW2 6456   1.351   8.587   8.590 -2.8185  0.6849  3.4739
 1669SOL     OW 6457   3.201   0.979   1.610  0.5262 -0.2597 -0.2949
 1669SOL    HW1 6458   3.128   1.029   1.647  1.1020  0.8745 -0.6678
 1669SOL    HW2 6459   3.159   0.918   1.549 -0.1611 -0.1109  0.0161
 1670SOL     OW 6460   3.537   6.334   6.300  0.4711 -0.2360 -0.2398
 1670SOL    HW1 6461   3.483   6.290   6.234  1.0595  0.8317 -1.4840
 1670SOL    HW2 6462   3.626   6.305   6.281  0.6793  0.3019 -0.0913
 1671SOL     OW 6463   1.272   7.334   3.598 -0.7588 -0.2824  0.1979
 1671SOL    HW1 6464   1.261   7.429   3.600  0.1799 -0.1708  0.5875
 1671SOL    HW2 6465   1.222   7.306   3.522 -0.0531  0.6664 -0.6424
 1672SOL     OW 6466   1.834   0.743   8.409  0.1632 -0.6518  0.3210
 1672SOL    HW1 6467   1.829   0.810   8.477 -2.0803 -0.6706  0.2322
 1672SOL    HW2 6468   1.812   0.661   8.454 -1.4666 -0.6448 -0.3979
 1673SOL     OW 6469   9.101   2.284   1.220  0.2572  0.3466 -0.4388
 1673SOL    HW1 6470   9.060   2.335   1.150  1.1428  1.0154 -0.4841
 1673SOL    HW2 6471   9.157   2.222   1.174 -1.6598 -1.4931 -0.4365
 1674SOL     OW 6472   2.598   2.559   0.417 -0.0996  0.0699 -0.7008
 1674SOL    HW1 6473   2.538   2.563   0.491  0.6820 -2.4934  0.1662
 1674SOL    HW2 6474   2.647   2.641   0.421 -1.9769  1.2165 -0.1159
 1675SOL     OW 6475   5.850   5.460   2.618  0.5073  0.3517 -0.3771
 1675SOL    HW1 6476   5.800   5.530   2.577 -1.0517 -1.2973 -1.4758
 1675SOL    HW2 6477   5.878   5.496   2.702 -2.1224  1.5805  0.0715
 1676SOL     OW 6478   4.391   8.916   7.667 -0.5243 -0.0218 -0.1154
 1676SOL    HW1 6479   4.476   8.885   7.633  0.3427  1.3393  0.7314
 1676SOL    HW2 6480   4.343   8.944   7.589 -0.1130 -0.6048 -0.5887
 1677SOL     OW 6481   4.934   8.610   7.809 -0.4876  0.3625  0.4010
 1677SOL    HW1 6482   4.909   8.693   7.849 -0.1209 -0.0789  1.5606
 1677SOL    HW2 6483   4.900   8.616   7.719 -1.7059  1.1786  0.8914
 1678SOL     OW 6484   4.990   2.132   0.169 -0.3596 -0.0430 -0.3828
 1678SOL    HW1 6485   5.026   2.127   0.080  2.5979 -2.2946  0.7601
 1678SOL    HW2 6486   4.930   2.058   0.175 -0.4820  0.0490 -0.4698
 1679SOL     OW 6487   8.169   6.464   4.055 -0.1974  0.0253  0.2430
 1679SOL    HW1 6488   8.206   6.508   3.979 -2.0978  1.2935  0.0065
 1679SOL    HW2 6489   8.243   6.414   4.091  0.7373 -0.6871 -2.4303
 1680SOL     OW 6490   3.045   4.170   4.351  0.3756 -0.2671 -0.4113
 1680SOL    HW1 6491   3.049   4.109   4.425  0.4474  1.4673  1.0765
 1680SOL    HW2 6492   3.137   4.188   4.330  0.3614  0.2903 -0.0084
 1681SOL     OW 6493   1.282   6.556   1.802  0.3548 -0.0054 -0.5507
 1681SOL    HW1 6494   1.252   6.528   1.889 -0.3422 -0.1923 -0.8399
 1681SOL    HW2 6495   1.251   6.487   1.743  1.0912 -0.0317 -0.9072
 1682SOL     OW 6496   2.943   6.487   2.600 -0.2466  0.6738 -0.0967
 1682SOL    HW1 6497   3.028   6.524   2.626  1.3006 -2.5889  0.1077
 1682SOL    HW2 6498   2.945   6.489   2.504 -0.1098  0.9459 -0.0897
 1683SOL     OW 6499   9.165   1.101   6.899 -0.7594 -0.2958 -0.1117
 1683SOL    HW1 6500   9.126   1.184   6.870  0.9305  0.8829  0.8004
 1683SOL    HW2 6501   9.225   1.077   6.828  0.2242  0.3514  0.4709
 1684SOL     OW 6502   8.807   6.597   5.211  0.2402  0.1110 -0.5158
 1684SOL    HW1 6503   8.788   6.664   5.276 -1.9193 -0.5317 -0.4189
 1684SOL    HW2 6504   8.722   6.577   5.171  1.2504 -0.6526 -2.4324
 1685SOL     OW 6505   6.069   7.960   5.305  0.4426 -0.0415  0.2890
 1685SOL    HW1 6506   6.050   7.900   5.233  1.7833 -0.2973  0.1260
 1685SOL    HW2 6507   6.001   8.028   5.298 -0.7753 -1.2187  0.1428
 1686SOL     OW 6508   6.032   6.987   4.216  0.2941 -0.2606  0.3192
 1686SOL    HW1 6509   6.054   6.979   4.308  0.6402 -2.7526  0.0903
 1686SOL    HW2 6510   6.085   6.919   4.173  0.8611  1.4501 -1.8542
 1687SOL     OW 6511   2.601   8.407   8.718 -0.1915 -0.2215  0.4410
 1687SOL    HW1 6512   2.527   8.468   8.712 -0.0651 -0.1017  0.0803
 1687SOL    HW2 6513   2.673   8.453   8.676 -0.3741 -1.0373 -0.8098
 1688SOL     OW 6514   0.861   8.010   5.004 -0.0041 -0.1898  0.2927
 1688SOL    HW1 6515   0.815   8.013   5.088  1.5979  1.2586  1.2020
 1688SOL    HW2 6516   0.939   7.958   5.022  0.3440  0.1213 -0.3071
 1689SOL     OW 6517   0.578   5.110   0.434  0.3216  0.3181 -0.2042
 1689SOL    HW1 6518   0.659   5.160   0.447 -0.6924  1.6111  1.6438
 1689SOL    HW2 6519   0.607   5.020   0.421  2.0787  0.7729  0.2896
 1690SOL     OW 6520   8.210   4.086   9.127  0.4350 -0.7033 -0.4421
 1690SOL    HW1 6521   8.172   3.998   9.119  0.7100 -0.8266 -0.4166
 1690SOL    HW2 6522   8.139   4.140   9.164  0.7020 -1.2394  0.9404
 1691SOL     OW 6523   9.190   2.786   5.421 -0.5343 -0.0247 -0.0270
 1691SOL    HW1 6524   9.184   2.800   5.327 -1.9709 -2.0166 -0.2879
 1691SOL    HW2 6525   9.128   2.849   5.459  0.0043  0.7381 -0.3901
 1692SOL     OW 6526   3.255   8.401   9.147  0.6000  0.1820  0.0695
 1692SOL    HW1 6527   3.291   8.395   9.235 -1.1174 -0.9153  0.7484
 1692SOL    HW2 6528   3.238   8.495   9.134  0.6307  0.3239  1.0055
 1693SOL     OW 6529   1.990   1.033   6.317  0.0588 -0.1831 -0.0698
 1693SOL    HW1 6530   1.951   1.111   6.279 -0.7341  0.1522  1.3602
 1693SOL    HW2 6531   2.025   1.062   6.401  1.9949 -0.8402 -0.6020
 1694SOL     OW 6532   8.517   0.018   8.679 -0.3144 -0.2371  0.2176
 1694SOL    HW1 6533   8.503  -0.075   8.699  0.5255 -0.6176 -0.8609
 1694SOL    HW2 6534   8.475   0.030   8.593  0.9203 -0.0071 -0.3704
 1695SOL     OW 6535   9.133   8.480   1.982 -0.3939 -0.0374 -0.6150
 1695SOL    HW1 6536   9.144   8.428   2.061 -1.9229  0.4749 -0.0104
 1695SOL    HW2 6537   9.155   8.421   1.910 -0.1492 -0.8864  0.1471
 1696SOL     OW 6538   0.186   2.469   8.515 -0.1710 -0.4206  0.1270
 1696SOL    HW1 6539   0.100   2.499   8.486  0.3391 -0.8750 -2.0632
 1696SOL    HW2 6540   0.241   2.548   8.513 -0.5515 -0.0769  1.7826
 1697SOL     OW 6541   0.652   4.586   3.789 -0.4811  0.0942  0.2212
 1697SOL    HW1 6542   0.712   4.596   3.714 -0.2886 -0.3219  0.3200
 1697SOL    HW2 6543   0.702   4.537   3.853 -0.1080  1.7239  1.2373
 1698SOL     OW 6544   1.300   9.140   3.840 -0.4123 -0.1584 -0.2304
 1698SOL    HW1 6545   1.248   9.213   3.806  1.8127  1.2707 -0.7917
 1698SOL    HW2 6546   1.331   9.095   3.761 -0.2116 -0.5756  0.0831
 1699SOL     OW 6547   8.340   0.623   7.412 -0.1178 -0.5337  0.5884
 1699SOL    HW1 6548   8.314   0.635   7.321  0.5881 -0.4644  0.3958
 1699SOL    HW2 6549   8.334   0.529   7.427 -2.1843 -0.3875  1.0673
 1700SOL     OW 6550   9.096   0.847   1.876 -0.1548 -0.1133 -0.0145
 1700SOL    HW1 6551   9.009   0.872   1.909 -1.0264 -0.7330 -1.7064
 1700SOL    HW2 6552   9.078   0.803   1.794  1.8294  0.1975 -0.6657
 1701SOL     OW 6553   0.578   7.736   7.853  0.0937  0.1549  0.4085
 1701SOL    HW1 6554   0.619   7.655   7.823  0.1420  0.8670 -1.5985
 1701SOL    HW2 6555   0.533   7.712   7.934  1.3778 -1.5025  0.6815
 1702SOL     OW 6556   8.962   6.488   7.684  0.0132 -0.3137  0.7925
 1702SOL    HW1 6557   8.932   6.498   7.594  0.3107 -0.6085  0.6609
 1702SOL    HW2 6558   8.881   6.486   7.736 -0.1255  1.5397  0.7196
 1703SOL     OW 6559   6.772   7.626   5.914 -0.2603 -0.2812  0.2166
 1703SOL    HW1 6560   6.704   7.564   5.890  0.3673 -0.6968 -0.5212
 1703SOL    HW2 6561   6.782   7.615   6.009 -1.8502  0.4519  0.5027
 1704SOL     OW 6562   7.044   5.689   3.176  0.1961  0.6786 -0.3188
 1704SOL    HW1 6563   7.038   5.780   3.206 -0.2460  0.6032 -0.1679
 1704SOL    HW2 6564   6.974   5.681   3.111  1.3375  0.9231 -1.6177
 1705SOL     OW 6565   2.652   4.767   1.580 -0.1030 -0.2457  0.0131
 1705SOL    HW1 6566   2.591   4.717   1.525 -0.5611  1.4402 -1.1003
 1705SOL    HW2 6567   2.738   4.738   1.551 -0.3349 -1.4139  0.4104
 1706SOL     OW 6568   3.279   7.222   4.134 -0.0189 -0.0336  0.3939
 1706SOL    HW1 6569   3.253   7.313   4.148  0.8272  0.1076  1.1791
 1706SOL    HW2 6570   3.239   7.198   4.051  1.6891  1.8102 -1.0595
 1707SOL     OW 6571   3.248   4.203   6.449 -0.5022 -1.0256  0.1367
 1707SOL    HW1 6572   3.155   4.223   6.461 -0.5253  0.2736 -1.7690
 1707SOL    HW2 6573   3.278   4.268   6.386  1.6952 -1.4931  0.6326
 1708SOL     OW 6574   1.814   4.139   0.113 -0.0599  0.0014 -0.2784
 1708SOL    HW1 6575   1.808   4.127   0.207  0.6146 -0.2504 -0.2578
 1708SOL    HW2 6576   1.752   4.209   0.093 -0.5637 -0.2793  0.2790
 1709SOL     OW 6577   8.468   0.579   7.663 -0.1808 -0.1805 -0.7316
 1709SOL    HW1 6578   8.513   0.661   7.682 -1.8267  0.3674  1.0464
 1709SOL    HW2 6579   8.439   0.588   7.572  3.2613 -0.6242 -2.0534
 1710SOL     OW 6580   1.075   2.278   5.121  0.2337  0.0430  0.3405
 1710SOL    HW1 6581   1.151   2.282   5.063 -0.5431  3.9262 -0.6854
 1710SOL    HW2 6582   1.110   2.302   5.207  0.3676  0.8809  0.0643
 1711SOL     OW 6583   2.741   1.889   1.374  0.4466  0.1573  0.0848
 1711SOL    HW1 6584   2.826   1.879   1.329  0.9193  1.7767  0.5650
 1711SOL    HW2 6585   2.764   1.892   1.467  0.0367  1.9421  0.1579
 1712SOL     OW 6586   6.615   1.705   0.797 -0.4684 -0.1377 -0.2751
 1712SOL    HW1 6587   6.703   1.743   0.804 -0.3793 -0.3916  0.0325
 1712SOL    HW2 6588   6.559   1.765   0.846 -0.0770 -1.1750  1.5409
 1713SOL     OW 6589   8.212   7.696   6.171 -0.0107  0.8199 -0.6761
 1713SOL    HW1 6590   8.151   7.625   6.151  0.4278  0.1777  0.2271
 1713SOL    HW2 6591   8.270   7.700   6.094  0.5879 -0.4811 -0.3087
 1714SOL     OW 6592   2.800   6.840   1.430  0.0270 -0.0917 -0.3533
 1714SOL    HW1 6593   2.767   6.909   1.372 -0.1818 -0.8695 -1.1787
 1714SOL    HW2 6594   2.721   6.803   1.470  0.2396  1.2865  1.4500
 1715SOL     OW 6595   8.738   3.599   2.059 -0.6165 -0.0558 -0.1873
 1715SOL    HW1 6596   8.826   3.568   2.035 -1.1002 -1.5933 -0.0790
 1715SOL    HW2 6597   8.747   3.632   2.148 -0.3163 -0.9916  0.1355
 1716SOL     OW 6598   6.843   4.041   3.116 -0.3160  0.2075  0.7378
 1716SOL    HW1 6599   6.866   4.076   3.202  0.3394  0.6708  0.3796
 1716SOL    HW2 6600   6.755   4.003   3.128 -1.0937  2.0222  1.1217
 1717SOL     OW 6601   1.104   3.722   5.847 -0.1548  0.0379  0.0274
 1717SOL    HW1 6602   1.160   3.754   5.918  0.2118  0.5113 -0.4702
 1717SOL    HW2 6603   1.114   3.786   5.777  0.7755 -1.2501 -1.0874
 1718SOL     OW 6604   3.685   6.481   6.870 -0.1485  0.5915  0.7312
 1718SOL    HW1 6605   3.629   6.555   6.847  1.1282  0.9673 -1.4305
 1718SOL    HW2 6606   3.626   6.405   6.869 -1.1026  1.3118  1.0663
 1719SOL     OW 6607   5.464   8.318   5.477 -0.1376 -0.1051 -0.4684
 1719SOL    HW1 6608   5.512   8.309   5.559 -1.7148 -0.9011  0.3959
 1719SOL    HW2 6609   5.498   8.247   5.422 -0.5827 -0.9176  0.2806
 1720SOL     OW 6610   1.818   7.333   3.392  0.0413 -0.0721  0.0484
 1720SOL    HW1 6611   1.874   7.399   3.432 -1.5818  1.2023  0.3565
 1720SOL    HW2 6612   1.783   7.283   3.466 -0.6817  0.3893  0.0373
 1721SOL     OW 6613   3.865   5.540   8.867 -0.1413  0.7391  0.1055
 1721SOL    HW1 6614   3.909   5.514   8.786 -1.1819  1.0499 -0.5777
 1721SOL    HW2 6615   3.774   5.513   8.854 -0.1375 -0.0906  1.5721
 1722SOL     OW 6616   4.358   6.948   9.035  0.1786 -0.4356 -0.2251
 1722SOL    HW1 6617   4.441   6.918   9.070 -0.1431 -1.1919 -0.0911
 1722SOL    HW2 6618   4.355   6.910   8.947  1.2195  1.8660 -1.3369
 1723SOL     OW 6619   0.805   4.946   4.175  0.2695  0.1429  0.3130
 1723SOL    HW1 6620   0.868   4.875   4.168  0.6613  0.4966  0.1915
 1723SOL    HW2 6621   0.858   5.025   4.180 -0.1578  0.4192  0.5765
 1724SOL     OW 6622   4.633   2.308   3.315 -0.1239 -0.5989  0.5184
 1724SOL    HW1 6623   4.678   2.392   3.305  1.1585 -1.2234  0.8012
 1724SOL    HW2 6624   4.694   2.244   3.278 -0.4057 -1.5692  1.6647
 1725SOL     OW 6625   3.377   6.539   0.737 -0.5637 -0.0283  0.2542
 1725SOL    HW1 6626   3.310   6.584   0.686  0.4883  0.1498 -1.0010
 1725SOL    HW2 6627   3.338   6.454   0.758 -0.4026 -0.8138 -2.3551
 1726SOL     OW 6628   9.251   2.679   1.867  0.2521 -0.0791  1.0248
 1726SOL    HW1 6629   9.284   2.592   1.889 -0.3563 -0.5634  0.0760
 1726SOL    HW2 6630   9.162   2.680   1.900 -0.5364 -0.6723 -0.9134
 1727SOL     OW 6631   6.219   4.903   5.095  0.3511 -0.2848 -1.0426
 1727SOL    HW1 6632   6.299   4.942   5.059  0.9031  1.5184  1.7927
 1727SOL    HW2 6633   6.249   4.827   5.143  0.2649 -0.0793 -0.6592
 1728SOL     OW 6634   5.094   8.584   0.058  0.8458 -0.3768 -0.1831
 1728SOL    HW1 6635   5.079   8.500   0.014  2.1441 -0.5461 -0.3381
 1728SOL    HW2 6636   5.120   8.560   0.147 -1.7533 -0.0365  0.7554
 1729SOL     OW 6637   1.643   2.487   0.621  0.5049  0.2785 -0.2027
 1729SOL    HW1 6638   1.583   2.511   0.691  0.7955  0.8855 -0.1578
 1729SOL    HW2 6639   1.591   2.491   0.541  0.2724 -0.0373 -0.0680
 1730SOL     OW 6640   5.470   3.865   5.418 -0.1487 -0.0391  0.0088
 1730SOL    HW1 6641   5.394   3.850   5.363 -0.4995  0.0764  0.4525
 1730SOL    HW2 6642   5.459   3.805   5.492 -0.0935  0.3638  0.3492
 1731SOL     OW 6643   0.801   8.211   1.738  0.4887  0.1820 -0.5999
 1731SOL    HW1 6644   0.768   8.267   1.668  0.5697 -1.3172 -1.8803
 1731SOL    HW2 6645   0.895   8.227   1.740  0.2999  1.3266  0.2062
 1732SOL     OW 6646   6.282   8.419   4.329  0.4381 -0.1487 -0.1780
 1732SOL    HW1 6647   6.250   8.373   4.251 -0.0218  1.3211 -0.8823
 1732SOL    HW2 6648   6.344   8.483   4.296 -0.2977  0.9946  0.5714
 1733SOL     OW 6649   0.067   0.210   2.308  0.2066  0.1716  0.1506
 1733SOL    HW1 6650   0.145   0.218   2.254 -0.8919  0.7195 -1.4215
 1733SOL    HW2 6651   0.101   0.199   2.397  2.0644  1.4354 -0.3271
 1734SOL     OW 6652   8.420   6.917   5.270 -0.0721 -0.0815 -0.1672
 1734SOL    HW1 6653   8.481   6.938   5.199 -0.7801 -2.4301 -1.6002
 1734SOL    HW2 6654   8.334   6.915   5.227 -0.7910  0.3474  1.1999
 1735SOL     OW 6655   3.572   2.983   6.073 -0.1185  0.4410  0.2197
 1735SOL    HW1 6656   3.574   2.916   6.005  0.1051 -0.0374  0.6909
 1735SOL    HW2 6657   3.515   2.946   6.141 -2.8517  2.1538 -0.9511
 1736SOL     OW 6658   2.132   6.701   1.543  0.5000  0.1494  0.0308
 1736SOL    HW1 6659   2.166   6.699   1.453  1.0037 -1.2118  0.2314
 1736SOL    HW2 6660   2.067   6.631   1.545 -1.9813  2.2846 -0.1591
 1737SOL     OW 6661   0.317   2.326   7.093  0.0979 -0.4452  0.3092
 1737SOL    HW1 6662   0.344   2.331   7.185  0.2707  0.8686  0.2105
 1737SOL    HW2 6663   0.397   2.303   7.046  0.1103 -0.6775  0.4434
 1738SOL     OW 6664   4.242   6.403   6.312 -0.3035  0.8419 -0.5530
 1738SOL    HW1 6665   4.224   6.379   6.403  2.1852  1.0291  0.0508
 1738SOL    HW2 6666   4.242   6.320   6.265 -0.3573  0.5982 -0.1288
 1739SOL     OW 6667   7.108   0.701   5.051  0.1447  0.4659 -0.3474
 1739SOL    HW1 6668   7.082   0.790   5.077  0.0226  0.4645 -0.4662
 1739SOL    HW2 6669   7.037   0.646   5.082  0.7339  0.2758  0.7029
 1740SOL     OW 6670   7.523   1.400   0.277  0.0729  0.2337 -0.0169
 1740SOL    HW1 6671   7.582   1.408   0.352  1.2940 -0.4355 -0.8505
 1740SOL    HW2 6672   7.455   1.340   0.306 -0.8062  1.7823  1.2983
 1741SOL     OW 6673   7.663   3.526   7.688 -0.1900  0.7760 -0.0696
 1741SOL    HW1 6674   7.662   3.467   7.764 -0.0878  0.9569  0.0743
 1741SOL    HW2 6675   7.724   3.485   7.627 -2.7397 -1.1358 -1.4973
 1742SOL     OW 6676   3.740   7.150   0.496 -0.1840 -0.4299 -0.4110
 1742SOL    HW1 6677   3.822   7.163   0.449 -0.9062 -2.5009 -2.4446
 1742SOL    HW2 6678   3.757   7.077   0.555  0.0598  0.7011  0.9863
 1743SOL     OW 6679   0.421   3.103   0.775 -0.8663 -1.2039 -0.3308
 1743SOL    HW1 6680   0.459   3.183   0.811  2.0325 -2.7120  0.2969
 1743SOL    HW2 6681   0.348   3.083   0.833 -0.5644  0.0821  0.5360
 1744SOL     OW 6682   1.864   7.616   5.978 -0.2496 -0.9594  0.0944
 1744SOL    HW1 6683   1.856   7.614   5.883 -0.7283 -0.6797  0.1240
 1744SOL    HW2 6684   1.916   7.539   6.000  1.4586 -0.0449 -0.5428
 1745SOL     OW 6685   7.779   4.154   6.021 -0.1391  0.6487  0.3509
 1745SOL    HW1 6686   7.728   4.152   6.102  0.7866  1.1830  0.9640
 1745SOL    HW2 6687   7.846   4.221   6.036 -0.6491  1.5855 -1.2966
 1746SOL     OW 6688   8.434   3.166   2.632  0.0134 -0.8297 -0.3477
 1746SOL    HW1 6689   8.457   3.234   2.568  1.9027 -0.6642  0.4244
 1746SOL    HW2 6690   8.507   3.103   2.626 -0.8684 -1.9366  0.1393
 1747SOL     OW 6691   5.322   8.336   7.305  0.4148  0.1538 -0.3658
 1747SOL    HW1 6692   5.248   8.316   7.248 -0.5987  0.8197  0.6844
 1747SOL    HW2 6693   5.327   8.262   7.365  0.6341  0.0895 -0.4619
 1748SOL     OW 6694   5.305   0.393   5.360 -0.1732  0.3345  0.7298
 1748SOL    HW1 6695   5.251   0.471   5.363 -0.9609 -0.2304  2.2570
 1748SOL    HW2 6696   5.310   0.370   5.267 -1.7041  0.9838  0.4644
 1749SOL     OW 6697   8.886   4.773   8.797 -0.1675  0.2468  0.2996
 1749SOL    HW1 6698   8.906   4.709   8.728 -0.0157  2.2671 -1.6315
 1749SOL    HW2 6699   8.861   4.719   8.873  1.3059 -2.1195 -0.7669
 1750SOL     OW 6700   6.553   6.686   7.071  0.7643  0.4314  0.2070
 1750SOL    HW1 6701   6.628   6.676   7.013  0.6440  0.9251 -0.0463
 1750SOL    HW2 6702   6.590   6.691   7.159  0.9332 -0.5381  0.2004
 1751SOL     OW 6703   1.398   4.955   3.074 -0.9607 -0.6839 -0.2905
 1751SOL    HW1 6704   1.303   4.952   3.083 -0.8876  0.0714  1.1068
 1751SOL    HW2 6705   1.418   5.045   3.050 -0.5888 -0.8320 -0.5553
 1752SOL     OW 6706   3.507   8.574   3.890  0.2205 -0.0579 -0.3280
 1752SOL    HW1 6707   3.524   8.529   3.807 -0.2021 -1.4594  0.3070
 1752SOL    HW2 6708   3.584   8.556   3.943  0.5628  0.9754 -0.4656
 1753SOL     OW 6709   8.441   4.858   6.736 -0.2296 -0.4693  0.2420
 1753SOL    HW1 6710   8.364   4.870   6.680  0.3874 -0.9276 -0.7249
 1753SOL    HW2 6711   8.513   4.896   6.686  0.1377  0.2437  1.2847
 1754SOL     OW 6712   4.288   3.418   4.599 -0.2165  0.1042  0.3751
 1754SOL    HW1 6713   4.309   3.420   4.506 -3.2025  0.4717 -0.3851
 1754SOL    HW2 6714   4.209   3.471   4.607 -0.4454 -0.5073  3.0266
 1755SOL     OW 6715   2.999   3.743   2.920 -0.4938  0.4330 -0.1327
 1755SOL    HW1 6716   2.971   3.823   2.875  2.3137  0.0396 -2.9623
 1755SOL    HW2 6717   3.064   3.774   2.984 -0.8869  0.5688  0.2048
 1756SOL     OW 6718   8.099   1.851   5.286  0.7264  0.0670  0.1762
 1756SOL    HW1 6719   8.120   1.919   5.350  0.3756 -0.0200  0.3940
 1756SOL    HW2 6720   8.028   1.801   5.328  0.2619  0.2138 -0.4288
 1757SOL     OW 6721   6.872   1.526   3.711  0.6946 -0.0964 -0.0632
 1757SOL    HW1 6722   6.865   1.478   3.793 -0.4294 -0.8535 -0.5881
 1757SOL    HW2 6723   6.962   1.509   3.681  2.0718  2.3072  2.2438
 1758SOL     OW 6724   1.736   7.880   4.196 -0.7668  0.3577  0.1154
 1758SOL    HW1 6725   1.642   7.870   4.212 -0.5403  0.0669  1.3867
 1758SOL    HW2 6726   1.775   7.804   4.238 -0.1581 -1.2534 -3.0704
 1759SOL     OW 6727   6.876   6.285   6.225 -0.2555 -0.1644 -0.0713
 1759SOL    HW1 6728   6.840   6.346   6.161 -0.5283  0.2658  0.4833
 1759SOL    HW2 6729   6.820   6.294   6.302  0.6248  0.0327  0.5684
 1760SOL     OW 6730   0.905   4.721   2.103  0.2207 -0.3617  0.3467
 1760SOL    HW1 6731   0.902   4.797   2.046 -0.5155  0.5751  1.5991
 1760SOL    HW2 6732   0.831   4.666   2.074 -0.6520  0.4954  0.8929
 1761SOL     OW 6733   7.262   7.338   2.244 -0.0611  0.1432 -0.6338
 1761SOL    HW1 6734   7.289   7.416   2.195 -0.4299  1.5101  1.2152
 1761SOL    HW2 6735   7.336   7.319   2.302  0.4379 -1.5464 -1.7432
 1762SOL     OW 6736   8.364   3.809   7.834 -0.4111 -0.1287  0.0434
 1762SOL    HW1 6737   8.313   3.730   7.819 -0.4130  0.1334 -1.4113
 1762SOL    HW2 6738   8.421   3.787   7.908 -0.8774 -1.2503  0.0812
 1763SOL     OW 6739   5.325   5.139   4.991 -0.0723  0.4918 -0.3999
 1763SOL    HW1 6740   5.304   5.143   5.084  2.0623 -1.6534  0.2895
 1763SOL    HW2 6741   5.322   5.230   4.961  1.5406  1.5792  2.3652
 1764SOL     OW 6742   7.135   8.735   8.543 -0.0748  0.1067 -0.2158
 1764SOL    HW1 6743   7.060   8.687   8.508 -0.9507  1.5502 -0.4291
 1764SOL    HW2 6744   7.208   8.713   8.486 -0.2920 -1.3941  0.0471
 1765SOL     OW 6745   8.622   0.260   4.422 -0.0245 -0.1515 -0.2357
 1765SOL    HW1 6746   8.631   0.194   4.353  0.3132  1.1268 -1.4601
 1765SOL    HW2 6747   8.708   0.302   4.426 -0.6086  1.1049 -0.4327
 1766SOL     OW 6748   4.535   6.755   7.368 -0.8144  0.0299 -0.0995
 1766SOL    HW1 6749   4.553   6.830   7.311  0.0464 -0.6222 -0.7127
 1766SOL    HW2 6750   4.470   6.704   7.320 -1.3925  0.3641  0.3134
 1767SOL     OW 6751   8.929   4.321   5.101 -0.0933  0.0402 -0.1082
 1767SOL    HW1 6752   8.933   4.233   5.062  0.8183  0.6375 -1.4429
 1767SOL    HW2 6753   8.966   4.310   5.189 -1.4455 -1.1971  0.3401
 1768SOL     OW 6754   6.537   6.821   2.976 -0.7027 -0.2080 -1.0532
 1768SOL    HW1 6755   6.559   6.910   2.947  0.0635 -0.4779 -1.3129
 1768SOL    HW2 6756   6.564   6.820   3.068 -0.1728 -0.3514 -1.2087
 1769SOL     OW 6757   8.273   0.770   1.074  0.4007  0.1198  0.3245
 1769SOL    HW1 6758   8.299   0.766   1.166  0.0815 -1.0104  0.3863
 1769SOL    HW2 6759   8.216   0.846   1.069 -0.3463 -0.3400  1.2876
 1770SOL     OW 6760   6.985   6.699   1.689 -0.4704 -0.4719  0.3853
 1770SOL    HW1 6761   6.949   6.702   1.601  0.4260 -0.3086  0.0109
 1770SOL    HW2 6762   7.069   6.654   1.680  0.3607  0.8988  0.8641
 1771SOL     OW 6763   7.035   0.472   1.363  0.2234  0.2739 -0.2335
 1771SOL    HW1 6764   6.999   0.559   1.344  0.7995  0.6851  0.5116
 1771SOL    HW2 6765   7.123   0.489   1.396 -0.1867 -0.4899  1.3480
 1772SOL     OW 6766   8.315   0.575   6.101 -0.5348  0.5238 -0.2340
 1772SOL    HW1 6767   8.258   0.612   6.168  0.0482  2.9551 -0.9919
 1772SOL    HW2 6768   8.268   0.587   6.019  0.0901  0.4812 -0.6063
 1773SOL     OW 6769   6.338   4.078   8.319 -0.2544  0.5658  0.4241
 1773SOL    HW1 6770   6.335   4.007   8.383 -0.4501  0.9412  0.8411
 1773SOL    HW2 6771   6.247   4.092   8.294 -0.3672  1.4718  1.2612
 1774SOL     OW 6772   4.816   0.683   2.838  0.1146  0.1553  0.1575
 1774SOL    HW1 6773   4.849   0.630   2.765  0.6955 -3.3562  2.6757
 1774SOL    HW2 6774   4.729   0.711   2.810  0.3291 -1.0306 -1.9004
 1775SOL     OW 6775   2.029   6.840   3.725  0.2698  0.3938 -0.8608
 1775SOL    HW1 6776   2.053   6.763   3.776 -0.7140 -0.6392 -1.8992
 1775SOL    HW2 6777   1.947   6.870   3.763 -0.9596 -0.9308 -2.3250
 1776SOL     OW 6778   6.100   1.767   1.986 -0.3451 -0.1160 -0.2987
 1776SOL    HW1 6779   6.190   1.785   1.961  0.6806 -3.0049  0.9111
 1776SOL    HW2 6780   6.105   1.688   2.040 -3.7352 -1.1489 -1.2470
 1777SOL     OW 6781   9.172   9.121   0.893  0.3971 -0.0835  0.6683
 1777SOL    HW1 6782   9.241   9.136   0.957  0.0983 -0.8289  1.1809
 1777SOL    HW2 6783   9.130   9.207   0.882  1.4303  0.3894  0.3032
 1778SOL     OW 6784   2.091   1.043   2.065  0.0950 -0.1070  0.2279
 1778SOL    HW1 6785   2.152   1.007   2.130 -0.0428  2.7833  2.1249
 1778SOL    HW2 6786   2.005   1.009   2.092  0.3339 -0.8381  0.0880
 1779SOL     OW 6787   2.599   0.309   7.108  0.6242 -0.0758  0.0797
 1779SOL    HW1 6788   2.631   0.385   7.059  1.4698 -1.4562 -1.6593
 1779SOL    HW2 6789   2.509   0.330   7.130  0.8548  1.4424 -0.3286
 1780SOL     OW 6790   5.713   7.520   5.344 -0.1333 -0.1949 -0.2580
 1780SOL    HW1 6791   5.777   7.505   5.274  0.6648  1.5160  0.0233
 1780SOL    HW2 6792   5.727   7.448   5.405 -0.5798 -1.5002 -1.6591
 1781SOL     OW 6793   5.810   6.886   8.770 -0.2142 -0.0428  0.6459
 1781SOL    HW1 6794   5.867   6.958   8.741  0.1325 -0.2640  0.7696
 1781SOL    HW2 6795   5.853   6.807   8.735 -0.6439 -0.1812  0.4279
 1782SOL     OW 6796   2.897   2.717   6.373  0.6103  0.1905  0.4521
 1782SOL    HW1 6797   2.839   2.690   6.444 -0.2030  1.8616  0.4570
 1782SOL    HW2 6798   2.860   2.799   6.340  2.2845  0.6808 -0.3508
 1783SOL     OW 6799   4.473   8.105   6.677  1.3192  0.5599  0.2669
 1783SOL    HW1 6800   4.556   8.113   6.723  0.7641  0.1774  1.3732
 1783SOL    HW2 6801   4.420   8.177   6.711  0.8118  0.1201  0.4204
 1784SOL     OW 6802   4.235   5.318   6.336 -0.7478  0.3711  0.2025
 1784SOL    HW1 6803   4.329   5.333   6.342 -0.6152 -0.2542 -0.2557
 1784SOL    HW2 6804   4.223   5.268   6.255 -1.6480  1.9231 -0.6819
 1785SOL     OW 6805   4.720   6.156   6.199 -0.3274 -0.3070 -0.2349
 1785SOL    HW1 6806   4.801   6.105   6.208  0.0358  0.1624 -0.7692
 1785SOL    HW2 6807   4.749   6.247   6.193 -0.8586 -0.1688 -0.8644
 1786SOL     OW 6808   6.148   2.707   2.333  0.1390 -0.1816 -0.5491
 1786SOL    HW1 6809   6.115   2.700   2.423 -1.0020 -0.7140 -0.9870
 1786SOL    HW2 6810   6.242   2.692   2.341  0.3593  1.4970  0.7690
 1787SOL     OW 6811   6.201   6.082   0.630  0.0510 -0.0455 -0.3054
 1787SOL    HW1 6812   6.118   6.047   0.598 -0.1732 -0.6324  0.8589
 1787SOL    HW2 6813   6.236   6.014   0.687 -0.0031  1.2706  1.3901
 1788SOL     OW 6814   0.982   1.089   0.333 -0.4126 -0.0937  0.1266
 1788SOL    HW1 6815   1.021   1.130   0.411  1.8272 -2.2549  0.2799
 1788SOL    HW2 6816   0.992   1.154   0.264  1.1493  0.4393  0.8041
 1789SOL     OW 6817   3.346   5.299   2.547  0.0255 -0.0664  0.2445
 1789SOL    HW1 6818   3.399   5.318   2.470 -0.6221  0.2903 -0.1229
 1789SOL    HW2 6819   3.353   5.204   2.559 -0.1872 -0.1750 -0.4870
 1790SOL     OW 6820   3.597   7.122   6.466  0.2585  0.3035 -0.0274
 1790SOL    HW1 6821   3.616   7.214   6.447 -0.3075 -0.1539 -3.3715
 1790SOL    HW2 6822   3.668   7.073   6.426  0.1160 -0.7967  0.9872
 1791SOL     OW 6823   4.842   1.273   8.710  0.1311  0.0313  0.2650
 1791SOL    HW1 6824   4.759   1.318   8.728  0.3348 -0.0829  1.6555
 1791SOL    HW2 6825   4.904   1.314   8.770  0.8404 -0.5970 -0.0244
 1792SOL     OW 6826   2.910   5.102   7.465  0.3035  0.2139 -0.4035
 1792SOL    HW1 6827   2.880   5.050   7.390  0.8439 -0.1517 -0.3721
 1792SOL    HW2 6828   2.989   5.147   7.434 -0.3616  1.3217 -0.5475
 1793SOL     OW 6829   3.177   5.848   7.367 -0.0925 -0.3474 -0.3124
 1793SOL    HW1 6830   3.191   5.848   7.273 -1.0122  0.4784 -0.4615
 1793SOL    HW2 6831   3.232   5.918   7.401  0.7310 -1.0592 -0.1402
 1794SOL     OW 6832   6.989   3.232   0.633  0.5021  0.4886 -0.3675
 1794SOL    HW1 6833   6.958   3.148   0.666 -1.1200  0.9464 -0.6199
 1794SOL    HW2 6834   7.072   3.247   0.677  0.0204 -0.4873  0.9104
 1795SOL     OW 6835   7.432   5.565   7.306 -0.2796 -0.3180 -0.4443
 1795SOL    HW1 6836   7.487   5.501   7.261  1.8428  2.4295 -2.0617
 1795SOL    HW2 6837   7.369   5.593   7.240  0.2672  0.8450 -0.4876
 1796SOL     OW 6838   9.079   7.045   0.508  0.3598 -0.2656 -0.6844
 1796SOL    HW1 6839   8.997   7.003   0.535  0.3966  0.5379  0.8102
 1796SOL    HW2 6840   9.058   7.089   0.426 -1.1954  1.2835  0.4852
 1797SOL     OW 6841   5.374   2.615   4.417  0.1803  0.1516  0.0157
 1797SOL    HW1 6842   5.388   2.543   4.355 -1.8719 -0.6740  0.4457
 1797SOL    HW2 6843   5.397   2.579   4.502  1.6771  0.8708 -0.0400
 1798SOL     OW 6844   2.563   5.556   2.889 -0.0260  0.5545 -0.5696
 1798SOL    HW1 6845   2.579   5.508   2.808 -0.1315  1.2642 -1.0172
 1798SOL    HW2 6846   2.585   5.647   2.868  1.9202  0.4626  0.7556
 1799SOL     OW 6847   2.994   6.936   1.610 -0.0053  0.4816 -0.6636
 1799SOL    HW1 6848   2.929   6.919   1.542 -0.2199  0.9741 -0.5841
 1799SOL    HW2 6849   3.005   7.031   1.610 -1.2533  0.6725  1.1125
 1800SOL     OW 6850   1.272   9.062   0.533  0.1631  0.2590  0.2231
 1800SOL    HW1 6851   1.232   9.103   0.610 -0.3482  0.8259 -0.3320
 1800SOL    HW2 6852   1.308   9.135   0.483  0.9623 -0.1588  0.1883
 1801SOL     OW 6853   6.603   5.256   0.378  0.0527 -0.1807 -0.0166
 1801SOL    HW1 6854   6.646   5.211   0.450 -0.5140  2.2595  1.9986
 1801SOL    HW2 6855   6.563   5.187   0.326  2.4954 -2.1972  0.5962
 1802SOL     OW 6856   6.099   7.931   8.338 -0.0765 -0.2048  0.4364
 1802SOL    HW1 6857   6.167   7.864   8.333  0.1996  0.1422 -1.3235
 1802SOL    HW2 6858   6.140   8.010   8.303 -0.9845  0.3579  0.5987
 1803SOL     OW 6859   2.280   8.005   3.755  0.3026 -0.1832 -0.6076
 1803SOL    HW1 6860   2.216   8.076   3.764 -0.6492 -0.9267 -1.2526
 1803SOL    HW2 6861   2.301   8.003   3.662  2.4344  0.9992 -0.2208
 1804SOL     OW 6862   1.373   8.781   5.840 -0.3593  0.4727  0.0194
 1804SOL    HW1 6863   1.345   8.873   5.847 -1.0355  0.1715  1.7732
 1804SOL    HW2 6864   1.444   8.774   5.904 -0.7714 -0.3865  0.3902
 1805SOL     OW 6865   2.639   1.575   2.148 -0.0424 -0.0896  0.0458
 1805SOL    HW1 6866   2.589   1.517   2.090  1.0039 -0.2364 -0.7320
 1805SOL    HW2 6867   2.696   1.624   2.089  1.4592 -0.6386  0.9839
 1806SOL     OW 6868   0.303   6.941   8.065  0.5566 -0.7576 -0.0254
 1806SOL    HW1 6869   0.394   6.946   8.036 -0.1690  1.5627 -2.2758
 1806SOL    HW2 6870   0.271   6.859   8.030  1.5825 -1.2903  0.2299
 1807SOL     OW 6871   3.429   4.648   5.868  0.0031  0.2059 -0.3897
 1807SOL    HW1 6872   3.472   4.627   5.951 -1.9802 -0.0824  0.6184
 1807SOL    HW2 6873   3.447   4.741   5.854  0.1526  0.3128  0.4815
 1808SOL     OW 6874   5.772   0.264   4.063  0.0332  0.2331  0.1011
 1808SOL    HW1 6875   5.758   0.198   3.995  0.3949  0.7797 -0.5132
 1808SOL    HW2 6876   5.695   0.321   4.056 -0.6972 -0.5792  1.1858
 1809SOL     OW 6877   5.945   6.243   3.827  0.6503 -0.0910 -0.7462
 1809SOL    HW1 6878   5.914   6.168   3.777  0.3148 -1.1038  0.9026
 1809SOL    HW2 6879   5.884   6.314   3.806  0.1463 -0.6792 -1.2704
 1810SOL     OW 6880   1.882   5.690   2.712  0.3389  0.1143  0.2517
 1810SOL    HW1 6881   1.882   5.648   2.625 -1.6183 -1.7653  1.0725
 1810SOL    HW2 6882   1.805   5.747   2.710 -0.3073 -0.7007  1.0436
 1811SOL     OW 6883   6.409   3.647   6.310  0.2954 -0.2007  0.2235
 1811SOL    HW1 6884   6.394   3.738   6.285  2.0519  0.5946  1.8711
 1811SOL    HW2 6885   6.329   3.622   6.356  0.1834  0.8424  0.6177
 1812SOL     OW 6886   1.058   6.458   2.995 -0.0956 -0.5470 -0.5535
 1812SOL    HW1 6887   1.104   6.403   3.059  0.3072 -0.9720 -1.2003
 1812SOL    HW2 6888   1.120   6.467   2.923 -0.4635  0.1172 -0.7871
 1813SOL     OW 6889   7.950   7.144   4.877  0.7165 -0.6956 -0.6511
 1813SOL    HW1 6890   7.996   7.137   4.961  1.7565 -2.3853 -1.3227
 1813SOL    HW2 6891   8.019   7.149   4.812 -0.0485 -1.4234 -1.5492
 1814SOL     OW 6892   1.799   2.171   3.602 -0.3813 -0.1092  0.0485
 1814SOL    HW1 6893   1.781   2.249   3.655 -0.1870 -0.0287 -0.0062
 1814SOL    HW2 6894   1.843   2.204   3.525 -0.8846 -0.1984 -0.2830
 1815SOL     OW 6895   6.409   6.720   0.221 -0.0370 -0.2914 -0.3062
 1815SOL    HW1 6896   6.425   6.682   0.134  0.8414 -1.6179  0.3938
 1815SOL    HW2 6897   6.444   6.809   0.216  1.5962 -0.9216 -0.8275
 1816SOL     OW 6898   9.179   0.095   4.598  0.3827 -0.1809 -0.5425
 1816SOL    HW1 6899   9.090   0.088   4.565  0.3252 -2.4087 -0.0616
 1816SOL    HW2 6900   9.169   0.115   4.691  0.3875 -0.2733 -0.5221
 1817SOL     OW 6901   8.177   3.346   8.438  0.1682 -0.5625 -0.0231
 1817SOL    HW1 6902   8.134   3.285   8.378  0.3946  0.8322 -1.7101
 1817SOL    HW2 6903   8.186   3.298   8.520 -0.6456 -2.3831 -0.9470
 1818SOL     OW 6904   2.812   0.785   1.713  0.4566 -0.1612 -0.3620
 1818SOL    HW1 6905   2.882   0.737   1.756  0.7303  1.0089  0.5493
 1818SOL    HW2 6906   2.838   0.877   1.719 -0.8192  0.2442 -0.6182
 1819SOL     OW 6907   7.883   0.999   6.548  0.1314 -0.1408 -0.1583
 1819SOL    HW1 6908   7.918   0.932   6.490 -0.3630 -0.8190  0.3092
 1819SOL    HW2 6909   7.938   1.076   6.533 -0.7421  0.1000 -2.3997
 1820SOL     OW 6910   8.208   1.704   6.272 -0.6094  0.6625  0.8093
 1820SOL    HW1 6911   8.144   1.744   6.331 -1.5218  0.8414 -0.2521
 1820SOL    HW2 6912   8.180   1.733   6.185 -0.1783 -0.7671  0.1670
 1821SOL     OW 6913   5.637   4.886   0.119 -0.1460  0.1009  0.3224
 1821SOL    HW1 6914   5.705   4.836   0.163 -0.6438 -0.0124  0.9809
 1821SOL    HW2 6915   5.684   4.945   0.060  0.6071  0.9519  1.7126
 1822SOL     OW 6916   6.126   3.996   4.475  0.3601 -0.1334  0.0070
 1822SOL    HW1 6917   6.178   4.064   4.519 -0.5998 -1.3734  3.3888
 1822SOL    HW2 6918   6.161   3.914   4.508 -1.6485 -1.0883 -0.0621
 1823SOL     OW 6919   7.320   5.522   0.085 -0.4790  0.3908 -0.0428
 1823SOL    HW1 6920   7.385   5.592   0.092  0.2285 -0.2034 -0.5272
 1823SOL    HW2 6921   7.323   5.495  -0.007 -1.1360  0.0868  0.0154
 1824SOL     OW 6922   1.009   5.403   0.022 -0.1384  0.1094  0.1522
 1824SOL    HW1 6923   1.041   5.493   0.020 -0.1927  0.1352  0.3869
 1824SOL    HW2 6924   1.086   5.351   0.046 -0.3423  0.2114  1.0894
 1825SOL     OW 6925   7.652   6.579   1.701  0.1573 -0.5309 -0.4839
 1825SOL    HW1 6926   7.652   6.563   1.795 -0.3703  2.2837  0.0844
 1825SOL    HW2 6927   7.579   6.638   1.686  0.5066 -0.5424 -2.6059
 1826SOL     OW 6928   5.202   8.120   2.027  0.1355 -0.0096  0.2192
 1826SOL    HW1 6929   5.183   8.099   2.118  1.7903  1.1818  0.8737
 1826SOL    HW2 6930   5.223   8.035   1.987  1.1761 -0.3393  1.4108
 1827SOL     OW 6931   0.224   1.836   0.765 -0.2871 -0.0921 -0.2708
 1827SOL    HW1 6932   0.150   1.828   0.704  1.0262  0.8324 -2.0641
 1827SOL    HW2 6933   0.300   1.810   0.714  0.8723  0.7079  0.9809
 1828SOL     OW 6934   2.889   8.498   0.864 -0.0430 -0.1020  0.1034
 1828SOL    HW1 6935   2.901   8.478   0.957 -1.2328  2.1737  0.8257
 1828SOL    HW2 6936   2.978   8.500   0.828  0.4929 -0.2181  1.3783
 1829SOL     OW 6937   3.615   2.579   1.498 -0.1820  0.2196 -0.1673
 1829SOL    HW1 6938   3.682   2.645   1.482 -1.3752  1.4936 -0.1369
 1829SOL    HW2 6939   3.554   2.621   1.559 -0.2453 -1.4395  0.9770
 1830SOL     OW 6940   4.294   7.401   2.018  0.1518 -0.5527  0.1566
 1830SOL    HW1 6941   4.313   7.320   2.064 -1.1022 -1.1418 -0.3290
 1830SOL    HW2 6942   4.207   7.388   1.980 -0.0901  1.0309  0.0963
 1831SOL     OW 6943   8.928   3.822   5.260  0.0994  0.0923 -0.3363
 1831SOL    HW1 6944   9.000   3.882   5.242 -0.3328  0.5218 -0.6458
 1831SOL    HW2 6945   8.850   3.877   5.263 -0.1675 -0.3201  0.3860
 1832SOL     OW 6946   7.221   2.850   1.946 -0.3150  0.2441 -0.3097
 1832SOL    HW1 6947   7.149   2.792   1.971 -0.3872  0.1387 -0.7535
 1832SOL    HW2 6948   7.268   2.801   1.879  0.5422  0.0477  0.4236
 1833SOL     OW 6949   9.180   4.286   4.505 -0.2852 -0.4054 -0.0935
 1833SOL    HW1 6950   9.267   4.314   4.534 -0.9985  1.5328  0.2911
 1833SOL    HW2 6951   9.124   4.299   4.581 -0.8972 -1.9351 -0.2464
 1834SOL     OW 6952   0.131   2.983   7.757  0.0652  0.2956 -0.0916
 1834SOL    HW1 6953   0.056   3.042   7.755 -0.4809 -0.3852 -0.2110
 1834SOL    HW2 6954   0.124   2.938   7.842 -0.2540 -0.5008 -0.5263
 1835SOL     OW 6955   4.269   5.833   1.208  0.7169 -0.2315 -0.4682
 1835SOL    HW1 6956   4.334   5.763   1.212  1.3813  0.4211  0.7644
 1835SOL    HW2 6957   4.267   5.868   1.297 -1.6085 -0.4717 -0.3569
 1836SOL     OW 6958   6.120   1.502   1.414 -0.2368  0.0543  1.0306
 1836SOL    HW1 6959   6.074   1.584   1.434 -1.0956  0.5606 -2.2711
 1836SOL    HW2 6960   6.078   1.471   1.333  2.8156 -1.4322 -0.1441
 1837SOL     OW 6961   5.248   3.021   2.588 -0.3653  0.2739  0.2723
 1837SOL    HW1 6962   5.315   3.086   2.567 -0.2718 -0.4060 -1.7435
 1837SOL    HW2 6963   5.166   3.071   2.587 -0.2931  0.4248 -1.2437
 1838SOL     OW 6964   6.512   4.187   6.699  0.6300 -0.0744 -0.6946
 1838SOL    HW1 6965   6.512   4.196   6.604 -0.6281 -1.6950 -0.8943
 1838SOL    HW2 6966   6.452   4.255   6.730  2.0783  1.3614 -0.8981
 1839SOL     OW 6967   2.155   7.228   0.370 -0.0917 -0.6965 -0.3082
 1839SOL    HW1 6968   2.249   7.208   0.360 -0.4030 -1.9777 -0.9206
 1839SOL    HW2 6969   2.136   7.287   0.297  0.3972  0.2369  0.2949
 1840SOL     OW 6970   7.855   4.771   0.306  0.4387  0.1117  0.2726
 1840SOL    HW1 6971   7.841   4.828   0.231  0.5011  0.7206  0.7150
 1840SOL    HW2 6972   7.948   4.780   0.326  0.2441  0.6917  0.9921
 1841SOL     OW 6973   2.984   2.394   2.172 -0.0216 -0.2015  0.2217
 1841SOL    HW1 6974   2.958   2.346   2.093 -0.5571  2.1530 -1.1345
 1841SOL    HW2 6975   3.079   2.387   2.174 -0.0624 -1.0420 -0.0903
 1842SOL     OW 6976   5.530   4.028   0.453  0.2195 -0.0594  1.1944
 1842SOL    HW1 6977   5.569   4.088   0.516  0.8536 -0.5987  1.3337
 1842SOL    HW2 6978   5.453   3.993   0.497 -0.0403  0.4982  1.1874
 1843SOL     OW 6979   7.899   5.757   7.405  0.8178  0.0730  0.3627
 1843SOL    HW1 6980   7.829   5.767   7.340  1.1410  1.4554  0.2145
 1843SOL    HW2 6981   7.971   5.717   7.357  0.7503  0.2774  0.0921
 1844SOL     OW 6982   8.269   3.332   6.978  0.5122  0.0795 -0.2286
 1844SOL    HW1 6983   8.252   3.257   6.921  1.6326  0.1539 -0.6900
 1844SOL    HW2 6984   8.210   3.320   7.052  0.6178 -1.2146 -0.3311
 1845SOL     OW 6985   4.480   4.544   4.711 -0.3737  0.2097 -0.1316
 1845SOL    HW1 6986   4.506   4.635   4.697 -2.3544  0.6755 -1.2315
 1845SOL    HW2 6987   4.554   4.492   4.680  1.0429  1.4310  1.1106
 1846SOL     OW 6988   1.638   3.704   0.489 -0.4903  0.4450 -0.1009
 1846SOL    HW1 6989   1.664   3.794   0.474  0.1682  0.7950  2.5603
 1846SOL    HW2 6990   1.687   3.677   0.567 -0.8154 -2.1511 -0.6788
 1847SOL     OW 6991   0.171   0.186   7.267 -0.4271 -0.0859  0.0184
 1847SOL    HW1 6992   0.253   0.225   7.236 -0.0664  0.0657  1.0984
 1847SOL    HW2 6993   0.109   0.258   7.269 -0.1210  0.1758  0.7516
 1848SOL     OW 6994   6.918   6.726   7.452  0.1596  0.3820 -0.4042
 1848SOL    HW1 6995   6.915   6.659   7.520  0.5223  0.6249 -0.1443
 1848SOL    HW2 6996   6.953   6.804   7.496 -0.3154  0.7663 -0.6833
 1849SOL     OW 6997   6.305   4.600   3.599 -1.0313 -0.0320 -0.4960
 1849SOL    HW1 6998   6.361   4.675   3.619 -0.7356 -0.6097  0.9943
 1849SOL    HW2 6999   6.217   4.629   3.622 -0.8657 -0.2440  0.4623
 1850SOL     OW 7000   4.902   8.212   5.378 -0.0358 -0.3672 -0.1573
 1850SOL    HW1 7001   4.964   8.276   5.343 -0.9147  1.0188  0.7378
 1850SOL    HW2 7002   4.874   8.248   5.462 -2.0293 -0.9462 -0.5119
 1851SOL     OW 7003   8.701   4.035   7.646 -0.0472 -0.0368 -0.4777
 1851SOL    HW1 7004   8.665   3.946   7.650 -0.9796  0.3840  1.3967
 1851SOL    HW2 7005   8.787   4.028   7.688  0.5241 -0.3060 -1.6416
 1852SOL     OW 7006   3.269   3.726   3.075  0.4717 -0.1227 -0.1172
 1852SOL    HW1 7007   3.221   3.658   3.121 -0.0775  1.3743  1.6626
 1852SOL    HW2 7008   3.356   3.726   3.115  0.8866 -0.6140 -1.0037
 1853SOL     OW 7009   1.108   6.269   4.216 -0.2805 -0.5061 -0.9030
 1853SOL    HW1 7010   1.170   6.257   4.288 -2.4188  0.8671  1.3241
 1853SOL    HW2 7011   1.160   6.259   4.137  2.3682 -1.2465  0.8245
 1854SOL     OW 7012   0.346   1.241   7.657  0.0076  0.4414  0.3064
 1854SOL    HW1 7013   0.432   1.280   7.641 -0.3115  0.7824 -0.6757
 1854SOL    HW2 7014   0.286   1.316   7.664 -0.7332  0.2167 -2.3061
 1855SOL     OW 7015   1.906   4.768   4.326 -0.0092  0.0262 -0.0429
 1855SOL    HW1 7016   2.000   4.784   4.339  0.1478 -0.1925 -0.8500
 1855SOL    HW2 7017   1.898   4.750   4.233 -0.5776 -1.8157  0.3184
 1856SOL     OW 7018   0.355   2.239   1.141  0.1043 -0.1507  0.3003
 1856SOL    HW1 7019   0.413   2.262   1.070 -0.2866  0.7564  0.2612
 1856SOL    HW2 7020   0.336   2.322   1.185  1.2655 -0.8121  2.2006
 1857SOL     OW 7021   2.224   3.801   2.105  0.1826  0.0237  0.3664
 1857SOL    HW1 7022   2.310   3.830   2.133  0.2715  0.1042  0.0089
 1857SOL    HW2 7023   2.239   3.750   2.025 -0.2215  1.1174 -0.4267
 1858SOL     OW 7024   2.371   6.988   3.703 -0.0330  0.0791 -0.5291
 1858SOL    HW1 7025   2.281   6.970   3.729 -0.2862  0.1752 -1.3104
 1858SOL    HW2 7026   2.409   6.902   3.688  0.0519  0.0324 -0.0625
 1859SOL     OW 7027   6.035   9.115   6.031 -0.4834 -0.4258  0.8642
 1859SOL    HW1 7028   5.950   9.073   6.016 -0.0531 -1.4086  1.1162
 1859SOL    HW2 7029   6.066   9.076   6.113  0.4826 -0.4968  0.4656
 1860SOL     OW 7030   4.132   5.445   5.401  0.4957 -0.1844  0.0420
 1860SOL    HW1 7031   4.120   5.355   5.433  0.6464 -1.2477 -2.6538
 1860SOL    HW2 7032   4.223   5.466   5.423  0.8481 -1.1800 -0.4100
 1861SOL     OW 7033   9.158   0.498   6.832  0.0887  0.3092  0.7609
 1861SOL    HW1 7034   9.244   0.539   6.818 -0.5359  1.9463  1.4505
 1861SOL    HW2 7035   9.108   0.520   6.754  0.0638 -0.0302  0.6789
 1862SOL     OW 7036   6.525   4.308   7.126 -0.2872  0.0680 -0.0266
 1862SOL    HW1 7037   6.473   4.285   7.203 -0.0637  1.0287  0.4213
 1862SOL    HW2 7038   6.585   4.234   7.114 -1.7583 -1.0981 -0.5896
 1863SOL     OW 7039   8.714   8.366   6.114 -0.1549  0.3602 -0.5280
 1863SOL    HW1 7040   8.685   8.289   6.065  1.0115 -0.4251 -0.0271
 1863SOL    HW2 7041   8.637   8.393   6.164 -1.1155  0.6528 -2.0889
 1864SOL     OW 7042   8.376   3.581   6.976  0.0994 -0.0893  0.1110
 1864SOL    HW1 7043   8.378   3.593   7.071  0.9308  0.0309  0.0875
 1864SOL    HW2 7044   8.336   3.495   6.964  2.4061 -1.3376  0.7296
 1865SOL     OW 7045   5.415   4.679   8.947  0.0818  0.3048  0.7058
 1865SOL    HW1 7046   5.480   4.738   8.985  1.6835 -1.5210  0.9805
 1865SOL    HW2 7047   5.455   4.592   8.954 -2.5222 -0.9557  1.1585
 1866SOL     OW 7048   4.595   4.190   7.545  1.0603 -0.5330 -0.6556
 1866SOL    HW1 7049   4.641   4.252   7.601 -2.5300  1.9385 -0.0657
 1866SOL    HW2 7050   4.589   4.111   7.598  0.7296  0.6073  1.1101
 1867SOL     OW 7051   8.066   3.547   3.273  0.1364  0.1760 -0.5705
 1867SOL    HW1 7052   7.990   3.605   3.276  0.6962  1.0062 -1.7442
 1867SOL    HW2 7053   8.122   3.583   3.204  1.2025 -0.9099 -0.3203
 1868SOL     OW 7054   1.560   2.735   0.014  0.5405 -0.3812 -0.1190
 1868SOL    HW1 7055   1.582   2.820   0.052  0.3306 -0.1412 -0.5297
 1868SOL    HW2 7056   1.629   2.719  -0.051  0.7730 -0.6871  0.1978
 1869SOL     OW 7057   1.209   0.076   3.729 -0.2858 -0.0659 -0.3313
 1869SOL    HW1 7058   1.219   0.074   3.634  1.3266  2.7818 -0.3446
 1869SOL    HW2 7059   1.124   0.117   3.743 -1.0128 -1.4580 -0.4775
 1870SOL     OW 7060   4.211   2.657   4.657 -0.1627  0.3946 -0.0134
 1870SOL    HW1 7061   4.290   2.676   4.605  0.1597  0.6756  0.5625
 1870SOL    HW2 7062   4.142   2.647   4.592  0.2091  0.8551 -0.4953
 1871SOL     OW 7063   1.230   8.782   3.059  0.2429 -0.0498 -0.1977
 1871SOL    HW1 7064   1.242   8.839   3.135  0.7858  1.2079 -1.1869
 1871SOL    HW2 7065   1.187   8.837   2.995 -0.8721 -1.3095 -0.5832
 1872SOL     OW 7066   6.284   6.571   7.704  0.3552 -0.0688 -0.0933
 1872SOL    HW1 7067   6.199   6.551   7.665  0.1595 -1.9774  1.1222
 1872SOL    HW2 7068   6.335   6.609   7.633 -0.9350 -0.5809 -1.3518
 1873SOL     OW 7069   4.966   0.885   4.266  0.4444 -0.2663  0.1009
 1873SOL    HW1 7070   4.981   0.790   4.270  1.1205 -0.1758 -0.0547
 1873SOL    HW2 7071   5.053   0.921   4.246 -0.2950  0.1912 -2.7854
 1874SOL     OW 7072   3.039   7.047   7.056 -0.2797  0.2092 -0.1574
 1874SOL    HW1 7073   3.056   7.141   7.050  0.5252  0.0418 -0.6465
 1874SOL    HW2 7074   3.091   7.009   6.985 -0.5990 -0.6062  0.0373
 1875SOL     OW 7075   6.803   0.469   0.174  0.2183  0.4280  0.0961
 1875SOL    HW1 7076   6.780   0.379   0.148 -0.1825  0.1130  1.4606
 1875SOL    HW2 7077   6.873   0.458   0.238 -1.8261  0.8386  2.5886
 1876SOL     OW 7078   3.757   9.268   8.728 -0.0632  0.2414 -0.5545
 1876SOL    HW1 7079   3.832   9.209   8.723  0.3522  0.6185  0.9454
 1876SOL    HW2 7080   3.721   9.268   8.639  0.4784 -1.5380 -0.8015
 1877SOL     OW 7081   1.394   1.689   8.119 -0.0979 -0.0729 -0.8764
 1877SOL    HW1 7082   1.489   1.685   8.109 -0.0099  1.6293 -0.9972
 1877SOL    HW2 7083   1.379   1.765   8.175 -1.4272  0.0387 -1.3533
 1878SOL     OW 7084   1.353   2.357   8.157 -0.5311  0.1834  0.6052
 1878SOL    HW1 7085   1.261   2.333   8.172 -0.8082  0.7654 -0.1137
 1878SOL    HW2 7086   1.402   2.304   8.220 -1.1803 -1.6446 -0.3567
 1879SOL     OW 7087   6.734   3.439   5.149  0.0445 -0.4140 -0.4399
 1879SOL    HW1 7088   6.774   3.482   5.074 -1.1337 -0.4232 -1.1007
 1879SOL    HW2 7089   6.724   3.507   5.215 -0.4192 -0.0114 -0.9175
 1880SOL     OW 7090   1.403   2.430   1.363  0.3647 -0.3243 -0.1755
 1880SOL    HW1 7091   1.352   2.377   1.423 -1.4101  1.1117 -0.3246
 1880SOL    HW2 7092   1.476   2.463   1.416 -2.2844  2.6763  2.0131
 1881SOL     OW 7093   9.185   3.716   7.742  0.5612 -0.6066 -0.1223
 1881SOL    HW1 7094   9.200   3.656   7.669  0.6751  0.2484 -0.8182
 1881SOL    HW2 7095   9.124   3.670   7.799  0.3793 -1.2406 -0.8168
 1882SOL     OW 7096   2.885   0.427   6.338  0.7108 -0.4362 -0.1706
 1882SOL    HW1 7097   2.847   0.358   6.284  0.8102 -1.0846  0.5573
 1882SOL    HW2 7098   2.824   0.436   6.411  1.5861 -1.0210  0.6620
 1883SOL     OW 7099   6.442   8.223   4.955 -0.2511  0.0420  0.2942
 1883SOL    HW1 7100   6.447   8.227   4.859 -2.0961 -0.8061  0.1209
 1883SOL    HW2 7101   6.356   8.260   4.976 -0.1777 -0.4839  1.5782
 1884SOL     OW 7102   8.022   1.219   0.849  0.4030  0.5058  0.0362
 1884SOL    HW1 7103   8.012   1.300   0.798 -1.4746  0.5118  0.3565
 1884SOL    HW2 7104   7.962   1.157   0.808  1.8952 -0.8031 -0.2742
 1885SOL     OW 7105   1.629   4.668   0.518 -0.1831  0.6339  0.6115
 1885SOL    HW1 7106   1.570   4.593   0.520 -0.1500  0.5891  0.1216
 1885SOL    HW2 7107   1.635   4.697   0.609  0.6832 -0.6248  0.9804
 1886SOL     OW 7108   1.393   3.620   2.462 -0.1608  0.2716 -0.0673
 1886SOL    HW1 7109   1.452   3.589   2.393 -0.2019 -0.4524  0.2112
 1886SOL    HW2 7110   1.331   3.548   2.475 -1.5182  1.2512 -0.7909
 1887SOL     OW 7111   9.046   0.006   0.270  0.2102 -0.6782 -0.6179
 1887SOL    HW1 7112   9.049  -0.010   0.176  0.9725  1.8319 -1.0895
 1887SOL    HW2 7113   9.137   0.021   0.295 -0.1852  0.7667  0.0733
 1888SOL     OW 7114   0.891   5.058   7.213  0.1714  0.1252  0.1978
 1888SOL    HW1 7115   0.838   5.003   7.270 -1.6934  1.2184 -0.4050
 1888SOL    HW2 7116   0.966   5.083   7.266 -0.5046 -0.5199  1.4898
 1889SOL     OW 7117   7.243   7.119   5.813 -0.0464  0.4636  0.0287
 1889SOL    HW1 7118   7.306   7.161   5.872 -0.7755  0.4406  0.8502
 1889SOL    HW2 7119   7.158   7.146   5.847 -0.4805  0.9745 -1.4224
 1890SOL     OW 7120   8.682   6.398   7.810  0.2625  0.0245 -0.2939
 1890SOL    HW1 7121   8.701   6.447   7.890 -0.0201  1.3526 -1.0209
 1890SOL    HW2 7122   8.733   6.318   7.819 -1.1664 -0.7526  2.0747
 1891SOL     OW 7123   3.728   4.098   8.040  0.3559  0.0595  0.0842
 1891SOL    HW1 7124   3.741   4.064   7.952  0.5624  0.5324 -0.0724
 1891SOL    HW2 7125   3.640   4.069   8.064 -0.6449  1.7990 -1.1751
 1892SOL     OW 7126   4.636   0.270   7.396 -0.2088 -0.4482 -0.3789
 1892SOL    HW1 7127   4.708   0.326   7.368 -0.1344 -0.5626 -0.4182
 1892SOL    HW2 7128   4.650   0.187   7.350 -1.3610  0.1032 -1.7773
 1893SOL     OW 7129   2.602   6.721   2.522 -0.3031  0.1299 -0.2708
 1893SOL    HW1 7130   2.583   6.714   2.429  2.2537 -0.3400 -0.8145
 1893SOL    HW2 7131   2.631   6.812   2.534  1.1400 -0.3144 -0.3133
 1894SOL     OW 7132   0.006   4.483   6.097 -0.0214 -0.7350  0.3811
 1894SOL    HW1 7133   0.046   4.475   6.010  0.4335  0.3281  0.4753
 1894SOL    HW2 7134   0.036   4.406   6.144  0.3276 -0.9468 -0.1782
 1895SOL     OW 7135   8.424   4.463   7.326  0.9330 -0.5461  0.6522
 1895SOL    HW1 7136   8.414   4.541   7.272 -0.8217  0.1560  1.9159
 1895SOL    HW2 7137   8.439   4.392   7.263  0.0493  0.4117 -0.6907
 1896SOL     OW 7138   2.733   2.321   4.289  0.3436  0.1758  0.1525
 1896SOL    HW1 7139   2.649   2.366   4.296  0.6723  0.9372 -0.6509
 1896SOL    HW2 7140   2.715   2.248   4.229 -0.3125 -1.1302  1.8433
 1897SOL     OW 7141   2.389   1.016   0.211 -0.1982 -0.1607  0.2198
 1897SOL    HW1 7142   2.407   1.082   0.278  0.9376 -0.5037  0.2720
 1897SOL    HW2 7143   2.423   1.055   0.130 -0.6350 -0.1734  0.0310
 1898SOL     OW 7144   0.742   4.664   1.428  0.5646 -0.2963  0.0442
 1898SOL    HW1 7145   0.714   4.648   1.518 -0.8811  2.6770  0.2563
 1898SOL    HW2 7146   0.732   4.579   1.384  0.5485 -1.6288  2.4603
 1899SOL     OW 7147   0.096   1.265   2.123 -0.0008  0.0217 -0.4064
 1899SOL    HW1 7148   0.174   1.317   2.107  0.5186 -0.5512  0.1858
 1899SOL    HW2 7149   0.089   1.262   2.218 -0.8219  0.1748 -0.4600
 1900SOL     OW 7150   5.200   4.251   0.112  0.0761  0.2442 -0.7141
 1900SOL    HW1 7151   5.251   4.171   0.122 -2.6092 -1.5853 -0.7634
 1900SOL    HW2 7152   5.265   4.321   0.113  2.4944 -1.8753 -0.2320
 1901SOL     OW 7153   1.525   4.835   8.044 -0.0776 -0.0091  0.0898
 1901SOL    HW1 7154   1.459   4.884   7.996 -0.8275 -0.6169  0.4744
 1901SOL    HW2 7155   1.579   4.794   7.976 -1.0627 -0.7825 -0.2580
 1902SOL     OW 7156   2.170   8.867   9.226  1.3180  0.0325 -0.5254
 1902SOL    HW1 7157   2.244   8.831   9.178  1.7874  0.5829 -0.2203
 1902SOL    HW2 7158   2.111   8.901   9.158  1.9799  0.8148 -0.7130
 1903SOL     OW 7159   7.121   9.031   7.865  0.0844  0.1082 -0.0003
 1903SOL    HW1 7160   7.119   8.936   7.849 -0.8410  0.0820  0.2284
 1903SOL    HW2 7161   7.039   9.063   7.827  1.3718  1.1556 -2.0800
 1904SOL     OW 7162   0.600   7.038   3.104 -0.1590 -0.0929 -0.5573
 1904SOL    HW1 7163   0.598   6.971   3.172  0.9975 -0.6139 -1.0133
 1904SOL    HW2 7164   0.516   7.029   3.059 -0.5219 -0.4083  0.1606
 1905SOL     OW 7165   1.019   0.364   0.836 -0.0712  0.6073  0.1034
 1905SOL    HW1 7166   0.944   0.390   0.782  0.6956  2.1574 -0.2893
 1905SOL    HW2 7167   1.000   0.274   0.863 -1.3299  0.4321 -1.2562
 1906SOL     OW 7168   8.962   8.084   8.383  0.1489  0.3553 -0.5261
 1906SOL    HW1 7169   8.961   8.106   8.290 -0.5749 -3.2404 -1.5194
 1906SOL    HW2 7170   8.876   8.044   8.399  1.4988 -2.3325  0.6980
 1907SOL     OW 7171   3.778   4.820   1.712 -0.2216 -0.1764 -0.2283
 1907SOL    HW1 7172   3.791   4.907   1.675 -0.8919 -0.7005 -1.7806
 1907SOL    HW2 7173   3.729   4.835   1.793  0.2437  0.9293 -0.1453
 1908SOL     OW 7174   6.038   3.132   4.588 -0.1583 -0.2738  0.0874
 1908SOL    HW1 7175   5.951   3.093   4.578 -1.1855  1.4143  1.7555
 1908SOL    HW2 7176   6.074   3.090   4.666  0.3890 -0.7033 -0.3908
 1909SOL     OW 7177   7.739   2.365   0.691  1.1362  0.6384 -0.3009
 1909SOL    HW1 7178   7.811   2.425   0.711  1.2255  1.1745 -2.0493
 1909SOL    HW2 7179   7.741   2.357   0.595 -0.7974  0.2550 -0.3488
 1910SOL     OW 7180   2.649   8.201   6.888  0.0140 -0.0441  0.7342
 1910SOL    HW1 7181   2.576   8.230   6.834 -1.1348 -1.1598  1.6257
 1910SOL    HW2 7182   2.643   8.256   6.967  0.2064 -0.0626  0.7623
 1911SOL     OW 7183   7.605   2.451   3.046  0.1355 -0.1448  0.1098
 1911SOL    HW1 7184   7.554   2.437   2.967 -0.5685  0.4621  0.4402
 1911SOL    HW2 7185   7.586   2.542   3.071 -2.2260 -1.1954  2.7195
 1912SOL     OW 7186   4.136   6.006   3.885  0.0884  0.2513  0.1220
 1912SOL    HW1 7187   4.160   5.915   3.905  1.4654  0.7818  1.0276
 1912SOL    HW2 7188   4.133   6.009   3.790  0.7384 -0.5806  0.0616
 1913SOL     OW 7189   5.806   0.080   4.240  0.3685 -0.4564  0.1028
 1913SOL    HW1 7190   5.746   0.014   4.209 -0.9892  0.3493  0.9146
 1913SOL    HW2 7191   5.812   0.144   4.168 -1.8444  0.7992  0.9276
 1914SOL     OW 7192   4.921   4.750   0.279 -0.2704  0.0374  0.3134
 1914SOL    HW1 7193   4.942   4.745   0.373 -1.1486  2.2119  0.6767
 1914SOL    HW2 7194   4.983   4.814   0.245  0.3469 -1.0761 -0.7327
 1915SOL     OW 7195   1.744   0.120   9.098  0.3466 -0.2935 -0.5591
 1915SOL    HW1 7196   1.828   0.154   9.128  0.2244  0.3322 -0.9139
 1915SOL    HW2 7197   1.761   0.087   9.010  0.6704 -1.9947  0.0962
 1916SOL     OW 7198   4.515   2.861   7.016 -0.1691 -0.1829  0.0962
 1916SOL    HW1 7199   4.597   2.900   7.048 -0.0937 -0.7231  0.5853
 1916SOL    HW2 7200   4.531   2.846   6.923 -1.4429  4.1808 -1.0526
 1917SOL     OW 7201   2.354   2.277   3.442 -0.9500 -0.3670 -0.4408
 1917SOL    HW1 7202   2.265   2.312   3.448 -0.9887 -0.1519 -1.8546
 1917SOL    HW2 7203   2.342   2.186   3.416 -0.7709 -0.3244 -0.6845
 1918SOL     OW 7204   0.937   4.038   5.276  0.0259  0.2256  0.0722
 1918SOL    HW1 7205   0.979   3.984   5.343 -0.1855  0.9493  0.8027
 1918SOL    HW2 7206   0.899   3.975   5.214 -2.8449 -0.6155  2.4685
 1919SOL     OW 7207   1.641   8.825   0.341 -0.1723 -0.3655 -0.5252
 1919SOL    HW1 7208   1.680   8.747   0.381 -1.7863 -0.8717  0.1275
 1919SOL    HW2 7209   1.682   8.899   0.387 -0.9713 -0.9140  1.1499
 1920SOL     OW 7210   9.058   7.671   4.608 -0.5888 -0.1353 -0.2432
 1920SOL    HW1 7211   9.149   7.693   4.586 -0.6134  0.2110 -0.0061
 1920SOL    HW2 7212   9.042   7.716   4.691 -0.8556 -0.5110 -0.0884
 1921SOL     OW 7213   1.637   5.102   5.063 -0.4029  0.5910  0.6995
 1921SOL    HW1 7214   1.604   5.062   4.983  0.8605  2.5243 -0.8960
 1921SOL    HW2 7215   1.559   5.132   5.110 -1.2209 -1.6340  0.8389
 1922SOL     OW 7216   8.365   1.631   6.718  0.1424 -0.0438  0.2600
 1922SOL    HW1 7217   8.269   1.628   6.719  0.1461 -1.6479 -0.6788
 1922SOL    HW2 7218   8.386   1.720   6.690 -1.0611  0.3163  0.4287
 1923SOL     OW 7219   3.353   4.614   4.014 -0.3582 -0.1780  0.0058
 1923SOL    HW1 7220   3.319   4.593   4.101  1.0212 -0.3141  0.5354
 1923SOL    HW2 7221   3.328   4.706   4.000 -2.5207 -0.7709 -0.4302
 1924SOL     OW 7222   8.427   8.691   2.491  0.2891 -0.0675  1.1140
 1924SOL    HW1 7223   8.480   8.690   2.411 -2.6163  0.8243 -0.9740
 1924SOL    HW2 7224   8.376   8.771   2.484 -0.5613 -0.3317  3.5782
 1925SOL     OW 7225   7.946   4.594   7.641 -0.0293  0.0636  0.2721
 1925SOL    HW1 7226   7.858   4.561   7.658 -0.7792  0.5067 -2.2448
 1925SOL    HW2 7227   7.994   4.518   7.610  0.5637 -0.2076  1.7748
 1926SOL     OW 7228   8.865   8.085   0.266  0.7050  0.4965 -0.2011
 1926SOL    HW1 7229   8.915   8.163   0.292  1.5528  0.5684 -1.8949
 1926SOL    HW2 7230   8.929   8.030   0.221  0.2212 -1.4386  1.3466
 1927SOL     OW 7231   8.018   7.550   0.105  0.0569 -0.5457  0.0200
 1927SOL    HW1 7232   7.945   7.593   0.061  0.2959  1.1448  1.1733
 1927SOL    HW2 7233   7.980   7.514   0.185 -0.0029 -1.9214 -0.6112
 1928SOL     OW 7234   4.271   8.330   1.569  0.7376 -0.5830 -0.1115
 1928SOL    HW1 7235   4.314   8.257   1.523  1.0923  0.6875 -1.9027
 1928SOL    HW2 7236   4.203   8.360   1.509  2.2530  2.1632 -0.6280
 1929SOL     OW 7237   0.066   7.287   7.416  0.2673 -0.2174  0.7869
 1929SOL    HW1 7238  -0.001   7.297   7.483 -2.0351 -1.7394 -1.1164
 1929SOL    HW2 7239   0.031   7.334   7.340  0.1571 -2.8843 -0.9624
 1930SOL     OW 7240   7.968   5.370   3.396  0.0346  0.8377  0.3716
 1930SOL    HW1 7241   7.973   5.331   3.309 -1.4048 -0.3453  0.7710
 1930SOL    HW2 7242   8.032   5.320   3.448 -0.7287 -0.0157  0.5166
 1931SOL     OW 7243   6.901   5.165   3.314  0.5952 -0.4603  0.5646
 1931SOL    HW1 7244   6.930   5.238   3.259  0.4113 -0.8372 -0.0418
 1931SOL    HW2 7245   6.981   5.116   3.334  0.5430 -0.8563 -0.1612
 1932SOL     OW 7246   9.123   8.332   1.363  0.4818 -0.0976 -0.2245
 1932SOL    HW1 7247   9.029   8.339   1.350  0.2504 -0.1282  1.2895
 1932SOL    HW2 7248   9.161   8.382   1.291 -0.5901 -2.2150 -2.4092
 1933SOL     OW 7249   5.677   5.622   0.073  0.1343 -0.5291  1.0929
 1933SOL    HW1 7250   5.739   5.586   0.136  0.5482 -2.4256 -0.3137
 1933SOL    HW2 7251   5.731   5.674   0.013  0.1443 -0.9073  0.7697
 1934SOL     OW 7252   7.299   2.686   2.916  0.0126  0.2055 -0.3391
 1934SOL    HW1 7253   7.244   2.608   2.907  0.2981  0.0999 -1.2867
 1934SOL    HW2 7254   7.383   2.651   2.947  0.9154 -0.2085 -3.0494
 1935SOL     OW 7255   1.023   6.441   7.595 -0.0115 -0.7591  0.0441
 1935SOL    HW1 7256   1.003   6.433   7.502 -0.2160  2.3756 -0.2834
 1935SOL    HW2 7257   0.946   6.405   7.639 -1.2461  0.4159 -1.0660
 1936SOL     OW 7258   6.183   5.543   4.621  0.0742  0.1123  0.7976
 1936SOL    HW1 7259   6.113   5.606   4.640 -0.9037 -1.3654  2.3456
 1936SOL    HW2 7260   6.257   5.573   4.674  0.3107  1.1184 -0.0785
 1937SOL     OW 7261   2.015   1.086   6.860  0.4906 -0.0386 -0.6293
 1937SOL    HW1 7262   2.052   1.166   6.896 -0.0563  0.3325 -0.8842
 1937SOL    HW2 7263   1.936   1.114   6.814 -0.1367 -0.8135 -0.0613
 1938SOL     OW 7264   7.077   1.171   3.623  0.0396 -0.3611 -0.0168
 1938SOL    HW1 7265   7.065   1.085   3.582 -2.3767 -0.3809  0.5391
 1938SOL    HW2 7266   7.028   1.230   3.566  0.7103  0.4511  0.2434
 1939SOL     OW 7267   3.296   1.734   7.879  0.0998 -0.3838  0.8728
 1939SOL    HW1 7268   3.305   1.825   7.906 -0.8638  0.2362 -0.7812
 1939SOL    HW2 7269   3.314   1.683   7.959 -0.0681  1.2506  1.9912
 1940SOL     OW 7270   5.654   9.051   6.861 -0.2107 -0.2142  0.0905
 1940SOL    HW1 7271   5.700   9.132   6.884 -1.2686 -0.1887  2.3709
 1940SOL    HW2 7272   5.576   9.080   6.815  0.2740 -0.0642 -0.6562
 1941SOL     OW 7273   2.173   7.927   4.258  0.2304 -1.0979 -0.0457
 1941SOL    HW1 7274   2.258   7.931   4.302  0.5158 -0.4634 -0.6336
 1941SOL    HW2 7275   2.172   8.004   4.201 -0.2363 -1.7416 -0.9378
 1942SOL     OW 7276   1.896   4.852   7.863  0.4895 -0.4278 -0.4871
 1942SOL    HW1 7277   1.819   4.798   7.876 -0.7390  0.9683 -1.6160
 1942SOL    HW2 7278   1.904   4.903   7.944 -1.5746  1.5330 -1.4350
 1943SOL     OW 7279   1.438   0.620   1.752 -0.6963 -0.0122  0.0467
 1943SOL    HW1 7280   1.427   0.650   1.662  1.3700 -1.6399 -0.8606
 1943SOL    HW2 7281   1.424   0.525   1.748 -2.0000  0.0660  1.7527
 1944SOL     OW 7282   9.218   1.910   2.370 -0.7968  0.2818 -0.3997
 1944SOL    HW1 7283   9.286   1.845   2.389 -0.6190  0.5094 -0.2429
 1944SOL    HW2 7284   9.263   1.977   2.318 -0.4131  1.3616  1.2502
 1945SOL     OW 7285   0.406   7.644   5.807 -0.1614 -0.3315  0.0647
 1945SOL    HW1 7286   0.385   7.563   5.853 -2.4888 -0.5626 -1.2515
 1945SOL    HW2 7287   0.447   7.615   5.725  1.2478 -0.0378  0.6342
 1946SOL     OW 7288   6.253   8.189   6.115  0.5431 -0.2490 -0.4287
 1946SOL    HW1 7289   6.199   8.159   6.043 -0.3660  1.6275 -0.5953
 1946SOL    HW2 7290   6.193   8.194   6.190  0.6738  0.9751 -0.3864
 1947SOL     OW 7291   9.127   2.335   0.530 -0.0876  0.2298  0.3348
 1947SOL    HW1 7292   9.072   2.320   0.453  0.1152  1.1396 -0.0051
 1947SOL    HW2 7293   9.213   2.356   0.494 -0.7300  4.0243  0.5837
 1948SOL     OW 7294   2.397   0.480   0.664 -0.0896 -1.0315  0.1695
 1948SOL    HW1 7295   2.375   0.529   0.743  0.1186 -1.1924  0.3272
 1948SOL    HW2 7296   2.457   0.537   0.616 -0.1068 -0.9931  0.1932
 1949SOL     OW 7297   8.239   2.061   7.563  0.4254  0.4548  0.0944
 1949SOL    HW1 7298   8.273   1.978   7.530  1.0532  1.2665 -1.4011
 1949SOL    HW2 7299   8.217   2.043   7.655 -3.3745 -2.5113 -1.1343
 1950SOL     OW 7300   5.549   1.606   8.272  0.0122  0.2519 -0.1565
 1950SOL    HW1 7301   5.583   1.536   8.326  0.2618 -0.7465 -1.5501
 1950SOL    HW2 7302   5.611   1.678   8.283 -0.7123  0.6246  1.9615
 1951SOL     OW 7303   5.854   0.921   4.231 -0.8444 -0.2718  0.4049
 1951SOL    HW1 7304   5.841   0.992   4.294 -0.4014 -0.6767  0.9649
 1951SOL    HW2 7305   5.948   0.919   4.216 -0.9010 -0.4670  0.0697
 1952SOL     OW 7306   5.544   6.758   7.169  0.4292  0.6812 -0.8863
 1952SOL    HW1 7307   5.587   6.810   7.236  0.6226  1.0041 -1.2572
 1952SOL    HW2 7308   5.592   6.778   7.089  0.3744  0.0957 -1.0739
 1953SOL     OW 7309   2.201   4.890   5.415  0.3427 -0.4938 -0.1251
 1953SOL    HW1 7310   2.170   4.940   5.340 -1.7717 -0.6389  0.5721
 1953SOL    HW2 7311   2.223   4.804   5.380  1.3466  0.0518 -0.8769
 1954SOL     OW 7312   5.879   8.156   1.796  0.1381 -0.1568  0.7601
 1954SOL    HW1 7313   5.969   8.147   1.828 -0.2422 -1.1370  1.6076
 1954SOL    HW2 7314   5.888   8.198   1.710  1.3119  0.9343  1.3738
 1955SOL     OW 7315   6.403   5.031   8.787  0.3515  0.1069 -0.1426
 1955SOL    HW1 7316   6.437   5.121   8.790  0.1727  0.1552  0.5358
 1955SOL    HW2 7317   6.438   4.989   8.865 -0.4212 -0.1037  0.1007
 1956SOL     OW 7318   3.239   2.637   5.069 -0.2008  0.8818  0.5085
 1956SOL    HW1 7319   3.252   2.619   5.162 -0.1417  1.5044  0.6274
 1956SOL    HW2 7320   3.161   2.587   5.046 -0.6181  1.2572  1.0634
 1957SOL     OW 7321   6.468   8.833   3.611 -0.1333  0.2860  0.5443
 1957SOL    HW1 7322   6.410   8.892   3.659  0.1392  1.5556 -0.6416
 1957SOL    HW2 7323   6.479   8.758   3.670 -2.8278  0.0515  0.9011
 1958SOL     OW 7324   8.384   2.133   3.920  0.0236  0.1099 -0.7577
 1958SOL    HW1 7325   8.477   2.111   3.917 -0.0378 -1.3012  2.5860
 1958SOL    HW2 7326   8.382   2.229   3.920  1.6601  0.1966  0.7561
 1959SOL     OW 7327   5.479   4.719   6.129  0.2796  0.5907  0.4601
 1959SOL    HW1 7328   5.544   4.776   6.171 -1.2075  2.4373  0.4155
 1959SOL    HW2 7329   5.401   4.774   6.124 -1.0150 -1.2630 -0.2941
 1960SOL     OW 7330   5.570   8.683   7.884 -0.0747 -0.1246  0.2261
 1960SOL    HW1 7331   5.567   8.769   7.843  1.2867 -0.6840 -1.1681
 1960SOL    HW2 7332   5.627   8.631   7.827  0.7740 -1.3803  2.1077
 1961SOL     OW 7333   4.547   4.320   6.566  0.2230 -0.1302 -0.1757
 1961SOL    HW1 7334   4.482   4.367   6.619 -0.4336 -0.7707 -0.3914
 1961SOL    HW2 7335   4.504   4.308   6.481  0.6959 -0.3979 -0.3781
 1962SOL     OW 7336   2.494   8.998   4.173  0.6655  0.2564  0.0546
 1962SOL    HW1 7337   2.528   9.052   4.102  1.7187  0.7684  0.9259
 1962SOL    HW2 7338   2.496   9.054   4.250  1.4483 -0.8951  0.9090
 1963SOL     OW 7339   9.123   2.011   5.268  0.1520  0.2431  0.7447
 1963SOL    HW1 7340   9.191   1.960   5.225 -0.3454 -0.4973  0.8245
 1963SOL    HW2 7341   9.093   2.072   5.200 -0.9931 -1.2724 -0.1573
 1964SOL     OW 7342   2.131   3.647   0.380  0.9227  0.1948  0.5554
 1964SOL    HW1 7343   2.068   3.576   0.367  0.4692  0.8450 -0.9109
 1964SOL    HW2 7344   2.119   3.673   0.471  0.6067 -1.1250  0.9158
 1965SOL     OW 7345   6.932   0.047   3.515 -0.3438 -0.1072 -0.7060
 1965SOL    HW1 7346   6.968   0.057   3.603  0.3954 -0.5107 -0.9554
 1965SOL    HW2 7347   6.837   0.047   3.527 -0.3471  2.4267 -0.1809
 1966SOL     OW 7348   5.239   2.143   1.266 -0.2589  0.2385 -0.0474
 1966SOL    HW1 7349   5.253   2.144   1.171 -1.8358 -2.3782 -0.4323
 1966SOL    HW2 7350   5.322   2.112   1.302 -0.2699 -0.7214 -0.7944
 1967SOL     OW 7351   7.888   0.936   5.366 -0.3854 -0.3147 -0.2474
 1967SOL    HW1 7352   7.850   0.915   5.452 -0.3493  0.8458  0.0627
 1967SOL    HW2 7353   7.960   0.873   5.356 -0.3071 -0.3778  0.6313
 1968SOL     OW 7354   8.308   6.201   5.675  0.0626  0.3448 -0.1415
 1968SOL    HW1 7355   8.390   6.244   5.651  0.1598  0.4389  0.3386
 1968SOL    HW2 7356   8.324   6.108   5.659  0.0509  0.4255 -0.6331
 1969SOL     OW 7357   1.501   5.367   1.798  0.6215 -0.3672  0.2235
 1969SOL    HW1 7358   1.584   5.389   1.757 -0.5190  2.7827 -0.7056
 1969SOL    HW2 7359   1.460   5.305   1.738  1.4243 -0.3215 -0.3862
 1970SOL     OW 7360   8.468   5.997   6.588  0.1237 -0.4721  0.5437
 1970SOL    HW1 7361   8.452   6.009   6.681 -1.5569  0.0599  0.2151
 1970SOL    HW2 7362   8.504   6.081   6.558 -1.0086 -0.0162  0.4020
 1971SOL     OW 7363   0.430   0.200   2.746 -0.2225  0.2444  0.7201
 1971SOL    HW1 7364   0.465   0.117   2.713 -1.7901 -0.2976  0.3127
 1971SOL    HW2 7365   0.346   0.176   2.785 -0.8804  1.6997  0.2676
 1972SOL     OW 7366   7.061   5.284   8.754 -0.1267  0.0363  0.9074
 1972SOL    HW1 7367   6.994   5.270   8.687 -0.0243 -0.3622  0.8863
 1972SOL    HW2 7368   7.010   5.297   8.835 -0.2246 -0.6938  0.9690
 1973SOL     OW 7369   7.672   1.444   4.111 -0.0220  0.0354  0.6514
 1973SOL    HW1 7370   7.618   1.518   4.082 -0.2425 -0.1296  0.6388
 1973SOL    HW2 7371   7.757   1.458   4.069  0.1783  0.6987  1.2567
 1974SOL     OW 7372   6.303   1.318   2.420  0.0170  0.2083  0.2482
 1974SOL    HW1 7373   6.318   1.224   2.431 -0.2649  0.3389  1.9933
 1974SOL    HW2 7374   6.387   1.352   2.389  0.4771 -0.4527  0.7363
 1975SOL     OW 7375   7.506   6.098   2.150 -0.0054 -0.1193  0.3559
 1975SOL    HW1 7376   7.445   6.104   2.224  0.9718 -0.7718  1.2451
 1975SOL    HW2 7377   7.459   6.050   2.083 -0.6407 -0.1752  0.8405
 1976SOL     OW 7378   6.211   1.400   4.664  0.4476  0.1277 -0.2517
 1976SOL    HW1 7379   6.185   1.308   4.662  1.5347 -0.2165  0.4342
 1976SOL    HW2 7380   6.235   1.419   4.574  0.1798 -0.2568 -0.4087
 1977SOL     OW 7381   8.859   2.158   6.830 -0.2692  0.0745  0.0220
 1977SOL    HW1 7382   8.876   2.094   6.899 -0.8079 -0.8624 -0.6895
 1977SOL    HW2 7383   8.771   2.138   6.799  0.2642 -0.0760 -1.4981
 1978SOL     OW 7384   5.743   9.005   8.548  0.3959 -0.1697  0.3835
 1978SOL    HW1 7385   5.671   8.942   8.542 -0.1578  0.4511  0.4071
 1978SOL    HW2 7386   5.715   9.065   8.618  2.6324 -2.1002  3.1888
 1979SOL     OW 7387   8.418   7.869   2.800  0.0579  0.2889  0.0704
 1979SOL    HW1 7388   8.331   7.908   2.801  1.0534  2.8625 -2.2640
 1979SOL    HW2 7389   8.418   7.811   2.724  0.2970 -0.0151  0.2934
 1980SOL     OW 7390   9.139   7.356   0.658 -0.6517 -0.1513  0.3951
 1980SOL    HW1 7391   9.058   7.328   0.616 -0.3410 -0.9729  0.3267
 1980SOL    HW2 7392   9.168   7.280   0.707  0.8228 -0.3391 -0.7132
 1981SOL     OW 7393   3.629   3.915   3.526  1.0588  0.4322  0.4616
 1981SOL    HW1 7394   3.707   3.905   3.472  0.5057 -2.5900  0.0593
 1981SOL    HW2 7395   3.557   3.924   3.463  0.9255  2.5952  0.8266
 1982SOL     OW 7396   3.902   5.741   6.121  0.4310  0.2167  0.1839
 1982SOL    HW1 7397   3.843   5.714   6.192  0.1547 -0.3501 -0.2468
 1982SOL    HW2 7398   3.934   5.659   6.084 -0.5938  0.4430 -1.3011
 1983SOL     OW 7399   0.647   9.021   3.558  0.2133  0.0225 -0.0229
 1983SOL    HW1 7400   0.619   8.942   3.513 -2.3507  0.2392  0.9934
 1983SOL    HW2 7401   0.684   8.990   3.640 -2.6692 -0.2160  1.3315
 1984SOL     OW 7402   1.299   0.920   3.876  0.1019 -0.2921 -0.0015
 1984SOL    HW1 7403   1.285   0.826   3.887 -3.4989  0.2786  1.6802
 1984SOL    HW2 7404   1.262   0.940   3.790 -0.4866 -0.2354  0.2588
 1985SOL     OW 7405   7.422   5.049   4.392 -0.0505 -0.5667 -0.0275
 1985SOL    HW1 7406   7.413   5.132   4.438 -1.7218 -0.8249  0.1967
 1985SOL    HW2 7407   7.375   5.061   4.310 -0.6213 -1.3701  0.1593
 1986SOL     OW 7408   5.349   4.975   0.500  0.2356 -0.1005  0.2107
 1986SOL    HW1 7409   5.386   4.998   0.415  0.8569  0.4576  0.6286
 1986SOL    HW2 7410   5.287   5.045   0.520 -1.4288 -1.2512 -0.6885
 1987SOL     OW 7411   8.247   4.523   9.121  0.0386  0.1265  0.1786
 1987SOL    HW1 7412   8.330   4.505   9.078 -0.3637  0.6922 -0.8745
 1987SOL    HW2 7413   8.271   4.559   9.207  0.8518 -1.1658  0.5206
 1988SOL     OW 7414   7.915   8.183   5.589  0.7901 -0.0721 -0.7724
 1988SOL    HW1 7415   7.965   8.160   5.667  2.4664 -0.0469 -1.7936
 1988SOL    HW2 7416   7.863   8.259   5.615  0.1836 -0.9484  0.7177
 1989SOL     OW 7417   0.637   6.882   7.325  0.0579 -0.5891  0.3984
 1989SOL    HW1 7418   0.638   6.815   7.393 -1.4000  0.2307  1.2814
 1989SOL    HW2 7419   0.695   6.951   7.359 -0.4610 -0.2967  0.7076
 1990SOL     OW 7420   3.667   4.811   6.852 -0.0573 -0.4072  0.0712
 1990SOL    HW1 7421   3.660   4.716   6.862 -0.3581 -0.4971 -0.9085
 1990SOL    HW2 7422   3.731   4.837   6.919  0.2150 -1.3254  0.1843
 1991SOL     OW 7423   1.909   4.082   3.163  0.4025 -0.2942 -0.7000
 1991SOL    HW1 7424   1.990   4.064   3.211  0.2551  1.9866  0.5576
 1991SOL    HW2 7425   1.840   4.042   3.216  0.5526 -1.1904 -1.1468
 1992SOL     OW 7426   3.724   3.653   0.155  0.0269 -1.0517  0.3844
 1992SOL    HW1 7427   3.726   3.729   0.097  0.6766 -2.2399 -1.2364
 1992SOL    HW2 7428   3.643   3.607   0.130  0.5995 -1.8722 -0.0340
 1993SOL     OW 7429   4.580   3.268   7.034 -0.2382  0.0045 -0.0010
 1993SOL    HW1 7430   4.644   3.313   7.089 -0.7407 -0.1823  0.7473
 1993SOL    HW2 7431   4.580   3.178   7.065 -2.5590  0.4769  1.6550
 1994SOL     OW 7432   3.333   3.812   0.975  0.1476  0.3351  0.2569
 1994SOL    HW1 7433   3.365   3.756   1.046  1.1729 -1.1544 -1.3008
 1994SOL    HW2 7434   3.413   3.840   0.930 -0.4841  1.2720 -0.3124
 1995SOL     OW 7435   5.332   6.267   6.874 -0.6329 -0.6073  0.2025
 1995SOL    HW1 7436   5.250   6.256   6.923 -0.2648  1.3216  1.3717
 1995SOL    HW2 7437   5.400   6.267   6.942 -0.1199  2.3483 -0.1738
 1996SOL     OW 7438   9.240   2.268   2.976 -0.6030  0.4511 -0.0824
 1996SOL    HW1 7439   9.243   2.335   3.044 -0.7897  0.8987 -0.5088
 1996SOL    HW2 7440   9.151   2.234   2.980 -0.6318  0.5192 -0.1417
 1997SOL     OW 7441   3.593   7.177   7.487 -0.5637  0.1492 -0.1714
 1997SOL    HW1 7442   3.651   7.246   7.453 -1.7384  0.0902 -2.4467
 1997SOL    HW2 7443   3.613   7.174   7.581  2.4157  0.7794 -0.6689
 1998SOL     OW 7444   7.368   4.871   7.705 -0.8096 -0.1339  0.1982
 1998SOL    HW1 7445   7.335   4.938   7.645  1.8106 -1.1497 -2.6372
 1998SOL    HW2 7446   7.320   4.792   7.683  0.2905 -0.5553 -0.8061
 1999SOL     OW 7447   5.022   6.358   0.413 -0.0282  0.0629  0.4270
 1999SOL    HW1 7448   5.069   6.352   0.496  0.6656  0.3102  0.0594
 1999SOL    HW2 7449   5.068   6.297   0.355 -0.2363  0.2136  0.1017
 2000SOL     OW 7450   1.022   3.166   8.180  0.3903 -0.6542  0.1332
 2000SOL    HW1 7451   0.962   3.194   8.249 -0.6104  0.9385 -1.2696
 2000SOL    HW2 7452   1.107   3.201   8.206 -0.2420  1.1299 -0.0455
 2001SOL     OW 7453   7.360   0.351   3.174 -0.4403  0.3212 -0.0109
 2001SOL    HW1 7454   7.379   0.383   3.086 -2.5339 -0.0679 -0.6893
 2001SOL    HW2 7455   7.445   0.344   3.217  0.8609 -1.0478 -2.5564
 2002SOL     OW 7456   8.161   2.371   5.508 -0.7054 -0.2289 -0.1089
 2002SOL    HW1 7457   8.100   2.331   5.446 -0.7934  0.8653 -0.7527
 2002SOL    HW2 7458   8.237   2.314   5.508 -1.1533 -0.8395 -0.3720
 2003SOL     OW 7459   8.720   3.217   4.525  0.1574 -0.2704  0.2593
 2003SOL    HW1 7460   8.799   3.251   4.567  0.9625 -1.1554 -0.4760
 2003SOL    HW2 7461   8.647   3.261   4.570  1.0832  1.0584  0.5098
 2004SOL     OW 7462   8.242   7.923   8.220  0.3008 -0.1014  0.8233
 2004SOL    HW1 7463   8.233   7.863   8.147 -0.7787  0.8420  0.1419
 2004SOL    HW2 7464   8.162   7.911   8.271  0.6341 -0.1072  1.3537
 2005SOL     OW 7465   5.469   6.895   4.375  0.0960 -0.9790  0.3148
 2005SOL    HW1 7466   5.512   6.816   4.343  0.9794  0.1591 -1.4405
 2005SOL    HW2 7467   5.541   6.950   4.408  0.4033  1.4603 -3.7463
 2006SOL     OW 7468   5.154   9.114   3.824 -0.0448 -0.3329 -0.0108
 2006SOL    HW1 7469   5.154   9.122   3.729 -1.8365 -1.1873 -0.1143
 2006SOL    HW2 7470   5.181   9.024   3.841 -1.3882 -0.7135  0.1979
 2007SOL     OW 7471   6.480   6.315   1.932  0.1657 -0.8483 -0.2748
 2007SOL    HW1 7472   6.489   6.357   2.018  0.9190  1.0422 -1.2190
 2007SOL    HW2 7473   6.441   6.383   1.876 -0.5174 -2.1140 -1.4044
 2008SOL     OW 7474   4.941   3.596   8.987  0.8181 -0.5878  0.7979
 2008SOL    HW1 7475   4.974   3.666   8.930  0.5267 -1.3649 -0.3460
 2008SOL    HW2 7476   4.850   3.585   8.961  0.4048 -0.3388  2.0629
 2009SOL     OW 7477   6.776   1.435   1.261  0.1396  0.3578 -0.0191
 2009SOL    HW1 7478   6.715   1.478   1.202 -0.9806  1.7872  2.0686
 2009SOL    HW2 7479   6.723   1.369   1.307  1.1160 -1.1199 -0.9150
 2010SOL     OW 7480   6.784   8.292   3.394  0.5471 -0.2125  0.2319
 2010SOL    HW1 7481   6.827   8.343   3.463 -0.1253 -2.0113  2.0591
 2010SOL    HW2 7482   6.697   8.331   3.387  0.4851 -0.2691  0.6729
 2011SOL     OW 7483   7.705   9.220   2.914 -0.3462  0.2542  0.0681
 2011SOL    HW1 7484   7.752   9.160   2.973 -0.3345 -0.4230 -0.6114
 2011SOL    HW2 7485   7.625   9.173   2.891 -0.5655  0.7066 -0.0949
 2012SOL     OW 7486   3.635   7.630   7.600 -0.4037 -0.0375  0.2687
 2012SOL    HW1 7487   3.695   7.558   7.579 -0.7458 -0.7746  1.6928
 2012SOL    HW2 7488   3.572   7.630   7.528  0.4535 -0.1758 -0.5135
 2013SOL     OW 7489   8.708   2.556   3.996  0.2371  0.1111  0.3795
 2013SOL    HW1 7490   8.646   2.566   3.923 -0.4263  2.3582  1.1532
 2013SOL    HW2 7491   8.773   2.493   3.964 -0.6819  0.1170 -1.6837
 2014SOL     OW 7492   3.368   9.055   8.281 -0.3637 -0.5362  0.5390
 2014SOL    HW1 7493   3.358   9.012   8.196 -0.1813 -0.6016  0.5494
 2014SOL    HW2 7494   3.322   9.138   8.272 -1.3203 -1.0276  0.7386
 2015SOL     OW 7495   0.853   6.079   5.775  0.1994 -0.4010 -0.2666
 2015SOL    HW1 7496   0.866   6.015   5.845  1.4887 -0.1726 -0.2814
 2015SOL    HW2 7497   0.782   6.135   5.808  0.7209 -0.3499  0.8244
 2016SOL     OW 7498   6.187   1.864   1.159  0.5398  0.2347 -0.3850
 2016SOL    HW1 7499   6.221   1.948   1.190 -0.8915  1.6424 -2.3387
 2016SOL    HW2 7500   6.255   1.830   1.101  1.1955 -0.0574  0.5411
 2017SOL     OW 7501   8.421   5.977   4.801 -0.7112  0.0365  0.4943
 2017SOL    HW1 7502   8.469   5.907   4.758  0.7738  0.2794  1.6719
 2017SOL    HW2 7503   8.342   5.935   4.834 -0.2479 -0.8885  0.4496
 2018SOL     OW 7504   5.633   3.313   2.354 -0.2286  0.5461  0.5695
 2018SOL    HW1 7505   5.602   3.241   2.409 -0.2788  1.1422  1.3287
 2018SOL    HW2 7506   5.577   3.309   2.276 -0.7434  0.2497  0.9527
 2019SOL     OW 7507   8.655   6.363   6.431  0.0725 -0.2372  0.1181
 2019SOL    HW1 7508   8.659   6.286   6.373  0.2410  0.4205 -0.7634
 2019SOL    HW2 7509   8.711   6.427   6.388 -0.0063  0.3533  0.8955
 2020SOL     OW 7510   6.793   4.104   7.330 -0.1048  0.0600 -0.1872
 2020SOL    HW1 7511   6.870   4.143   7.289 -0.7962 -0.7218 -2.3310
 2020SOL    HW2 7512   6.774   4.162   7.404  1.5694  1.1659 -0.5590
 2021SOL     OW 7513   8.765   3.220   7.134  0.3079 -0.1478 -0.0078
 2021SOL    HW1 7514   8.731   3.144   7.087 -3.0374  0.8563  0.5289
 2021SOL    HW2 7515   8.718   3.294   7.097 -0.8888  0.9433  3.3497
 2022SOL     OW 7516   8.192   4.934   4.571 -0.6546  0.5561 -0.1469
 2022SOL    HW1 7517   8.121   4.990   4.540 -0.6687  0.6479  0.0524
 2022SOL    HW2 7518   8.250   4.924   4.495 -0.5409  1.0095 -0.1186
 2023SOL     OW 7519   6.123   8.502   1.496 -0.2865 -1.1792 -0.5883
 2023SOL    HW1 7520   6.147   8.565   1.564 -0.3417 -1.7731  0.0018
 2023SOL    HW2 7521   6.204   8.453   1.480 -0.2656 -1.0199 -0.9804
 2024SOL     OW 7522   5.740   6.578   5.845 -0.3953  0.0215  0.2378
 2024SOL    HW1 7523   5.801   6.592   5.918  0.8059 -0.0538 -0.7285
 2024SOL    HW2 7524   5.667   6.637   5.864  0.2656  0.5972  1.0867
 2025SOL     OW 7525   2.862   5.852   7.132 -0.0454 -0.1741  0.1079
 2025SOL    HW1 7526   2.837   5.773   7.084  0.3957 -0.6503  0.6467
 2025SOL    HW2 7527   2.789   5.866   7.193  0.2552 -0.6553  0.5888
 2026SOL     OW 7528   1.853   2.671   1.329 -0.6730  0.1807 -0.0690
 2026SOL    HW1 7529   1.812   2.714   1.404 -0.6354  1.6415 -0.8593
 2026SOL    HW2 7530   1.821   2.581   1.334  0.5922 -0.2431  2.6241
 2027SOL     OW 7531   7.929   7.472   7.667 -0.1657  0.1688 -0.1819
 2027SOL    HW1 7532   7.926   7.383   7.701 -0.6904 -0.1912 -1.1346
 2027SOL    HW2 7533   8.019   7.502   7.686  0.5486 -1.1548 -1.3006
 2028SOL     OW 7534   6.435   8.053   7.163  0.2579  1.0672  0.7572
 2028SOL    HW1 7535   6.439   8.091   7.075 -0.7759  0.2059  0.3131
 2028SOL    HW2 7536   6.526   8.051   7.192  0.4425  3.0153  0.4439
 2029SOL     OW 7537   0.054   1.116   9.149  0.3281 -0.1370  0.6082
 2029SOL    HW1 7538   0.004   1.156   9.077  0.3446 -1.4689 -0.1717
 2029SOL    HW2 7539   0.137   1.165   9.149 -0.0611  0.5408  0.3859
 2030SOL     OW 7540   4.029   2.932   7.577 -0.6723  0.0458 -0.5364
 2030SOL    HW1 7541   4.043   2.943   7.483 -0.3402  0.3178 -0.4602
 2030SOL    HW2 7542   4.100   2.875   7.605 -0.1056  0.8536 -0.2686
 2031SOL     OW 7543   7.607   4.167   1.690  0.0282 -0.3196  0.2969
 2031SOL    HW1 7544   7.548   4.096   1.663  0.4558 -0.9579  0.9963
 2031SOL    HW2 7545   7.654   4.192   1.610 -1.3913  0.4191 -0.3515
 2032SOL     OW 7546   3.715   2.026   3.604  0.4197 -0.3533 -0.0275
 2032SOL    HW1 7547   3.705   2.075   3.686  1.5600 -0.2431  0.0703
 2032SOL    HW2 7548   3.626   2.006   3.576 -0.2973  3.5904 -1.1589
 2033SOL     OW 7549   4.756   7.383   1.340  0.1144 -0.3926 -0.5765
 2033SOL    HW1 7550   4.753   7.305   1.395 -0.6554 -0.4580 -0.7002
 2033SOL    HW2 7551   4.669   7.388   1.300  0.2917  0.2939 -0.9003
 2034SOL     OW 7552   3.020   6.986   9.225 -0.0695 -0.8136 -0.4739
 2034SOL    HW1 7553   3.105   6.997   9.184 -0.1850  0.7836 -0.3439
 2034SOL    HW2 7554   3.021   7.047   9.299 -0.8047 -1.8092  0.3932
 2035SOL     OW 7555   6.872   4.517   3.904 -0.0789 -0.2125  0.1243
 2035SOL    HW1 7556   6.791   4.499   3.951 -2.9674 -0.1015 -4.2378
 2035SOL    HW2 7557   6.890   4.609   3.922 -0.3464 -0.4658  1.8655
 2036SOL     OW 7558   6.241   0.815   9.129  0.5386  0.4440  0.0473
 2036SOL    HW1 7559   6.249   0.888   9.190  1.2612 -0.1512  0.6813
 2036SOL    HW2 7560   6.146   0.804   9.118  0.4020  0.7709  0.8065
 2037SOL     OW 7561   7.830   8.022   1.924  0.0244 -0.4394  0.1725
 2037SOL    HW1 7562   7.741   8.008   1.954 -0.4428 -1.3406 -1.4894
 2037SOL    HW2 7563   7.876   7.940   1.943  0.8333  0.3695  1.9635
 2038SOL     OW 7564   5.986   2.949   2.132  0.7447 -0.4720 -0.4448
 2038SOL    HW1 7565   6.045   2.968   2.205 -0.1666 -0.1001  0.2096
 2038SOL    HW2 7566   6.003   2.857   2.111 -0.2954 -1.1815  1.5168
 2039SOL     OW 7567   8.677   6.973   7.003 -0.1179  0.3980  0.1735
 2039SOL    HW1 7568   8.772   6.970   7.016  0.3512  0.9835 -2.4007
 2039SOL    HW2 7569   8.654   7.065   7.016 -0.4943  0.1377  1.4854
 2040SOL     OW 7570   6.245   4.892   5.987  0.3537 -0.1240 -0.1905
 2040SOL    HW1 7571   6.289   4.809   5.967  1.0784  0.0603  0.5756
 2040SOL    HW2 7572   6.252   4.900   6.082  0.4618  0.9046 -0.2753
 2041SOL     OW 7573   4.534   1.456   8.862 -0.0750 -0.2104 -0.2919
 2041SOL    HW1 7574   4.575   1.526   8.811 -1.4116 -0.0237 -1.1764
 2041SOL    HW2 7575   4.479   1.409   8.799  0.0037 -1.4204  0.5090
 2042SOL     OW 7576   3.770   0.689   8.597  0.1651  0.2947 -0.6743
 2042SOL    HW1 7577   3.712   0.654   8.664 -0.6588  0.1087 -1.4689
 2042SOL    HW2 7578   3.711   0.733   8.535  0.7213 -1.0765 -2.2259
 2043SOL     OW 7579   8.943   1.372   0.563  0.2490  0.7019 -0.0503
 2043SOL    HW1 7580   8.960   1.445   0.503  0.7393  1.0639  0.5197
 2043SOL    HW2 7581   8.850   1.353   0.552  0.2064  1.1496 -0.4967
 2044SOL     OW 7582   3.496   6.623   5.227 -0.8016  0.1536 -0.1839
 2044SOL    HW1 7583   3.459   6.625   5.315 -2.4125 -0.8356 -0.7920
 2044SOL    HW2 7584   3.565   6.689   5.229 -0.3805 -0.2580  1.9809
 2045SOL     OW 7585   8.428   1.326   3.740 -0.1808 -0.0238  0.0401
 2045SOL    HW1 7586   8.409   1.237   3.769 -2.7015  0.9096  1.6425
 2045SOL    HW2 7587   8.368   1.340   3.667 -0.8866  0.8012  0.7558
 2046SOL     OW 7588   9.230   1.282   1.741 -0.3716  0.0072  0.6104
 2046SOL    HW1 7589   9.193   1.309   1.825 -1.0555  0.5519  0.1369
 2046SOL    HW2 7590   9.271   1.361   1.706  2.0907 -0.7546  1.5281
 2047SOL     OW 7591   1.131   0.332   5.808 -0.0763 -0.0883 -0.3787
 2047SOL    HW1 7592   1.138   0.366   5.897  2.4880  1.4643 -1.0677
 2047SOL    HW2 7593   1.047   0.365   5.775  0.7000  2.6573  0.2111
 2048SOL     OW 7594   1.607   2.477   8.437 -0.2973  0.4267  0.0426
 2048SOL    HW1 7595   1.569   2.390   8.428  0.0065  0.0529  1.8414
 2048SOL    HW2 7596   1.697   2.468   8.405  0.3743 -0.5019  1.9697
 2049SOL     OW 7597   0.715   5.845   2.162 -0.7959  0.0365 -0.0035
 2049SOL    HW1 7598   0.623   5.836   2.138 -0.6225  0.2046 -0.7522
 2049SOL    HW2 7599   0.743   5.756   2.182 -1.0517 -0.0510 -0.0240
 2050SOL     OW 7600   5.033   2.112   7.324 -0.5483  0.1899 -0.1836
 2050SOL    HW1 7601   4.960   2.068   7.368  0.5230 -0.7964  0.6606
 2050SOL    HW2 7602   5.000   2.132   7.237 -2.2171  0.8224  0.5588
 2051SOL     OW 7603   3.758   6.503   2.453  0.4534  0.2488 -0.3683
 2051SOL    HW1 7604   3.742   6.410   2.443  0.0825  0.3005 -0.2488
 2051SOL    HW2 7605   3.835   6.520   2.398 -0.0560  0.0566 -1.1543
 2052SOL     OW 7606   8.132   6.449   1.000  0.5992 -0.3276  0.4749
 2052SOL    HW1 7607   8.105   6.480   0.913 -0.2204 -0.3675  0.7054
 2052SOL    HW2 7608   8.149   6.356   0.988  0.3483 -0.3640  0.3802
 2053SOL     OW 7609   3.882   1.722   3.158 -0.5482  0.0370 -0.5046
 2053SOL    HW1 7610   3.956   1.665   3.177  0.5795  1.3339 -0.8006
 2053SOL    HW2 7611   3.872   1.775   3.237  0.3732  1.4330 -1.2661
 2054SOL     OW 7612   5.872   6.314   5.553 -0.3027  0.0629 -0.2813
 2054SOL    HW1 7613   5.846   6.277   5.469 -1.0804  0.7548 -0.3554
 2054SOL    HW2 7614   5.791   6.314   5.605  0.0975 -0.0441  0.3527
 2055SOL     OW 7615   2.412   5.187   2.952  0.3438  0.2617  0.5161
 2055SOL    HW1 7616   2.491   5.241   2.960 -0.1762  2.0208 -3.5564
 2055SOL    HW2 7617   2.353   5.220   3.020  2.3590  0.1242  2.4640
 2056SOL     OW 7618   7.566   2.874   4.862 -0.1572  0.6663 -0.2703
 2056SOL    HW1 7619   7.639   2.933   4.841 -0.7942  1.3344 -0.6387
 2056SOL    HW2 7620   7.488   2.921   4.833 -0.8957  0.6608  1.5868
 2057SOL     OW 7621   5.199   6.685   9.095 -0.2845  0.2514 -0.3475
 2057SOL    HW1 7622   5.289   6.669   9.067  0.1716  0.9469  0.6583
 2057SOL    HW2 7623   5.156   6.721   9.017  0.4773  0.5174 -0.6526
 2058SOL     OW 7624   1.805   6.789   1.750  0.2455  0.2848  0.3360
 2058SOL    HW1 7625   1.855   6.847   1.692  0.9414 -0.6260 -0.0027
 2058SOL    HW2 7626   1.738   6.750   1.693  0.2132  0.2424  0.4034
 2059SOL     OW 7627   3.075   4.477   3.405 -0.1986  0.4134  0.0634
 2059SOL    HW1 7628   3.137   4.433   3.346 -0.0578  0.2151  0.3554
 2059SOL    HW2 7629   3.021   4.530   3.347  0.9967  1.5105 -0.0927
 2060SOL     OW 7630   2.630   6.239   5.901 -0.3741 -0.4339  0.0640
 2060SOL    HW1 7631   2.701   6.178   5.880  0.4480 -0.1195  1.7741
 2060SOL    HW2 7632   2.562   6.184   5.941 -0.8174 -0.6259 -0.9269
 2061SOL     OW 7633   0.756   3.327   2.115 -0.0794 -0.0882 -0.4805
 2061SOL    HW1 7634   0.735   3.259   2.051 -1.7711 -0.1789  0.1198
 2061SOL    HW2 7635   0.785   3.279   2.192  0.5064 -0.0369 -0.6630
 2062SOL     OW 7636   0.981   1.408   8.542  0.5626 -0.2350  0.2783
 2062SOL    HW1 7637   0.986   1.501   8.522  1.5107 -0.2847  0.2494
 2062SOL    HW2 7638   1.071   1.377   8.534 -0.0154 -1.6220 -1.9809
 2063SOL     OW 7639   5.220   3.226   5.217 -0.0245  0.4175 -0.1479
 2063SOL    HW1 7640   5.255   3.307   5.254 -1.4547  1.0346 -0.1014
 2063SOL    HW2 7641   5.129   3.223   5.246 -0.2656 -0.7193 -0.9541
 2064SOL     OW 7642   0.975   5.005   8.257 -0.0717  0.0426  0.1136
 2064SOL    HW1 7643   1.052   4.996   8.201  0.9705  0.2287  1.4395
 2064SOL    HW2 7644   0.997   4.953   8.335 -0.8143  0.9900  0.9754
 2065SOL     OW 7645   2.810   3.891   1.528 -0.0295  0.1685  0.0824
 2065SOL    HW1 7646   2.767   3.873   1.612 -0.0713  2.5852  0.6645
 2065SOL    HW2 7647   2.900   3.915   1.552  0.0664  0.5156 -0.6028
 2066SOL     OW 7648   2.977   2.880   1.096  0.3075 -0.1762 -0.0596
 2066SOL    HW1 7649   2.978   2.969   1.130  1.7300  0.1227 -0.8189
 2066SOL    HW2 7650   3.065   2.846   1.113 -0.4350 -1.7400  0.9409
 2067SOL     OW 7651   1.135   0.549   0.327  0.4212 -0.2011  0.0627
 2067SOL    HW1 7652   1.069   0.534   0.260  1.0436 -2.2419 -0.1563
 2067SOL    HW2 7653   1.178   0.631   0.302 -1.6567  0.9113 -0.0495
 2068SOL     OW 7654   2.028   0.874   8.268 -0.3657  0.3060  0.2193
 2068SOL    HW1 7655   1.978   0.942   8.224 -2.4347 -1.8332 -1.0012
 2068SOL    HW2 7656   1.964   0.829   8.323  0.4198 -1.8157 -0.4775
 2069SOL     OW 7657   7.912   0.495   2.522 -0.6077  0.5186  0.6985
 2069SOL    HW1 7658   7.871   0.580   2.510 -0.7495  0.1530 -2.2280
 2069SOL    HW2 7659   8.004   0.515   2.542  0.1449  1.5367 -2.9824
 2070SOL     OW 7660   5.276   8.026   6.118  0.2357 -0.2397  0.3273
 2070SOL    HW1 7661   5.254   8.032   6.025 -1.7438  2.5281  0.8495
 2070SOL    HW2 7662   5.351   8.084   6.129  0.4381 -0.5277  0.4735
 2071SOL     OW 7663   1.363   3.803   0.414  0.2982  0.3397  0.1871
 2071SOL    HW1 7664   1.451   3.775   0.392  0.3918  0.3982  0.4898
 2071SOL    HW2 7665   1.373   3.854   0.494 -0.0823 -0.1387  0.5451
 2072SOL     OW 7666   8.041   3.439   7.571  0.2096 -0.0781 -0.3994
 2072SOL    HW1 7667   8.093   3.518   7.557  0.8840 -0.4141  0.1241
 2072SOL    HW2 7668   8.047   3.391   7.489 -0.3377  0.4756 -0.7787
 2073SOL     OW 7669   4.370   5.350   1.603  0.1412 -0.2913  0.0860
 2073SOL    HW1 7670   4.298   5.333   1.664 -0.5732 -2.5067 -1.2525
 2073SOL    HW2 7671   4.447   5.356   1.658 -0.5965 -1.4519  1.3160
 2074SOL     OW 7672   7.481   1.018   7.873  0.0227 -0.0740  0.0793
 2074SOL    HW1 7673   7.524   1.056   7.949  0.5824  0.9913 -0.7491
 2074SOL    HW2 7674   7.388   1.031   7.889  0.1488  0.3341  0.4765
 2075SOL     OW 7675   4.223   5.192   2.851 -0.1620 -0.1269  0.2469
 2075SOL    HW1 7676   4.295   5.253   2.836 -1.3868  1.1867 -0.5730
 2075SOL    HW2 7677   4.171   5.233   2.920 -1.1261 -0.1049 -0.4718
 2076SOL     OW 7678   2.083   1.602   2.347  0.3296  0.3752  0.5535
 2076SOL    HW1 7679   2.141   1.528   2.360 -0.8620 -0.6843 -0.0236
 2076SOL    HW2 7680   2.056   1.597   2.255 -1.1699  0.4540  0.9618
 2077SOL     OW 7681   5.477   0.496   6.931  0.0440 -0.0135 -0.2669
 2077SOL    HW1 7682   5.546   0.548   6.888 -0.0477  0.6058  0.3188
 2077SOL    HW2 7683   5.473   0.531   7.020  0.4874 -1.5323  0.3857
 2078SOL     OW 7684   8.418   0.141   5.008 -0.4671 -0.4667  0.0756
 2078SOL    HW1 7685   8.458   0.133   5.095 -2.0116 -0.5163  0.8020
 2078SOL    HW2 7686   8.407   0.050   4.980  0.0586 -0.4500 -0.1930
 2079SOL     OW 7687   3.743   7.346   5.198 -0.0593  0.1419 -0.2595
 2079SOL    HW1 7688   3.776   7.436   5.205 -0.8887  0.4041  0.3193
 2079SOL    HW2 7689   3.652   7.355   5.170 -0.1790 -0.5176 -0.1013
 2080SOL     OW 7690   3.334   7.537   6.634  0.0696 -0.1047  0.2604
 2080SOL    HW1 7691   3.403   7.601   6.643 -1.5530  1.8057 -0.2137
 2080SOL    HW2 7692   3.327   7.496   6.721  1.5459 -0.1084  0.3901
 2081SOL     OW 7693   2.986   6.787   5.571  0.0849 -0.0326 -0.0827
 2081SOL    HW1 7694   3.033   6.728   5.631  0.1034  0.1121  0.0460
 2081SOL    HW2 7695   3.055   6.844   5.536 -0.0707  0.5359  0.5203
 2082SOL     OW 7696   1.712   5.008   2.954 -0.6092 -0.2809  0.6128
 2082SOL    HW1 7697   1.754   5.085   2.993 -0.0065  0.6679 -1.7321
 2082SOL    HW2 7698   1.640   5.044   2.903 -0.4366 -1.2917 -0.3648
 2083SOL     OW 7699   5.594   2.888   1.341 -0.3241 -0.2313  0.0445
 2083SOL    HW1 7700   5.655   2.835   1.394 -0.3131 -0.5812 -0.3163
 2083SOL    HW2 7701   5.548   2.824   1.287 -0.8651  0.0552  0.1600
 2084SOL     OW 7702   0.044   4.475   0.213 -0.3370 -0.6024 -0.2511
 2084SOL    HW1 7703  -0.028   4.517   0.165 -0.1364  1.1623  0.9245
 2084SOL    HW2 7704   0.097   4.433   0.145 -1.3267 -0.1472 -1.3285
 2085SOL     OW 7705   5.856   9.010   4.736 -0.4133  0.3304 -0.1599
 2085SOL    HW1 7706   5.882   8.990   4.647 -0.8821  2.3384 -0.7987
 2085SOL    HW2 7707   5.798   9.086   4.728  0.4384  1.2793  1.9286
 2086SOL     OW 7708   7.896   6.538   1.989  0.2244 -0.2069 -0.1574
 2086SOL    HW1 7709   7.961   6.489   2.039 -1.0054  1.2173  3.0559
 2086SOL    HW2 7710   7.944   6.614   1.954  0.8136 -0.4942  0.0250
 2087SOL     OW 7711   4.417   1.748   4.729 -0.0692  0.3307 -0.0858
 2087SOL    HW1 7712   4.423   1.810   4.801 -1.6752 -1.5909  1.8793
 2087SOL    HW2 7713   4.328   1.760   4.694 -0.9568 -1.6859  1.2768
 2088SOL     OW 7714   7.357   5.797   2.521  0.2787 -0.5481  0.1658
 2088SOL    HW1 7715   7.344   5.843   2.603 -1.1583  0.0859 -0.3781
 2088SOL    HW2 7716   7.402   5.717   2.545 -0.5803 -0.6263  1.6527
 2089SOL     OW 7717   0.716   4.455   5.864 -0.2883 -0.0590 -0.6695
 2089SOL    HW1 7718   0.671   4.539   5.876 -1.5823 -0.8944  0.8188
 2089SOL    HW2 7719   0.646   4.390   5.870  0.7835 -1.2882 -1.0136
 2090SOL     OW 7720   0.250   1.112   8.831 -0.4888  0.9773  0.0360
 2090SOL    HW1 7721   0.326   1.157   8.794  0.4777  0.0838  0.8742
 2090SOL    HW2 7722   0.270   1.104   8.924 -0.2720 -1.7707 -0.1529
 2091SOL     OW 7723   6.028   3.107   1.878  0.2878  0.0271 -0.9406
 2091SOL    HW1 7724   6.119   3.105   1.910  0.1810 -1.1263 -0.6431
 2091SOL    HW2 7725   6.032   3.066   1.792 -0.1763 -1.6800 -0.2027
 2092SOL     OW 7726   8.171   7.410   7.326 -0.4077 -0.0775 -0.2652
 2092SOL    HW1 7727   8.212   7.410   7.239  1.7823  0.5063  0.6876
 2092SOL    HW2 7728   8.195   7.326   7.364 -0.8832 -0.1027 -0.0116
 2093SOL     OW 7729   0.940   5.575   5.459 -0.1557 -0.7029 -0.1416
 2093SOL    HW1 7730   0.920   5.664   5.429 -0.5440 -1.3271 -1.8028
 2093SOL    HW2 7731   0.938   5.582   5.555 -0.7256  0.9526 -0.2388
 2094SOL     OW 7732   2.295   1.424   0.251  0.0424 -0.4154 -0.2659
 2094SOL    HW1 7733   2.357   1.357   0.224  0.7360 -0.3670  1.1280
 2094SOL    HW2 7734   2.279   1.407   0.344 -0.9292  0.4435 -0.2481
 2095SOL     OW 7735   5.390   6.944   3.684 -0.2298 -0.4266 -0.2852
 2095SOL    HW1 7736   5.464   7.000   3.708  0.2570 -0.7316 -1.0441
 2095SOL    HW2 7737   5.428   6.878   3.626 -1.5459  1.0437 -3.0172
 2096SOL     OW 7738   7.339   4.065   6.425  0.6164  0.5356 -0.0182
 2096SOL    HW1 7739   7.378   3.983   6.456 -0.3449  0.3424  0.7208
 2096SOL    HW2 7740   7.323   4.050   6.332  0.1606 -0.2530  0.1728
 2097SOL     OW 7741   4.891   6.332   6.344 -0.2973 -0.2230 -0.1741
 2097SOL    HW1 7742   4.896   6.237   6.337 -0.7275 -0.2442 -0.2455
 2097SOL    HW2 7743   4.951   6.365   6.277  0.5985 -0.4403  0.5033
 2098SOL     OW 7744   7.135   4.535   0.475 -0.5630 -0.2392 -0.0336
 2098SOL    HW1 7745   7.230   4.537   0.459 -0.3639  1.3169  1.1380
 2098SOL    HW2 7746   7.126   4.496   0.562 -0.9959 -0.2684 -0.0897
 2099SOL     OW 7747   2.420   8.053   6.601 -0.2438 -0.5829  0.7649
 2099SOL    HW1 7748   2.506   8.023   6.630  0.2943 -0.7719 -0.9187
 2099SOL    HW2 7749   2.426   8.149   6.603  0.1053 -0.5937  0.4468
 2100SOL     OW 7750   1.160   3.632   4.251  0.0119  0.0707 -0.2331
 2100SOL    HW1 7751   1.077   3.587   4.237 -0.3363  1.1448 -1.9757
 2100SOL    HW2 7752   1.217   3.566   4.289 -1.5527 -0.7575  0.7692
 2101SOL     OW 7753   6.238   3.851   1.828  0.0972  0.1781  0.2628
 2101SOL    HW1 7754   6.160   3.802   1.854  0.5679 -0.1017  1.1798
 2101SOL    HW2 7755   6.237   3.929   1.883  0.2984  0.3313  0.0519
 2102SOL     OW 7756   6.445   8.830   0.822  0.0838  0.3825 -0.0198
 2102SOL    HW1 7757   6.427   8.920   0.794  0.2388  0.4855  0.2178
 2102SOL    HW2 7758   6.536   8.831   0.851  0.8938 -0.3779 -2.2485
 2103SOL     OW 7759   3.003   6.942   4.725 -0.2151 -0.0435  0.5083
 2103SOL    HW1 7760   2.917   6.957   4.685 -0.1341  0.3849  0.4845
 2103SOL    HW2 7761   2.986   6.931   4.818 -0.1637  1.6277  0.7586
 2104SOL     OW 7762   3.030   1.845   5.479 -0.5079  0.1605 -0.1069
 2104SOL    HW1 7763   3.033   1.753   5.504  0.2928  0.1085 -0.3982
 2104SOL    HW2 7764   2.948   1.854   5.430 -0.6680 -0.3574  0.0634
 2105SOL     OW 7765   4.978   9.208   8.120 -0.1940  0.3859  0.5658
 2105SOL    HW1 7766   4.895   9.164   8.101  0.9823 -1.4433 -0.6997
 2105SOL    HW2 7767   4.983   9.278   8.055 -0.8258  0.6136  0.7612
 2106SOL     OW 7768   4.885   1.234   1.701 -0.4089 -0.4588 -0.4344
 2106SOL    HW1 7769   4.961   1.242   1.644  0.1879  0.0102  0.4187
 2106SOL    HW2 7770   4.851   1.146   1.683  1.5751 -1.5049  0.7070
 2107SOL     OW 7771   7.194   0.828   0.808 -0.7063  0.2086 -0.4813
 2107SOL    HW1 7772   7.105   0.859   0.791 -0.3179  1.4186 -0.3919
 2107SOL    HW2 7773   7.215   0.864   0.894 -0.0247  0.1722 -0.6332
 2108SOL     OW 7774   2.571   4.805   2.892 -0.0811  0.2585  0.4759
 2108SOL    HW1 7775   2.477   4.821   2.888 -0.0003  0.7141  0.2605
 2108SOL    HW2 7776   2.611   4.889   2.868  0.3654 -0.4323 -1.4616
 2109SOL     OW 7777   3.850   1.652   5.056  0.0227  0.1181  0.0871
 2109SOL    HW1 7778   3.770   1.604   5.077 -0.9587  1.6752  0.1083
 2109SOL    HW2 7779   3.866   1.707   5.132 -0.1185  1.3783 -0.7658
 2110SOL     OW 7780   3.911   0.705   0.750  0.3431  0.1135  0.2098
 2110SOL    HW1 7781   3.817   0.701   0.729  0.4588  0.3768 -0.3889
 2110SOL    HW2 7782   3.919   0.780   0.809 -0.0433 -0.8590  1.5462
 2111SOL     OW 7783   2.618   4.311   8.677  0.2794 -0.2876 -0.2797
 2111SOL    HW1 7784   2.575   4.355   8.604  2.3569 -0.9228 -1.9849
 2111SOL    HW2 7785   2.686   4.373   8.705 -0.5347 -0.0213  1.1959
 2112SOL     OW 7786   3.959   5.075   1.700  0.2373  0.1158  0.2574
 2112SOL    HW1 7787   4.011   5.155   1.712  0.3432 -0.0599  1.0372
 2112SOL    HW2 7788   4.024   5.008   1.677  0.0732  0.3797 -1.0694
 2113SOL     OW 7789   5.453   7.715   0.167  0.3665 -0.2983  0.2264
 2113SOL    HW1 7790   5.478   7.624   0.154  0.6384 -0.0669 -1.0069
 2113SOL    HW2 7791   5.532   7.757   0.199 -0.4861 -1.0106  3.7017
 2114SOL     OW 7792   8.373   5.402   7.181  0.2460  0.3333 -0.1757
 2114SOL    HW1 7793   8.404   5.488   7.155 -0.5423  0.2123 -1.5972
 2114SOL    HW2 7794   8.435   5.341   7.142 -0.2165  0.1955 -0.7032
 2115SOL     OW 7795   4.202   6.096   2.950  0.2424  0.4247  1.2614
 2115SOL    HW1 7796   4.291   6.128   2.963 -0.4028  3.0047  0.0538
 2115SOL    HW2 7797   4.159   6.165   2.899 -2.8382 -0.1151  2.8923
 2116SOL     OW 7798   5.957   2.810   3.098  0.1851  0.2629 -0.3746
 2116SOL    HW1 7799   5.918   2.851   3.175  1.1145  0.3671  0.0457
 2116SOL    HW2 7800   6.011   2.739   3.133 -0.2775 -0.4196 -1.0055
 2117SOL     OW 7801   2.001   7.642   1.606  0.0143 -0.2021 -0.1052
 2117SOL    HW1 7802   2.091   7.642   1.638 -0.0082 -0.2358 -0.0421
 2117SOL    HW2 7803   1.948   7.616   1.682 -0.1354  0.6669  0.1026
 2118SOL     OW 7804   3.636   7.451   6.770  0.2696  0.1321 -0.1372
 2118SOL    HW1 7805   3.543   7.434   6.779  0.2015  0.9251  0.7985
 2118SOL    HW2 7806   3.678   7.368   6.791 -0.1256  0.5101  2.5098
 2119SOL     OW 7807   6.667   6.492   6.171 -0.0794  0.4405 -0.3700
 2119SOL    HW1 7808   6.714   6.533   6.098  2.4269 -1.4225  0.0776
 2119SOL    HW2 7809   6.624   6.565   6.216  0.1292  1.8961 -2.3872
 2120SOL     OW 7810   3.614   2.890   8.107 -0.4719  0.4399  0.1229
 2120SOL    HW1 7811   3.689   2.832   8.092 -1.5289 -1.9200  2.9984
 2120SOL    HW2 7812   3.652   2.966   8.151  0.5167  0.4321 -0.6673
 2121SOL     OW 7813   3.130   5.569   8.346 -0.3966  1.1374 -0.6303
 2121SOL    HW1 7814   3.046   5.576   8.392 -0.2502 -0.6361 -0.0174
 2121SOL    HW2 7815   3.190   5.534   8.412  0.4195  0.8304 -1.5183
 2122SOL     OW 7816   8.482   2.437   4.320 -0.6509  0.0818 -0.3285
 2122SOL    HW1 7817   8.438   2.435   4.235 -2.5555  0.6543  0.5735
 2122SOL    HW2 7818   8.424   2.387   4.378 -0.9819  2.1556  1.2587
 2123SOL     OW 7819   1.325   0.138   6.274 -0.3181  0.0827 -0.8666
 2123SOL    HW1 7820   1.270   0.089   6.212 -1.3890 -0.5027  0.5044
 2123SOL    HW2 7821   1.411   0.138   6.233 -0.7613 -1.1597 -1.8911
 2124SOL     OW 7822   2.716   8.428   0.054  0.1773 -0.3868 -0.8769
 2124SOL    HW1 7823   2.696   8.437   0.147  0.1974 -0.8949 -0.8230
 2124SOL    HW2 7824   2.797   8.476   0.042 -0.7501  1.2276 -0.9857
 2125SOL     OW 7825   7.619   3.281   6.630  0.1874  0.3841 -0.2227
 2125SOL    HW1 7826   7.585   3.367   6.605 -1.3331 -0.5758 -1.7150
 2125SOL    HW2 7827   7.611   3.228   6.550 -0.7808 -1.6710  1.1393
 2126SOL     OW 7828   1.480   3.069   1.103 -0.2386 -0.1898 -0.2624
 2126SOL    HW1 7829   1.514   2.979   1.108 -0.9812 -0.4638  0.0460
 2126SOL    HW2 7830   1.385   3.059   1.114 -0.4111  0.5676 -0.9364
 2127SOL     OW 7831   2.857   8.973   1.856 -0.3288 -0.2823 -0.2378
 2127SOL    HW1 7832   2.900   9.056   1.834  1.0748 -1.2900 -1.5197
 2127SOL    HW2 7833   2.884   8.913   1.786 -2.2615 -1.5198  0.0241
 2128SOL     OW 7834   0.284   1.654   5.283  0.3369  0.1371 -0.2085
 2128SOL    HW1 7835   0.334   1.736   5.283  0.1413  0.2560  0.1223
 2128SOL    HW2 7836   0.336   1.595   5.337  0.7365 -0.1180 -0.8605
 2129SOL     OW 7837   8.227   7.095   6.423 -0.1531  0.7357 -0.1110
 2129SOL    HW1 7838   8.134   7.119   6.420 -0.3863 -0.2057 -2.2040
 2129SOL    HW2 7839   8.255   7.095   6.332  0.7265 -3.2966 -0.0544
 2130SOL     OW 7840   4.902   9.233   2.309  0.6438 -0.1582 -0.0892
 2130SOL    HW1 7841   4.880   9.279   2.228 -0.7356 -0.3792  0.1331
 2130SOL    HW2 7842   4.942   9.299   2.365  0.5634  0.2713 -0.5377
 2131SOL     OW 7843   7.417   0.693   8.260 -0.6089 -0.7263 -0.4210
 2131SOL    HW1 7844   7.432   0.786   8.247  1.8365 -0.7815  1.2257
 2131SOL    HW2 7845   7.322   0.683   8.260 -0.9206  1.5211 -1.9116
 2132SOL     OW 7846   2.879   5.426   3.135  0.2689 -0.1779  0.3302
 2132SOL    HW1 7847   2.880   5.466   3.222  2.4819  0.5812  0.0337
 2132SOL    HW2 7848   2.972   5.422   3.110 -0.1839 -2.0039 -1.2765
 2133SOL     OW 7849   8.849   6.566   7.069 -0.0849 -0.3925  0.3361
 2133SOL    HW1 7850   8.836   6.607   6.984  0.1861 -0.2647  0.3533
 2133SOL    HW2 7851   8.911   6.495   7.052  1.5365  0.8640  0.7556
 2134SOL     OW 7852   3.371   4.658   8.096 -0.3662 -0.0749 -0.0318
 2134SOL    HW1 7853   3.313   4.588   8.129  2.0152 -1.8414  0.6652
 2134SOL    HW2 7854   3.312   4.717   8.049 -2.4594 -2.8591 -1.2042
 2135SOL     OW 7855   3.208   7.163   3.028  0.2469  0.2913  0.1316
 2135SOL    HW1 7856   3.280   7.130   2.974  0.9936 -0.8517  1.7648
 2135SOL    HW2 7857   3.197   7.097   3.096 -2.2120  0.5572  0.0732
 2136SOL     OW 7858   5.548   3.837   6.387  0.3283 -0.3457 -0.0516
 2136SOL    HW1 7859   5.579   3.862   6.474  2.3676 -1.4953 -0.3769
 2136SOL    HW2 7860   5.615   3.872   6.327 -0.2735 -0.8265 -1.0288
 2137SOL     OW 7861   4.496   1.407   5.402 -0.2570 -0.1309  0.0842
 2137SOL    HW1 7862   4.558   1.417   5.330 -0.6215 -0.0410 -0.2166
 2137SOL    HW2 7863   4.432   1.477   5.390 -0.2314 -0.0186  0.5840
 2138SOL     OW 7864   7.078   6.613   9.156 -0.2190 -0.1853  0.0578
 2138SOL    HW1 7865   7.056   6.524   9.127 -1.7354  1.0809 -3.2660
 2138SOL    HW2 7866   6.995   6.650   9.185 -0.1700  0.9179 -1.1228
 2139SOL     OW 7867   1.610   2.786   1.443  0.0628  0.0257  0.0023
 2139SOL    HW1 7868   1.538   2.795   1.505 -0.3330  0.5107 -0.5190
 2139SOL    HW2 7869   1.573   2.736   1.371 -0.6153  2.5997 -1.5512
 2140SOL     OW 7870   5.728   0.605   6.783 -0.4657 -0.4059  0.5853
 2140SOL    HW1 7871   5.788   0.549   6.832  1.5031  0.1269 -1.1029
 2140SOL    HW2 7872   5.777   0.685   6.767 -2.1138  0.5845  0.2344
 2141SOL     OW 7873   5.576   2.321   5.357  0.2419  0.3502 -0.6040
 2141SOL    HW1 7874   5.602   2.308   5.266  0.3624 -0.3277 -0.4795
 2141SOL    HW2 7875   5.568   2.232   5.393 -0.4714  0.5860 -0.1427
 2142SOL     OW 7876   6.671   1.881   6.393 -0.1441 -0.5721 -0.7003
 2142SOL    HW1 7877   6.639   1.967   6.419 -1.6007 -1.1397 -0.5435
 2142SOL    HW2 7878   6.660   1.826   6.471 -2.2538 -1.6711 -1.6927
 2143SOL     OW 7879   7.324   7.505   4.612  0.1492 -0.3793  0.1645
 2143SOL    HW1 7880   7.418   7.517   4.621  0.1386 -1.2881  1.9077
 2143SOL    HW2 7881   7.296   7.469   4.696 -1.4104 -2.2512 -1.0737
 2144SOL     OW 7882   0.926   9.139   4.423  0.2366 -0.2658 -0.3558
 2144SOL    HW1 7883   0.934   9.177   4.336  1.4181 -2.6529 -1.3907
 2144SOL    HW2 7884   0.833   9.118   4.431  0.0870  0.1258 -0.9703
 2145SOL     OW 7885   2.766   8.712   0.737 -0.3951  0.2138 -0.0002
 2145SOL    HW1 7886   2.708   8.661   0.681 -0.4372  0.2605  0.0009
 2145SOL    HW2 7887   2.814   8.647   0.788 -1.4723  0.1974  1.0472
 2146SOL     OW 7888   5.637   5.655   5.309  0.0336  0.3212  0.3273
 2146SOL    HW1 7889   5.582   5.578   5.298 -0.3413  0.6983 -0.5040
 2146SOL    HW2 7890   5.723   5.620   5.333  0.4659 -0.5207 -2.1387
 2147SOL     OW 7891   5.383   7.944   6.583  0.1922  0.0974 -0.1559
 2147SOL    HW1 7892   5.467   7.976   6.551 -0.9266  1.2173 -2.1218
 2147SOL    HW2 7893   5.371   7.861   6.537 -0.2719  0.4800 -0.7304
 2148SOL     OW 7894   8.813   3.192   1.541  0.1292  0.5891  0.2934
 2148SOL    HW1 7895   8.737   3.186   1.598 -1.6875 -2.1599 -2.0819
 2148SOL    HW2 7896   8.864   3.113   1.561  0.6261  0.7371 -0.3617
 2149SOL     OW 7897   0.246   0.109   5.614  0.1171 -0.6365  0.6455
 2149SOL    HW1 7898   0.332   0.148   5.597 -0.0145  0.0399  1.4578
 2149SOL    HW2 7899   0.251   0.022   5.575  1.3315 -0.7811  1.0951
 2150SOL     OW 7900   8.520   6.958   7.534 -0.1824 -0.2796  0.6645
 2150SOL    HW1 7901   8.449   6.895   7.548  0.1206 -0.4263  1.5986
 2150SOL    HW2 7902   8.489   7.039   7.574 -0.3889  0.0552 -0.1528
 2151SOL     OW 7903   4.519   0.783   5.844 -0.5725  0.8182  0.5215
 2151SOL    HW1 7904   4.548   0.724   5.914 -1.7570  1.2018  1.3699
 2151SOL    HW2 7905   4.424   0.779   5.848 -0.6560  1.3064 -0.6993
 2152SOL     OW 7906   5.638   6.858   6.933 -0.4431 -0.2304  0.0030
 2152SOL    HW1 7907   5.615   6.829   6.845 -0.1433 -0.4853  0.0075
 2152SOL    HW2 7908   5.722   6.903   6.923 -0.7841  0.4280  0.0356
 2153SOL     OW 7909   7.881   8.709   0.748 -0.1012  0.1968 -0.3022
 2153SOL    HW1 7910   7.818   8.716   0.677 -0.8642 -0.7845  0.2513
 2153SOL    HW2 7911   7.960   8.672   0.708  0.0725  1.2562 -0.9611
 2154SOL     OW 7912   7.153   1.557   2.668  0.2853 -0.0834  0.2933
 2154SOL    HW1 7913   7.208   1.568   2.746 -0.6634  0.7669  0.8705
 2154SOL    HW2 7914   7.078   1.615   2.683  0.1639  0.2154 -1.3422
 2155SOL     OW 7915   1.799   6.905   7.531  0.7342  0.5079 -0.2562
 2155SOL    HW1 7916   1.775   6.814   7.514  0.6813  0.6936 -1.2427
 2155SOL    HW2 7917   1.894   6.903   7.543  0.7597  0.3529 -0.4917
 2156SOL     OW 7918   1.220   8.524   0.910 -0.5177  0.1561  0.8389
 2156SOL    HW1 7919   1.289   8.538   0.846 -0.8189 -0.0380  0.4664
 2156SOL    HW2 7920   1.157   8.594   0.893 -0.8752 -0.2325  0.5414
 2157SOL     OW 7921   1.815   6.004   5.945 -0.3317 -0.1507 -0.0616
 2157SOL    HW1 7922   1.775   6.089   5.964  2.2780  2.1194 -3.3972
 2157SOL    HW2 7923   1.903   6.011   5.982  0.1750 -1.0535 -1.0607
 2158SOL     OW 7924   6.213   4.096   7.830  0.2439 -0.0759  0.5385
 2158SOL    HW1 7925   6.167   4.104   7.747 -0.4595 -0.0038  0.9305
 2158SOL    HW2 7926   6.169   4.024   7.876 -0.1624  0.6646  1.3483
 2159SOL     OW 7927   2.866   4.483   6.701 -0.4096 -0.3362 -0.0554
 2159SOL    HW1 7928   2.824   4.405   6.736 -0.3033 -0.7825 -0.8933
 2159SOL    HW2 7929   2.950   4.489   6.747 -1.4664  0.7322  1.8546
 2160SOL     OW 7930   1.264   7.490   4.586 -0.5336  0.3695 -0.4765
 2160SOL    HW1 7931   1.321   7.458   4.516 -2.5427 -0.4153 -1.8752
 2160SOL    HW2 7932   1.206   7.416   4.605  0.2078  0.4093  2.3978
 2161SOL     OW 7933   8.083   2.629   7.163  0.6642  0.5458  0.1924
 2161SOL    HW1 7934   8.029   2.586   7.229  0.5237 -0.9555 -0.8539
 2161SOL    HW2 7935   8.071   2.723   7.180 -1.4721  0.2540  0.6123
 2162SOL     OW 7936   3.073   4.774   1.136 -0.4996  0.0939 -0.3197
 2162SOL    HW1 7937   3.138   4.709   1.108  0.5274  1.8476 -2.3124
 2162SOL    HW2 7938   2.997   4.759   1.080 -0.9688 -0.4965  0.4531
 2163SOL     OW 7939   5.414   1.450   7.315  0.3147  0.2783  0.1500
 2163SOL    HW1 7940   5.484   1.510   7.340 -0.3674  1.0950  0.1327
 2163SOL    HW2 7941   5.341   1.507   7.288 -0.8328 -0.5044  1.4426
 2164SOL     OW 7942   1.941   4.883   1.334 -0.8469  0.1165  0.4021
 2164SOL    HW1 7943   1.876   4.827   1.376 -1.0943 -0.0039 -0.1468
 2164SOL    HW2 7944   1.941   4.856   1.242  0.7766 -0.6807  0.5898
 2165SOL     OW 7945   7.050   0.503   6.215  0.1685 -0.2884 -0.3040
 2165SOL    HW1 7946   7.122   0.550   6.256 -0.7410 -0.0403  1.0803
 2165SOL    HW2 7947   7.070   0.504   6.122  1.9170 -0.1886  0.0389
 2166SOL     OW 7948   3.066   2.426   7.122 -0.0159  0.7000  0.1158
 2166SOL    HW1 7949   3.098   2.358   7.182  2.8176  0.2737 -1.6751
 2166SOL    HW2 7950   2.980   2.395   7.093  0.7025 -1.5815  0.2335
 2167SOL     OW 7951   2.608   1.524   4.786 -0.5260 -0.1665  0.0066
 2167SOL    HW1 7952   2.578   1.609   4.818  0.0762  0.0552 -0.0091
 2167SOL    HW2 7953   2.623   1.538   4.693  2.9671  0.7346  0.5757
 2168SOL     OW 7954   8.008   1.835   1.795  0.2093  0.2163  0.7985
 2168SOL    HW1 7955   8.065   1.803   1.725  0.2835 -0.3576  1.1135
 2168SOL    HW2 7956   8.020   1.772   1.866 -0.4827  0.3387  1.0299
 2169SOL     OW 7957   1.606   7.159   2.730 -0.4290 -0.3052 -1.0155
 2169SOL    HW1 7958   1.603   7.102   2.653 -0.2279 -1.1364 -0.4230
 2169SOL    HW2 7959   1.691   7.142   2.769  0.1212  1.2818 -1.4590
 2170SOL     OW 7960   9.238   5.608   2.030 -0.1673 -0.0200  0.0246
 2170SOL    HW1 7961   9.306   5.617   2.097  0.2428  0.4570 -0.4466
 2170SOL    HW2 7962   9.215   5.515   2.032 -1.8511  0.3577  2.4405
 2171SOL     OW 7963   6.877   7.248   0.328  0.4517 -0.2893 -0.0476
 2171SOL    HW1 7964   6.906   7.321   0.382  2.4945  0.9902 -2.6121
 2171SOL    HW2 7965   6.950   7.185   0.331  0.1930 -0.6246 -0.5504
 2172SOL     OW 7966   5.590   2.032   2.615  0.4382 -0.0031  0.6745
 2172SOL    HW1 7967   5.522   2.064   2.675 -1.3672 -0.0177 -1.2624
 2172SOL    HW2 7968   5.586   2.093   2.541  0.8680 -1.4179 -0.5359
 2173SOL     OW 7969   2.055   4.970   7.186  0.3204  0.2228 -0.4293
 2173SOL    HW1 7970   2.009   4.999   7.107 -0.1221  0.8837  0.0553
 2173SOL    HW2 7971   2.092   5.050   7.222  0.3252 -0.0396  0.1534
 2174SOL     OW 7972   7.099   7.983   6.080 -0.7485 -0.4330  0.8017
 2174SOL    HW1 7973   7.069   8.072   6.097 -0.3477  0.0248 -0.7136
 2174SOL    HW2 7974   7.191   7.993   6.057 -1.0653 -1.0254 -0.8674
 2175SOL     OW 7975   2.703   6.997   3.581  0.0976  0.0528 -0.2127
 2175SOL    HW1 7976   2.752   6.976   3.660 -1.0582  0.9831  0.8067
 2175SOL    HW2 7977   2.709   7.093   3.575  1.4918 -0.0966 -2.1790
 2176SOL     OW 7978   7.831   1.682   9.157  0.1639  0.0183 -0.8072
 2176SOL    HW1 7979   7.814   1.772   9.129  0.5478  0.8121  1.3236
 2176SOL    HW2 7980   7.774   1.669   9.233 -0.9673 -2.0909 -1.8944
 2177SOL     OW 7981   3.337   7.672   2.094 -0.4101  0.1521  0.2635
 2177SOL    HW1 7982   3.358   7.669   2.188  1.3984 -1.6041 -0.1305
 2177SOL    HW2 7983   3.298   7.587   2.075 -1.0465  0.6085 -0.5324
 2178SOL     OW 7984   9.050   1.600   6.692 -0.5155  0.0950 -0.1740
 2178SOL    HW1 7985   8.974   1.621   6.746 -0.2668  0.3527  0.0831
 2178SOL    HW2 7986   9.109   1.674   6.705  0.3052 -0.6762  0.6155
 2179SOL     OW 7987   8.402   7.529   2.033 -0.1900  0.1393 -0.2318
 2179SOL    HW1 7988   8.469   7.496   2.094 -0.9599  0.5151  0.8512
 2179SOL    HW2 7989   8.384   7.455   1.976  0.9305 -0.0617 -0.3523
 2180SOL     OW 7990   7.268   5.124   8.690  0.2377  0.0801 -0.6054
 2180SOL    HW1 7991   7.205   5.194   8.705 -1.6778 -1.8398  0.8999
 2180SOL    HW2 7992   7.298   5.099   8.777 -0.4814 -2.1111 -0.9279
 2181SOL     OW 7993   9.143   5.420   0.826  0.5369  0.0834 -0.0052
 2181SOL    HW1 7994   9.216   5.360   0.833  0.8256  0.6094  2.0625
 2181SOL    HW2 7995   9.179   5.506   0.849  0.5897  1.5660 -4.6370
 2182SOL     OW 7996   1.840   2.857   0.466  0.2042  0.0448  0.2549
 2182SOL    HW1 7997   1.897   2.919   0.420 -1.2067  1.0064 -0.2576
 2182SOL    HW2 7998   1.830   2.784   0.406  2.5251 -1.1211  1.1820
 2183SOL     OW 7999   0.057   2.185   6.692  0.5466 -0.6353 -0.0460
 2183SOL    HW1 8000  -0.038   2.198   6.698  0.4716 -0.5587 -1.1466
 2183SOL    HW2 8001   0.069   2.132   6.614  1.2217 -3.2090  1.6810
 2184SOL     OW 8002   6.106   6.123   4.017 -0.7829  0.7211 -0.2188
 2184SOL    HW1 8003   6.064   6.195   3.970 -3.4429 -0.5054  0.0414
 2184SOL    HW2 8004   6.096   6.145   4.109 -1.3118  0.2087 -0.1451
 2185SOL     OW 8005   0.660   6.535   8.142 -0.4741  0.8881  0.2206
 2185SOL    HW1 8006   0.617   6.526   8.057 -2.4543  1.5183  1.0925
 2185SOL    HW2 8007   0.724   6.605   8.131  0.3130  0.0069 -1.0865
 2186SOL     OW 8008   1.982   4.755   1.059 -0.5972 -0.2823  0.3810
 2186SOL    HW1 8009   2.042   4.693   1.101 -0.4712 -0.1037  0.4678
 2186SOL    HW2 8010   1.994   4.740   0.966 -0.1303  0.0170  0.3865
 2187SOL     OW 8011   2.972   2.837   3.910  0.3221 -0.0362 -0.2129
 2187SOL    HW1 8012   2.983   2.742   3.913  0.7602  0.0023 -0.3730
 2187SOL    HW2 8013   3.057   2.872   3.937  0.8553  0.2919 -2.1451
 2188SOL     OW 8014   2.804   4.888   9.098 -0.0138 -0.1806  0.1138
 2188SOL    HW1 8015   2.764   4.948   9.035  0.6427 -0.8223 -0.9482
 2188SOL    HW2 8016   2.867   4.837   9.046 -0.4588 -1.7058  0.9983
 2189SOL     OW 8017   6.468   7.136   2.170 -0.1142 -0.0390 -0.1502
 2189SOL    HW1 8018   6.554   7.172   2.189  0.0917 -0.8430  0.4435
 2189SOL    HW2 8019   6.474   7.043   2.191 -1.6787  0.2336  1.8294
 2190SOL     OW 8020   7.851   3.361   4.803  0.1351 -0.0273  0.2987
 2190SOL    HW1 8021   7.874   3.298   4.871 -3.2278 -0.9949  0.7111
 2190SOL    HW2 8022   7.872   3.316   4.721  2.5182  0.4459  0.5626
 2191SOL     OW 8023   7.787   3.070   3.033  0.1239  0.0162  0.8453
 2191SOL    HW1 8024   7.870   3.029   3.010  0.0808 -0.2554  1.1695
 2191SOL    HW2 8025   7.760   3.026   3.114 -0.0365  0.5234  1.0693
 2192SOL     OW 8026   3.415   1.470   6.748 -0.0554 -0.5122 -0.4055
 2192SOL    HW1 8027   3.370   1.478   6.832 -0.3807  1.6792 -0.7385
 2192SOL    HW2 8028   3.345   1.471   6.683  0.3282  0.8858 -0.8264
 2193SOL     OW 8029   4.069   5.661   0.486 -0.1783  0.3507 -0.1047
 2193SOL    HW1 8030   4.015   5.674   0.408 -0.2113 -0.0522 -0.1532
 2193SOL    HW2 8031   4.007   5.666   0.559 -0.1770  0.5404 -0.1163
 2194SOL     OW 8032   7.290   1.095   4.072 -0.4069 -0.6609  0.2229
 2194SOL    HW1 8033   7.356   1.164   4.071  0.8600 -1.8173 -0.1271
 2194SOL    HW2 8034   7.207   1.141   4.081  0.0368  1.1817 -3.3655
 2195SOL     OW 8035   3.742   1.244   3.486 -0.8629 -0.2182  0.6885
 2195SOL    HW1 8036   3.802   1.210   3.553  0.0706  2.0597  1.0827
 2195SOL    HW2 8037   3.784   1.220   3.403  0.2621  0.7159  0.9593
 2196SOL     OW 8038   4.446   4.570   2.423  0.5641  0.1807  0.3379
 2196SOL    HW1 8039   4.467   4.501   2.360 -1.1197  0.5315 -0.6589
 2196SOL    HW2 8040   4.453   4.526   2.508  0.5210 -0.9427 -0.2131
 2197SOL     OW 8041   2.559   0.489   6.099 -0.6664  0.2641  0.2038
 2197SOL    HW1 8042   2.624   0.442   6.047 -0.6686  0.0875  0.3617
 2197SOL    HW2 8043   2.488   0.506   6.038 -1.4175 -1.4257  0.5573
 2198SOL     OW 8044   7.276   6.620   6.358 -0.2387 -0.2026  0.0105
 2198SOL    HW1 8045   7.271   6.570   6.276  1.2274 -2.3048  1.1151
 2198SOL    HW2 8046   7.369   6.626   6.377 -0.5765 -0.6966  2.0447
 2199SOL     OW 8047   9.213   1.824   7.749 -0.4434  0.3144  0.2093
 2199SOL    HW1 8048   9.221   1.885   7.822  0.9112 -0.3363  0.6490
 2199SOL    HW2 8049   9.268   1.861   7.680 -0.2616  0.0140  0.1892
 2200SOL     OW 8050   5.279   6.042   3.591 -0.1006  0.3413  0.2268
 2200SOL    HW1 8051   5.313   5.976   3.652  2.2226  0.5135 -0.7972
 2200SOL    HW2 8052   5.298   6.126   3.633 -0.1383  0.4189  0.0902
 2201SOL     OW 8053   0.965   4.867   6.452 -0.5179 -0.1992 -0.3374
 2201SOL    HW1 8054   1.039   4.881   6.511 -0.8530 -1.2074  0.3554
 2201SOL    HW2 8055   0.958   4.949   6.403  1.3509 -0.2553 -0.7775
 2202SOL     OW 8056   1.584   8.532   7.410 -0.0415 -0.2477  0.0363
 2202SOL    HW1 8057   1.642   8.461   7.439  0.8146  0.1272 -0.6991
 2202SOL    HW2 8058   1.644   8.600   7.379 -0.8810  0.2772 -0.4616
 2203SOL     OW 8059   2.156   8.457   2.361 -0.3724  0.1871 -1.0955
 2203SOL    HW1 8060   2.125   8.430   2.447 -0.9399  1.3459 -0.9280
 2203SOL    HW2 8061   2.224   8.392   2.339 -0.1282 -0.0496  0.2698
 2204SOL     OW 8062   2.754   3.643   6.651  0.2376  0.0642 -0.4604
 2204SOL    HW1 8063   2.814   3.603   6.714  0.6138  1.2797 -0.0340
 2204SOL    HW2 8064   2.736   3.730   6.686  1.9133  1.5181 -2.9073
 2205SOL     OW 8065   3.527   5.540   1.414 -0.4871 -0.4325  0.2636
 2205SOL    HW1 8066   3.556   5.554   1.505 -3.6646  1.1744  1.1547
 2205SOL    HW2 8067   3.537   5.445   1.401  2.0811 -0.4309  1.4424
 2206SOL     OW 8068   2.809   6.653   8.495 -0.6262 -0.1228 -0.0894
 2206SOL    HW1 8069   2.740   6.715   8.518 -1.2067  0.1995 -2.4441
 2206SOL    HW2 8070   2.766   6.589   8.437  0.3472 -1.8044  0.9451
 2207SOL     OW 8071   2.680   6.645   1.147 -0.5405 -0.1646  0.6939
 2207SOL    HW1 8072   2.769   6.677   1.132 -0.3930 -1.2219 -1.0356
 2207SOL    HW2 8073   2.634   6.718   1.187  1.1110  0.3895  1.6743
 2208SOL     OW 8074   6.262   0.497   3.474  0.1737 -0.3685 -0.1849
 2208SOL    HW1 8075   6.283   0.427   3.536 -0.5358 -0.6578 -0.2549
 2208SOL    HW2 8076   6.265   0.454   3.388  2.3524  0.2968 -0.5043
 2209SOL     OW 8077   0.039   3.291   0.053  0.2011 -0.3882 -0.2347
 2209SOL    HW1 8078  -0.002   3.361   0.104  2.5917  0.9442 -0.0271
 2209SOL    HW2 8079  -0.035   3.242   0.016 -1.5704  2.1761 -0.3257
 2210SOL     OW 8080   3.714   0.264   6.775  0.7708 -0.4737 -0.4374
 2210SOL    HW1 8081   3.660   0.337   6.744  1.3009 -0.2344 -0.8036
 2210SOL    HW2 8082   3.651   0.203   6.814  0.3905  0.4884  0.5008
 2211SOL     OW 8083   2.782   8.590   2.207  0.0156  0.6660 -0.1266
 2211SOL    HW1 8084   2.873   8.562   2.203 -0.6153 -1.9947  1.8741
 2211SOL    HW2 8085   2.738   8.539   2.139 -0.3427  0.4319  0.2818
 2212SOL     OW 8086   8.818   8.615   0.849  1.0619  0.0192  0.4600
 2212SOL    HW1 8087   8.780   8.631   0.935 -0.5242 -0.5598 -0.0879
 2212SOL    HW2 8088   8.820   8.701   0.807  1.7035  0.2771  1.0206
 2213SOL     OW 8089   8.128   8.329   6.827 -0.3056 -0.4132  0.2449
 2213SOL    HW1 8090   8.044   8.371   6.811 -0.2997 -1.1118 -1.8549
 2213SOL    HW2 8091   8.106   8.250   6.878 -0.8859 -0.4534 -0.0673
 2214SOL     OW 8092   2.971   6.005   6.087 -0.3244  0.5414 -0.5792
 2214SOL    HW1 8093   2.927   6.023   6.004  0.2705 -0.1465 -1.0555
 2214SOL    HW2 8094   2.989   5.911   6.085 -0.1613  0.5399  0.2639
 2215SOL     OW 8095   7.411   1.930   1.288 -0.2375  0.1593  0.2915
 2215SOL    HW1 8096   7.393   1.842   1.321 -1.3370  0.2558 -0.0273
 2215SOL    HW2 8097   7.476   1.966   1.348 -0.7308 -0.3984  1.1732
 2216SOL     OW 8098   7.341   3.044   8.420  0.4050 -0.3302  0.0652
 2216SOL    HW1 8099   7.381   2.967   8.380 -0.3923 -0.0067 -1.4573
 2216SOL    HW2 8100   7.270   3.010   8.474  0.9154 -0.7380  0.4789
 2217SOL     OW 8101   8.374   6.253   6.013  0.2386  0.0944 -0.7813
 2217SOL    HW1 8102   8.412   6.194   5.947  0.2682  0.6126 -1.2381
 2217SOL    HW2 8103   8.282   6.227   6.018  0.3762 -0.3479 -0.5846
 2218SOL     OW 8104   2.428   7.249   0.306  0.3199 -0.6217 -0.3297
 2218SOL    HW1 8105   2.489   7.201   0.362  0.4884  3.0072  2.9508
 2218SOL    HW2 8106   2.483   7.286   0.237  1.4189  0.4205  1.0643
 2219SOL     OW 8107   5.557   5.025   8.191 -0.2170 -0.1784  0.0265
 2219SOL    HW1 8108   5.544   4.936   8.159 -0.3481  0.2403 -1.1226
 2219SOL    HW2 8109   5.484   5.075   8.154  1.5445  1.0572 -2.0216
 2220SOL     OW 8110   6.673   7.069   3.541 -0.1432  0.1036 -0.3227
 2220SOL    HW1 8111   6.630   7.031   3.617 -0.1050 -1.1829 -0.9240
 2220SOL    HW2 8112   6.754   7.108   3.576 -0.8691  0.9164  0.5153
 2221SOL     OW 8113   8.026   8.099   5.815  0.5532 -0.1884  0.1619
 2221SOL    HW1 8114   7.974   8.110   5.894  1.5271  2.1427  0.5817
 2221SOL    HW2 8115   8.116   8.088   5.847  0.5565 -3.0860 -0.5723
 2222SOL     OW 8116   7.668   2.730   5.069  0.1258  0.2627 -0.1536
 2222SOL    HW1 8117   7.593   2.770   5.113 -1.5118 -2.3922 -0.3263
 2222SOL    HW2 8118   7.654   2.749   4.976 -1.3924 -1.6877 -0.3845
 2223SOL     OW 8119   2.755   8.086   9.199 -0.2887  0.3186  0.4269
 2223SOL    HW1 8120   2.680   8.027   9.205 -0.6870  0.7926  0.2009
 2223SOL    HW2 8121   2.746   8.126   9.112  0.5757 -0.0860  0.1448
 2224SOL     OW 8122   1.040   8.564   7.890 -0.4061 -0.3139 -0.0637
 2224SOL    HW1 8123   0.978   8.555   7.818 -0.4074 -1.5561  0.0718
 2224SOL    HW2 8124   1.041   8.478   7.932  1.1694 -0.2305  0.1277
 2225SOL     OW 8125   7.873   0.950   2.326 -0.3297 -0.6383  0.6010
 2225SOL    HW1 8126   7.790   0.997   2.341  0.0568  0.3435 -0.2572
 2225SOL    HW2 8127   7.864   0.914   2.238  1.0145  1.4243 -0.4705
 2226SOL     OW 8128   0.242   6.989   7.094  0.1133  0.2666  0.0909
 2226SOL    HW1 8129   0.316   7.040   7.061  1.2274 -1.5975 -0.4976
 2226SOL    HW2 8130   0.244   7.001   7.188  3.1275 -2.0280  0.4792
 2227SOL     OW 8131   3.484   3.819   3.828 -0.4911  0.1614 -0.3650
 2227SOL    HW1 8132   3.530   3.902   3.843 -2.8407  1.4317  0.4240
 2227SOL    HW2 8133   3.467   3.818   3.734  1.8049 -0.7798 -0.8384
 2228SOL     OW 8134   7.147   2.365   5.396 -0.3018  0.2500  0.2610
 2228SOL    HW1 8135   7.165   2.361   5.490  0.0934 -0.3401  0.1635
 2228SOL    HW2 8136   7.218   2.316   5.355 -0.9429 -0.2396 -0.2907
 2229SOL     OW 8137   1.560   2.168   1.789 -0.0868 -0.2929  0.4956
 2229SOL    HW1 8138   1.533   2.144   1.877 -0.9227 -0.8862  0.0866
 2229SOL    HW2 8139   1.645   2.211   1.801  0.6172 -1.8759  1.4175
 2230SOL     OW 8140   5.487   5.263   2.905  0.2474  0.1495 -0.2915
 2230SOL    HW1 8141   5.536   5.338   2.938 -1.1814  0.2249  1.8784
 2230SOL    HW2 8142   5.507   5.192   2.966  1.1227 -1.1023 -1.9830
 2231SOL     OW 8143   7.747   8.077   5.885  0.2209 -0.0847 -0.0439
 2231SOL    HW1 8144   7.681   8.119   5.830 -1.3762 -1.2022  0.9382
 2231SOL    HW2 8145   7.774   8.000   5.834 -2.6314 -2.2001  1.3268
 2232SOL     OW 8146   3.873   6.364   4.727  0.2576  0.0101  0.5357
 2232SOL    HW1 8147   3.960   6.327   4.741  0.5769  0.2623 -0.6522
 2232SOL    HW2 8148   3.875   6.395   4.637 -1.6929 -1.7030 -0.1833
 2233SOL     OW 8149   0.681   4.576   7.922 -0.0303 -0.2090 -0.6787
 2233SOL    HW1 8150   0.707   4.491   7.887  1.1683 -0.0823 -0.1726
 2233SOL    HW2 8151   0.757   4.632   7.906  0.4112 -0.0419  1.6747
 2234SOL     OW 8152   8.789   6.966   4.614 -0.0618  0.8277 -0.4798
 2234SOL    HW1 8153   8.752   7.050   4.585 -2.0548  0.8378  1.7810
 2234SOL    HW2 8154   8.868   6.990   4.662  0.9241  1.1298 -2.1796
 2235SOL     OW 8155   1.345   4.107   7.025 -0.5414  0.2571  0.1924
 2235SOL    HW1 8156   1.376   4.105   7.115 -0.1154 -0.4883  0.0315
 2235SOL    HW2 8157   1.424   4.100   6.971 -0.6456  2.0767 -0.2807
 2236SOL     OW 8158   6.606   1.812   8.060  0.2189 -0.2349 -0.2263
 2236SOL    HW1 8159   6.626   1.793   8.152  2.8878  2.0616 -0.1968
 2236SOL    HW2 8160   6.625   1.906   8.050 -2.5743  0.2482 -2.5602
 2237SOL     OW 8161   7.870   3.104   7.083  0.6774  0.1114 -0.5566
 2237SOL    HW1 8162   7.792   3.073   7.129  1.3540 -3.5381 -1.5503
 2237SOL    HW2 8163   7.840   3.125   6.995  0.7675 -1.7717 -1.0929
 2238SOL     OW 8164   4.845   6.310   7.992  0.2225 -0.6620  0.4176
 2238SOL    HW1 8165   4.876   6.398   7.972  0.9976 -0.9652  0.2516
 2238SOL    HW2 8166   4.900   6.252   7.939 -0.9883 -1.1929 -0.2810
 2239SOL     OW 8167   2.141   1.260   3.651  0.6280  0.2248  1.0038
 2239SOL    HW1 8168   2.100   1.336   3.610  1.6196  0.8290  1.0934
 2239SOL    HW2 8169   2.112   1.263   3.742 -0.2733 -0.1873  0.7388
 2240SOL     OW 8170   3.227   2.962   9.244 -0.0128 -0.6991  0.2073
 2240SOL    HW1 8171   3.295   2.903   9.212  0.5582  1.7081 -3.6925
 2240SOL    HW2 8172   3.258   3.049   9.218 -3.5060  0.6974  0.2970
 2241SOL     OW 8173   2.221   5.265   3.328 -0.3916  0.4290  0.7290
 2241SOL    HW1 8174   2.304   5.218   3.319  0.8832  2.2136  2.4021
 2241SOL    HW2 8175   2.216   5.288   3.420 -0.7554  3.8192 -0.0064
 2242SOL     OW 8176   9.019   3.728   3.448  0.6747  0.4319  0.0642
 2242SOL    HW1 8177   9.048   3.642   3.418  1.2030  1.0747 -1.3816
 2242SOL    HW2 8178   9.071   3.790   3.397 -0.6985  1.6080  0.0177
 2243SOL     OW 8179   1.534   6.729   8.455  0.6318  0.5730  0.1880
 2243SOL    HW1 8180   1.582   6.657   8.495 -0.6746 -0.4010  0.0742
 2243SOL    HW2 8181   1.525   6.703   8.363 -0.4676  0.5088  0.2965
 2244SOL     OW 8182   6.761   0.904   2.471  0.3633 -0.3693  0.1207
 2244SOL    HW1 8183   6.772   0.986   2.520 -0.9570 -0.5336  0.7458
 2244SOL    HW2 8184   6.800   0.837   2.527 -1.2753 -0.5785  1.0936
 2245SOL     OW 8185   0.200   4.110   3.216  0.2574  0.0245  0.0921
 2245SOL    HW1 8186   0.279   4.063   3.243  0.2867 -0.5027 -0.8468
 2245SOL    HW2 8187   0.232   4.195   3.186  0.3882  0.0773  0.3850
 2246SOL     OW 8188   7.697   2.288   1.086  0.1123  0.3307 -0.3211
 2246SOL    HW1 8189   7.702   2.384   1.087  1.4132  0.2716 -0.0780
 2246SOL    HW2 8190   7.605   2.269   1.104 -1.1805  1.5690 -4.5476
 2247SOL     OW 8191   5.094   8.281   1.415 -0.1079 -0.5470  0.4427
 2247SOL    HW1 8192   5.141   8.328   1.347  0.0666  0.3874  1.1897
 2247SOL    HW2 8193   5.113   8.329   1.496 -1.7276 -0.5895  0.8902
 2248SOL     OW 8194   6.024   2.459   5.707  0.2592  0.1688  0.0385
 2248SOL    HW1 8195   6.015   2.519   5.633  0.8127 -1.4454 -1.3940
 2248SOL    HW2 8196   5.948   2.479   5.762 -0.4032  1.1304 -1.1497
 2249SOL     OW 8197   8.792   3.005   8.523  0.2023 -0.2795 -0.2127
 2249SOL    HW1 8198   8.865   2.951   8.493  0.8114 -0.1603  1.0061
 2249SOL    HW2 8199   8.728   2.941   8.555 -0.3699 -0.3968 -1.5020
 2250SOL     OW 8200   7.781   8.552   7.274 -0.1533  0.1819  0.4374
 2250SOL    HW1 8201   7.726   8.511   7.208  0.3877  1.1093 -0.6273
 2250SOL    HW2 8202   7.728   8.552   7.354 -1.4704  0.5386 -0.4136
 2251SOL     OW 8203   4.518   3.949   5.097 -0.2610  0.2326 -0.0542
 2251SOL    HW1 8204   4.558   3.894   5.030 -0.5541 -0.7437  0.5438
 2251SOL    HW2 8205   4.427   3.918   5.102 -1.1190  2.3139 -1.3117
 2252SOL     OW 8206   3.038   3.890   2.443  0.1117  0.0861 -0.2053
 2252SOL    HW1 8207   3.040   3.956   2.512  0.4919  0.6527 -0.7376
 2252SOL    HW2 8208   3.071   3.937   2.365  0.4150 -0.7364 -0.5818
 2253SOL     OW 8209   6.981   4.899   6.679  0.1293  0.4275 -0.2146
 2253SOL    HW1 8210   6.931   4.823   6.707  0.7780  0.5759  1.4741
 2253SOL    HW2 8211   6.932   4.935   6.604 -1.2829 -0.4489  0.2591
 2254SOL     OW 8212   1.159   3.386   0.847  0.7559 -0.9412  0.1173
 2254SOL    HW1 8213   1.168   3.461   0.788  2.0843  0.6302  2.1414
 2254SOL    HW2 8214   1.065   3.373   0.857  0.4981  0.5292 -0.2214
 2255SOL     OW 8215   4.307   2.126   0.135 -0.4522  0.3839 -0.3446
 2255SOL    HW1 8216   4.381   2.073   0.103  0.0232  0.6174  0.3419
 2255SOL    HW2 8217   4.299   2.196   0.070 -1.7093 -1.0186 -1.7945
 2256SOL     OW 8218   8.556   2.923   0.702 -0.6259 -0.1117  0.3380
 2256SOL    HW1 8219   8.644   2.906   0.735  0.4743  2.9343 -0.6743
 2256SOL    HW2 8220   8.534   2.845   0.651  1.2618 -1.1634  1.0504
 2257SOL     OW 8221   0.805   5.056   5.784 -0.4948 -0.1853  0.4186
 2257SOL    HW1 8222   0.842   5.065   5.697  1.4279 -2.0397  0.9565
 2257SOL    HW2 8223   0.713   5.081   5.775 -0.1455  0.3979 -1.9417
 2258SOL     OW 8224   6.869   2.961   6.411 -0.1054 -0.5023  1.4284
 2258SOL    HW1 8225   6.931   3.011   6.464 -0.6822  1.0499  0.7194
 2258SOL    HW2 8226   6.785   3.005   6.425 -0.1344  0.5246 -1.3297
 2259SOL     OW 8227   6.830   7.713   3.450 -0.2119 -0.4748 -0.2663
 2259SOL    HW1 8228   6.843   7.640   3.388 -2.4500 -1.8015  0.6887
 2259SOL    HW2 8229   6.756   7.762   3.414 -0.5971 -0.4123  0.5853
 2260SOL     OW 8230   3.982   9.239   0.171 -0.3320  0.8678 -0.1734
 2260SOL    HW1 8231   3.986   9.278   0.259  1.2937 -0.1184  0.2184
 2260SOL    HW2 8232   3.897   9.194   0.169  0.9454 -1.9056  2.1684
 2261SOL     OW 8233   0.710   4.601   7.003  0.0809  0.2183  0.0179
 2261SOL    HW1 8234   0.789   4.570   6.958  1.6910  0.1196  2.7153
 2261SOL    HW2 8235   0.654   4.523   7.008  1.0353 -0.4559  0.5308
 2262SOL     OW 8236   7.082   8.220   6.246 -0.1726 -0.3104 -0.0963
 2262SOL    HW1 8237   7.081   8.315   6.253 -1.6239 -0.0455 -2.5107
 2262SOL    HW2 8238   7.002   8.192   6.289 -0.8334 -0.1861 -1.1890
 2263SOL     OW 8239   3.348   2.276   3.539 -0.3815  0.8174  0.4820
 2263SOL    HW1 8240   3.427   2.245   3.495 -1.9006 -0.7651 -1.2999
 2263SOL    HW2 8241   3.380   2.337   3.606  2.4362 -1.0894  1.0261
 2264SOL     OW 8242   5.563   2.245   7.715  0.2470 -0.0024  0.0789
 2264SOL    HW1 8243   5.494   2.235   7.781  0.2235 -2.6029 -0.2361
 2264SOL    HW2 8244   5.517   2.252   7.632  0.3273 -0.5629 -0.0171
 2265SOL     OW 8245   7.749   1.370   0.096  0.0231 -0.0828 -0.0672
 2265SOL    HW1 8246   7.701   1.352   0.177 -1.7723  1.0670 -0.8248
 2265SOL    HW2 8247   7.841   1.359   0.120 -0.5328 -1.3754  1.6960
 2266SOL     OW 8248   0.721   9.010   5.361 -0.4468  0.7338 -0.0394
 2266SOL    HW1 8249   0.677   9.079   5.310  0.3930  0.9907 -0.4344
 2266SOL    HW2 8250   0.738   9.051   5.446  2.3725  1.9688 -1.0899
 2267SOL     OW 8251   8.544   3.460   7.900  0.1074 -0.2209 -0.1330
 2267SOL    HW1 8252   8.592   3.392   7.947 -0.5007 -0.1866  0.5595
 2267SOL    HW2 8253   8.564   3.445   7.807  2.7909  0.8087  0.1796
 2268SOL     OW 8254   7.995   5.990   6.731 -0.0835 -0.5854  0.1192
 2268SOL    HW1 8255   8.058   5.941   6.679  0.0723 -0.6693  0.3845
 2268SOL    HW2 8256   8.029   6.079   6.734  0.1569 -0.6853  0.4706
 2269SOL     OW 8257   6.156   6.814   4.427  0.3989  0.1626  0.0209
 2269SOL    HW1 8258   6.087   6.814   4.494 -0.0900 -0.4767 -0.4648
 2269SOL    HW2 8259   6.133   6.741   4.369  1.6972 -0.3061  0.0550
 2270SOL     OW 8260   5.581   0.667   6.547 -0.4560 -0.0858 -0.5293
 2270SOL    HW1 8261   5.610   0.619   6.625 -0.6983 -0.0412 -0.4123
 2270SOL    HW2 8262   5.608   0.611   6.473 -2.7812 -1.5896 -0.3653
 2271SOL     OW 8263   5.205   1.008   4.201  0.0991 -0.0368  0.1680
 2271SOL    HW1 8264   5.287   0.961   4.212 -0.4228 -0.8102  0.8259
 2271SOL    HW2 8265   5.187   1.005   4.107 -0.1106 -1.4832  0.2361
 2272SOL     OW 8266   0.470   3.832   6.405  0.2247 -0.1206 -0.0031
 2272SOL    HW1 8267   0.492   3.744   6.376  0.0524 -0.3689  0.5971
 2272SOL    HW2 8268   0.481   3.829   6.500 -1.2485  0.0745  0.1946
 2273SOL     OW 8269   9.134   0.022   7.807 -0.8650  0.0672 -0.0437
 2273SOL    HW1 8270   9.195  -0.049   7.788  0.7957  1.2434  0.6063
 2273SOL    HW2 8271   9.143   0.083   7.734  0.9280  1.5984  1.3312
 2274SOL     OW 8272   0.152   0.606   6.862  0.0944  0.3600  0.1358
 2274SOL    HW1 8273   0.210   0.671   6.902  0.1252  0.2553  0.2639
 2274SOL    HW2 8274   0.195   0.522   6.879  0.8049  0.4063 -1.2986
 2275SOL     OW 8275   5.585   5.995   4.858 -0.5532 -0.7452 -0.3901
 2275SOL    HW1 8276   5.653   6.061   4.842 -2.7751  1.6777 -0.4458
 2275SOL    HW2 8277   5.630   5.911   4.848  2.1878  0.7312 -1.3624
 2276SOL     OW 8278   8.428   8.870   7.071  0.0248  0.8765 -0.3404
 2276SOL    HW1 8279   8.498   8.903   7.127  1.2798  0.5545 -1.6505
 2276SOL    HW2 8280   8.381   8.948   7.043  0.4394  1.1929 -0.1699
 2277SOL     OW 8281   1.870   0.296   1.915  0.0269 -1.0784  0.1468
 2277SOL    HW1 8282   1.845   0.213   1.956  0.1143 -0.4654  1.5178
 2277SOL    HW2 8283   1.925   0.339   1.981 -0.6142  0.3697 -0.2347
 2278SOL     OW 8284   1.770   6.032   0.213  0.7408  0.2910  0.1089
 2278SOL    HW1 8285   1.829   6.045   0.139 -1.2320 -2.3063 -2.1322
 2278SOL    HW2 8286   1.702   6.099   0.203  1.6154  1.3396  0.9297
 2279SOL     OW 8287   4.744   4.998   7.827 -0.3458  0.2966  0.1014
 2279SOL    HW1 8288   4.729   5.006   7.921  0.6303 -0.4077  0.3319
 2279SOL    HW2 8289   4.831   4.959   7.819 -0.3939  0.3810 -1.0958
 2280SOL     OW 8290   3.977   2.734   4.469  0.1513  0.3094  0.1966
 2280SOL    HW1 8291   3.889   2.699   4.482  0.4091 -0.4548 -0.0433
 2280SOL    HW2 8292   3.984   2.745   4.374  1.0355 -1.6411 -0.0065
 2281SOL     OW 8293   3.000   9.138   2.090 -0.2875  0.0305  0.2335
 2281SOL    HW1 8294   2.981   9.166   2.001  0.6925 -0.3922 -0.1165
 2281SOL    HW2 8295   2.999   9.042   2.086  1.1912 -0.0004  0.3457
 2282SOL     OW 8296   6.727   0.783   4.415 -0.0338 -0.0403  0.3201
 2282SOL    HW1 8297   6.689   0.816   4.497  2.1193  0.1824  1.2996
 2282SOL    HW2 8298   6.784   0.711   4.443 -0.6972 -1.2450 -1.2338
 2283SOL     OW 8299   1.668   3.145   3.792  0.0105 -0.3600  0.2041
 2283SOL    HW1 8300   1.689   3.129   3.884  1.6098  0.8473  0.0873
 2283SOL    HW2 8301   1.597   3.209   3.794  0.5101  0.1922  0.6161
 2284SOL     OW 8302   7.324   5.959   7.331 -0.3091 -0.1398  0.2160
 2284SOL    HW1 8303   7.378   5.919   7.398 -1.2123 -2.0116 -0.1139
 2284SOL    HW2 8304   7.248   5.901   7.323 -0.7688  0.6408 -1.6213
 2285SOL     OW 8305   5.115   7.800   8.865  0.1541  0.1768 -0.1010
 2285SOL    HW1 8306   5.165   7.783   8.945  0.2902 -1.0928 -0.4273
 2285SOL    HW2 8307   5.066   7.880   8.884  1.8814  1.1426  0.4110
 2286SOL     OW 8308   0.733   7.664   5.465 -0.0724  1.3737 -0.2855
 2286SOL    HW1 8309   0.673   7.598   5.500 -1.0472  0.6157 -3.0589
 2286SOL    HW2 8310   0.774   7.703   5.542 -2.1963  0.1002  1.6290
 2287SOL     OW 8311   0.634   8.488   5.706  0.7013  0.2260  1.1337
 2287SOL    HW1 8312   0.686   8.504   5.626 -1.0738 -1.2704 -0.4072
 2287SOL    HW2 8313   0.578   8.565   5.713  0.9292  0.4092  1.0042
 2288SOL     OW 8314   2.210   2.693   7.657 -0.4689 -0.4485 -0.0037
 2288SOL    HW1 8315   2.192   2.694   7.751  2.5028  0.1168  0.6512
 2288SOL    HW2 8316   2.240   2.604   7.638 -0.0593 -0.2675 -0.2100
 2289SOL     OW 8317   6.830   8.525   7.839  0.3468 -0.3027  0.3655
 2289SOL    HW1 8318   6.859   8.546   7.928  0.0773 -1.4454  0.7481
 2289SOL    HW2 8319   6.858   8.434   7.826 -1.0301 -0.6844 -0.1019
 2290SOL     OW 8320   2.651   3.726   0.262  0.2664  0.6586  0.2427
 2290SOL    HW1 8321   2.594   3.691   0.330  0.0757  2.3398  1.0207
 2290SOL    HW2 8322   2.718   3.776   0.310 -0.1963  2.3594 -0.7698
 2291SOL     OW 8323   6.965   7.835   6.273  0.1331 -0.1112  0.4887
 2291SOL    HW1 8324   6.935   7.900   6.336  0.3133  0.2563  0.1975
 2291SOL    HW2 8325   7.010   7.886   6.205 -0.5320 -0.4565 -0.2179
 2292SOL     OW 8326   0.073   6.338   1.192 -0.8000 -0.1249 -0.1927
 2292SOL    HW1 8327   0.036   6.380   1.114  0.4142  1.7552  0.1763
 2292SOL    HW2 8328   0.131   6.404   1.229 -0.3010 -1.4798  1.5595
 2293SOL     OW 8329   4.537   4.793   6.836 -0.3139  0.1739  0.2428
 2293SOL    HW1 8330   4.601   4.760   6.899 -0.0817 -0.3365 -0.2531
 2293SOL    HW2 8331   4.525   4.721   6.774 -0.0236  0.9080 -0.6968
 2294SOL     OW 8332   8.267   4.856   5.762  0.2835 -0.3544 -0.6638
 2294SOL    HW1 8333   8.299   4.843   5.851  1.0087  2.4908 -0.4177
 2294SOL    HW2 8334   8.225   4.773   5.740  1.5786 -1.7495  1.6634
 2295SOL     OW 8335   1.766   9.002   5.187  0.0497  1.0992 -0.1386
 2295SOL    HW1 8336   1.732   9.001   5.098  1.4591 -0.3796 -0.7108
 2295SOL    HW2 8337   1.843   9.058   5.184  0.8851 -0.0302 -0.1891
 2296SOL     OW 8338   6.433   8.897   4.908 -0.1471 -0.1434 -0.0733
 2296SOL    HW1 8339   6.516   8.930   4.944  0.5904 -3.1339  1.3185
 2296SOL    HW2 8340   6.455   8.809   4.875 -2.5776 -0.6312 -0.5556
 2297SOL     OW 8341   6.631   7.051   7.970 -0.3499  0.3523  0.2307
 2297SOL    HW1 8342   6.646   6.982   7.905 -1.2090  0.5556 -0.1958
 2297SOL    HW2 8343   6.686   7.124   7.941  1.4966 -0.5206  1.3391
 2298SOL     OW 8344   3.092   3.786   0.258 -0.2368  0.2004  0.3205
 2298SOL    HW1 8345   3.126   3.701   0.230 -0.9963 -0.4325  1.2357
 2298SOL    HW2 8346   3.030   3.810   0.189  1.3685  0.9665 -0.9284
 2299SOL     OW 8347   4.475   8.503   0.586 -0.5829 -0.8962 -0.3277
 2299SOL    HW1 8348   4.547   8.460   0.633 -0.3536  0.6283  0.7978
 2299SOL    HW2 8349   4.518   8.559   0.522 -0.8403 -1.2349 -0.8064
 2300SOL     OW 8350   5.108   5.206   4.335 -0.1022 -0.2142  0.2274
 2300SOL    HW1 8351   5.150   5.120   4.328 -1.4128 -0.9636  1.1942
 2300SOL    HW2 8352   5.099   5.221   4.429  1.8119  1.8769  0.1614
 2301SOL     OW 8353   4.605   0.649   4.386 -0.0978  0.1309 -0.0424
 2301SOL    HW1 8354   4.670   0.637   4.317 -0.3173  2.2843 -0.7050
 2301SOL    HW2 8355   4.656   0.645   4.468  0.0707 -3.0799 -0.1759
 2302SOL     OW 8356   1.708   8.504   1.865 -0.4149  0.3239 -0.2083
 2302SOL    HW1 8357   1.785   8.560   1.872  0.9032 -1.3826 -0.6393
 2302SOL    HW2 8358   1.680   8.491   1.956 -0.1742  0.9084 -0.0450
 2303SOL     OW 8359   6.777   2.355   3.452  0.1352  0.2828 -0.2644
 2303SOL    HW1 8360   6.832   2.381   3.526  0.8085  0.2332 -0.7294
 2303SOL    HW2 8361   6.755   2.263   3.468 -0.8532  0.6441  0.5437
 2304SOL     OW 8362   8.321   5.175   4.742 -0.0814  0.0694 -0.5695
 2304SOL    HW1 8363   8.239   5.224   4.749 -0.9168 -1.1826 -1.3482
 2304SOL    HW2 8364   8.297   5.085   4.763  1.1980 -0.2273 -0.3324
 2305SOL     OW 8365   3.492   8.348   7.963  0.1897 -0.4497 -0.3834
 2305SOL    HW1 8366   3.425   8.280   7.964 -0.5159  0.1486 -2.2955
 2305SOL    HW2 8367   3.448   8.426   7.930  1.3144  0.5734  0.4382
 2306SOL     OW 8368   4.174   4.759   5.474 -0.1469  0.3626  0.0904
 2306SOL    HW1 8369   4.176   4.664   5.457 -3.2315  0.5559 -2.3438
 2306SOL    HW2 8370   4.200   4.798   5.390 -3.7267  1.5203 -0.6400
 2307SOL     OW 8371   1.655   6.122   7.026 -0.0158  0.4553  0.4988
 2307SOL    HW1 8372   1.648   6.149   7.117 -0.8592  0.2724  0.5044
 2307SOL    HW2 8373   1.577   6.159   6.984  0.2496  0.3530 -0.0977
 2308SOL     OW 8374   6.435   5.711   3.721 -0.0025  0.4703  0.0633
 2308SOL    HW1 8375   6.388   5.664   3.652  0.0842 -0.8853  0.8927
 2308SOL    HW2 8376   6.378   5.784   3.743 -1.3204 -0.6219  0.4281
 2309SOL     OW 8377   0.787   7.123   0.761  0.1652 -0.0773 -0.4162
 2309SOL    HW1 8378   0.870   7.088   0.794  0.0907 -0.9169 -1.1016
 2309SOL    HW2 8379   0.802   7.137   0.668 -0.5037 -0.3741 -0.5729
 2310SOL     OW 8380   6.803   0.217   7.997 -0.3136 -0.0335  0.0373
 2310SOL    HW1 8381   6.806   0.269   7.917 -0.1240  0.3684  0.3020
 2310SOL    HW2 8382   6.795   0.127   7.966  0.1755  0.0820 -0.4479
 2311SOL     OW 8383   6.894   2.400   6.410  0.3645  0.0148  0.1186
 2311SOL    HW1 8384   6.888   2.304   6.411  0.3957  0.0138  1.7186
 2311SOL    HW2 8385   6.832   2.426   6.341 -1.2406 -1.0658  1.0789
 2312SOL     OW 8386   2.304   6.749   8.082  0.4513 -0.0220 -0.1862
 2312SOL    HW1 8387   2.291   6.843   8.101 -0.7688 -0.2096 -0.0004
 2312SOL    HW2 8388   2.336   6.747   7.992  1.0487  0.6000  0.0014
 2313SOL     OW 8389   4.192   3.867   8.711  0.0549 -0.3175  0.0460
 2313SOL    HW1 8390   4.243   3.947   8.724  0.1688 -0.4931  0.7020
 2313SOL    HW2 8391   4.180   3.862   8.616  0.8545 -0.0227 -0.0821
 2314SOL     OW 8392   3.125   6.881   1.291 -0.1792  0.0764 -0.6304
 2314SOL    HW1 8393   3.056   6.814   1.286 -0.7227  0.5779 -0.0854
 2314SOL    HW2 8394   3.077   6.963   1.305  0.5352  0.4272 -0.1756
 2315SOL     OW 8395   4.325   6.825   0.491 -0.2298 -0.1643  0.1065
 2315SOL    HW1 8396   4.360   6.816   0.402  2.2796  1.8079  0.7599
 2315SOL    HW2 8397   4.251   6.885   0.481 -1.4626 -1.7794 -0.8964
 2316SOL     OW 8398   1.108   2.286   3.092  0.8799 -0.5421 -0.1859
 2316SOL    HW1 8399   1.169   2.282   3.019  0.1462  2.6434 -1.1322
 2316SOL    HW2 8400   1.045   2.354   3.068 -0.4866 -0.6386  2.6288
 2317SOL     OW 8401   7.350   0.647   0.680 -0.5935  0.6486 -0.0274
 2317SOL    HW1 8402   7.295   0.715   0.719 -0.7449  0.7767 -0.4635
 2317SOL    HW2 8403   7.439   0.669   0.708 -0.9470 -0.9298  2.7756
 2318SOL     OW 8404   1.053   4.082   3.602  0.4458 -0.5573 -0.1682
 2318SOL    HW1 8405   1.085   4.151   3.660  1.8956 -2.6205  1.6804
 2318SOL    HW2 8406   1.132   4.045   3.563 -0.2301 -1.6212 -0.5625
 2319SOL     OW 8407   8.786   4.392   7.066  0.0118 -0.1615 -0.3938
 2319SOL    HW1 8408   8.704   4.434   7.041 -1.0305 -1.2864  0.9622
 2319SOL    HW2 8409   8.811   4.341   6.989 -0.7843 -0.1319 -0.6837
 2320SOL     OW 8410   4.225   4.777   6.320 -0.2845 -0.2646  0.0915
 2320SOL    HW1 8411   4.209   4.728   6.401  0.9743  0.2001  0.6424
 2320SOL    HW2 8412   4.200   4.867   6.342 -2.3230 -0.5540 -0.8304
 2321SOL     OW 8413   6.166   3.551   6.410 -0.1060 -0.1393 -0.1776
 2321SOL    HW1 8414   6.206   3.496   6.478 -0.9797 -1.9689 -1.0823
 2321SOL    HW2 8415   6.072   3.539   6.422 -0.4680  2.6953  0.7737
 2322SOL     OW 8416   1.047   0.323   5.157 -0.3892  0.3183 -0.2063
 2322SOL    HW1 8417   1.107   0.259   5.120 -0.7327 -1.7707  2.5279
 2322SOL    HW2 8418   0.988   0.346   5.085  1.2661 -0.5319 -1.8992
 2323SOL     OW 8419   4.835   3.958   4.817 -0.3926  0.7775  0.3846
 2323SOL    HW1 8420   4.771   3.973   4.747 -1.2458  0.8384  1.1590
 2323SOL    HW2 8421   4.787   3.909   4.884 -0.0216  1.9303  1.5477
 2324SOL     OW 8422   8.790   4.686   5.816  0.0533  0.3102 -0.0719
 2324SOL    HW1 8423   8.792   4.667   5.723  1.0096 -1.0293  0.2045
 2324SOL    HW2 8424   8.727   4.623   5.852 -0.3011  0.8114  0.2042
 2325SOL     OW 8425   7.817   9.142   7.153  0.2064  0.1666 -0.2694
 2325SOL    HW1 8426   7.794   9.090   7.076  0.0284  0.9284 -0.7323
 2325SOL    HW2 8427   7.742   9.199   7.167  1.0484  1.4344 -0.7316
 2326SOL     OW 8428   5.896   4.043   2.543  0.2446 -0.1368  0.5167
 2326SOL    HW1 8429   5.862   3.969   2.494  0.3613 -0.0267  0.2671
 2326SOL    HW2 8430   5.893   4.116   2.481 -2.2409  0.6799  1.4642
 2327SOL     OW 8431   0.146   5.351   2.691 -0.7677  0.2143  0.5990
 2327SOL    HW1 8432   0.224   5.391   2.729 -1.0090 -0.8020  2.2714
 2327SOL    HW2 8433   0.178   5.272   2.648 -0.7806  0.1419  0.7206
 2328SOL     OW 8434   6.916   5.006   5.511 -0.3574 -0.2488 -0.0209
 2328SOL    HW1 8435   6.916   5.076   5.446 -1.4709 -1.4222 -1.3614
 2328SOL    HW2 8436   7.003   4.965   5.502 -0.0831  0.3131  0.0477
 2329SOL     OW 8437   3.018   0.137   3.838 -0.5185  0.1318 -0.0859
 2329SOL    HW1 8438   2.969   0.081   3.778 -1.4506  1.4678 -0.5859
 2329SOL    HW2 8439   2.956   0.204   3.866  0.3368  0.4355  1.1884
 2330SOL     OW 8440   4.841   4.465   0.134  0.1803  0.3040 -0.3975
 2330SOL    HW1 8441   4.868   4.386   0.181  1.4153  0.2979 -1.0854
 2330SOL    HW2 8442   4.861   4.536   0.195 -0.4846  0.1326  0.0320
 2331SOL     OW 8443   8.292   8.498   6.998  0.1890 -0.5492  0.6685
 2331SOL    HW1 8444   8.309   8.415   7.042 -1.6545 -1.6155 -0.4800
 2331SOL    HW2 8445   8.206   8.486   6.957 -0.5109  2.2317  1.1389
 2332SOL     OW 8446   8.752   2.574   7.762  0.3096 -0.5304  0.0687
 2332SOL    HW1 8447   8.794   2.562   7.847  0.7868 -1.3750 -0.2745
 2332SOL    HW2 8448   8.765   2.491   7.717  0.1288 -0.0665 -0.8587
 2333SOL     OW 8449   7.012   5.537   6.118 -0.9613  0.2504  0.0728
 2333SOL    HW1 8450   6.954   5.572   6.051 -1.0599 -0.8964 -0.4614
 2333SOL    HW2 8451   6.954   5.517   6.192 -0.6811  2.7508  1.0735
 2334SOL     OW 8452   4.143   7.811   2.380 -0.0653 -0.2645 -0.7775
 2334SOL    HW1 8453   4.063   7.855   2.408 -0.6868 -0.1083 -2.6591
 2334SOL    HW2 8454   4.114   7.723   2.354  0.7912 -1.0457  0.7544
 2335SOL     OW 8455   9.153   2.249   2.646  0.0552  0.2733  0.1189
 2335SOL    HW1 8456   9.100   2.298   2.582  0.0198 -0.6061 -0.5399
 2335SOL    HW2 8457   9.098   2.245   2.724 -0.7558 -0.4102 -0.4737
 2336SOL     OW 8458   3.582   0.497   0.893 -0.2193  0.3377 -0.3831
 2336SOL    HW1 8459   3.669   0.488   0.931 -1.1981 -3.2650  1.4504
 2336SOL    HW2 8460   3.533   0.549   0.957 -0.7601 -2.2595  1.4560
 2337SOL     OW 8461   5.316   0.262   3.048 -0.1516 -0.5239 -0.1525
 2337SOL    HW1 8462   5.383   0.195   3.065 -0.9741 -1.7342 -1.4598
 2337SOL    HW2 8463   5.247   0.215   3.002 -2.3784  0.4657  1.9956
 2338SOL     OW 8464   6.959   5.800   6.275 -0.3388 -0.1962  0.2932
 2338SOL    HW1 8465   7.007   5.749   6.340  1.1766  0.4064 -0.2972
 2338SOL    HW2 8466   6.997   5.888   6.279 -0.3273 -0.0913 -1.2458
 2339SOL     OW 8467   6.491   3.330   1.757  0.6702  0.6525  0.3834
 2339SOL    HW1 8468   6.574   3.297   1.792  0.0769 -1.7284 -0.2585
 2339SOL    HW2 8469   6.433   3.335   1.832  0.6591 -0.1825  0.4345
 2340SOL     OW 8470   5.012   3.546   3.871 -0.0546 -0.1198 -0.2432
 2340SOL    HW1 8471   5.056   3.550   3.786  0.5994 -0.0389  0.0957
 2340SOL    HW2 8472   4.994   3.637   3.894 -0.8538 -0.1739 -0.6037
 2341SOL     OW 8473   3.259   8.758   8.574  0.0703  0.5285 -0.0926
 2341SOL    HW1 8474   3.332   8.816   8.556  0.2050  0.4598  0.2353
 2341SOL    HW2 8475   3.299   8.671   8.585 -0.0389  0.5196  0.2566
 2342SOL     OW 8476   6.752   1.505   4.012 -0.3599  0.1027  0.0614
 2342SOL    HW1 8477   6.745   1.552   4.095  0.2216  0.7464 -0.2459
 2342SOL    HW2 8478   6.839   1.464   4.016 -0.4299 -0.0641 -0.1316
 2343SOL     OW 8479   7.684   4.765   9.271 -0.1597 -0.2507 -0.0454
 2343SOL    HW1 8480   7.741   4.766   9.194  1.5046  1.3553  1.0878
 2343SOL    HW2 8481   7.638   4.849   9.268 -0.3775 -0.3468  0.4963
 2344SOL     OW 8482   3.954   3.045   2.086  0.6355  0.2154  0.6044
 2344SOL    HW1 8483   4.030   3.015   2.136  0.8245 -0.0451  0.1624
 2344SOL    HW2 8484   3.986   3.121   2.037  0.6070  0.1195  0.4363
 2345SOL     OW 8485   5.752   1.351   5.959  0.0499  0.2111 -0.4469
 2345SOL    HW1 8486   5.729   1.276   5.905 -0.4804 -0.3509  0.5308
 2345SOL    HW2 8487   5.846   1.365   5.944  0.7375 -2.1661  1.1664
 2346SOL     OW 8488   7.485   6.980   5.302  0.1775  0.3684  0.1895
 2346SOL    HW1 8489   7.401   6.999   5.344  0.9860 -0.5810  2.4412
 2346SOL    HW2 8490   7.484   6.885   5.290  0.3486  0.5229 -1.1708
 2347SOL     OW 8491   7.587   4.388   5.629 -0.1372  0.5826  0.1647
 2347SOL    HW1 8492   7.619   4.469   5.669  1.6429  0.1933 -0.3766
 2347SOL    HW2 8493   7.524   4.417   5.563 -0.6186  1.4130  0.9650
 2348SOL     OW 8494   6.135   6.056   7.160  0.2228 -0.3069  0.5171
 2348SOL    HW1 8495   6.158   6.133   7.108  0.5497 -1.0714 -0.5070
 2348SOL    HW2 8496   6.190   5.986   7.125 -0.6368 -1.1936  0.8911
 2349SOL     OW 8497   0.193   8.945   6.560 -0.3174  0.1220  0.6898
 2349SOL    HW1 8498   0.202   8.922   6.653 -0.2489  1.3525  1.0005
 2349SOL    HW2 8499   0.273   8.993   6.540 -0.7522  0.6619  0.2422
 2350SOL     OW 8500   4.832   8.261   1.501 -0.4715 -0.2052 -0.3501
 2350SOL    HW1 8501   4.914   8.290   1.461  0.4165 -1.3742  0.5405
 2350SOL    HW2 8502   4.859   8.221   1.584 -2.0661  0.4787  0.5426
 2351SOL     OW 8503   4.767   4.227   2.211  0.0580  0.1059 -0.3255
 2351SOL    HW1 8504   4.759   4.269   2.297  1.5089  0.5426 -0.3793
 2351SOL    HW2 8505   4.804   4.295   2.155 -1.5229  0.0429 -1.4986
 2352SOL     OW 8506   2.294   3.569   8.169 -0.2450  0.3967  0.1068
 2352SOL    HW1 8507   2.257   3.627   8.102 -1.5185 -0.4657  0.0218
 2352SOL    HW2 8508   2.233   3.575   8.242  0.6176  0.5765  0.8183
 2353SOL     OW 8509   6.039   0.172   2.615 -0.6955  0.1921 -0.0370
 2353SOL    HW1 8510   6.128   0.175   2.580 -0.2894  1.8340  1.0200
 2353SOL    HW2 8511   6.040   0.098   2.675 -0.5374 -0.7774 -1.1777
 2354SOL     OW 8512   7.979   4.088   2.732 -0.0229 -0.2847  0.5463
 2354SOL    HW1 8513   7.936   4.004   2.714 -2.0489  0.7752  0.1476
 2354SOL    HW2 8514   8.071   4.072   2.711  0.1152 -3.0460  2.7458
 2355SOL     OW 8515   6.634   8.886   7.439 -0.3970 -0.4081  0.3694
 2355SOL    HW1 8516   6.725   8.859   7.443 -0.1622  0.3342  0.2113
 2355SOL    HW2 8517   6.585   8.805   7.433  0.3148 -0.7727 -0.6260
 2356SOL     OW 8518   2.702   2.765   3.933 -0.4973  0.5700 -0.0690
 2356SOL    HW1 8519   2.670   2.801   4.016 -2.3691  1.4920 -1.1281
 2356SOL    HW2 8520   2.793   2.794   3.928 -1.0785  2.6726  0.5404
 2357SOL     OW 8521   5.794   5.072   1.582  0.0912 -0.2738  0.0231
 2357SOL    HW1 8522   5.887   5.066   1.605  0.3378  1.5256 -0.3692
 2357SOL    HW2 8523   5.760   4.983   1.598  2.1537 -1.3589 -1.1367
 2358SOL     OW 8524   7.218   5.830   1.068  0.2943  0.1913 -0.0668
 2358SOL    HW1 8525   7.163   5.754   1.049 -0.1323  0.1692  1.1308
 2358SOL    HW2 8526   7.170   5.877   1.137  1.5559  0.4025  0.6937
 2359SOL     OW 8527   5.502   2.533   3.581  0.0264  0.3278 -0.1466
 2359SOL    HW1 8528   5.563   2.607   3.580  1.3904 -0.6955  1.7916
 2359SOL    HW2 8529   5.553   2.459   3.549 -1.1560  0.0514 -1.5001
 2360SOL     OW 8530   6.607   0.530   0.945 -0.7702 -0.3415  0.1648
 2360SOL    HW1 8531   6.538   0.484   0.993  0.7297 -0.4182  2.3590
 2360SOL    HW2 8532   6.569   0.616   0.927 -1.9267 -0.8387  0.0882
 2361SOL     OW 8533   0.535   2.711   6.814 -0.5016 -0.0618 -0.0930
 2361SOL    HW1 8534   0.538   2.624   6.775 -0.3858  0.0121 -0.2469
 2361SOL    HW2 8535   0.582   2.702   6.897 -1.6143 -0.4693  0.5186
 2362SOL     OW 8536   0.344   1.972   3.042 -0.1355 -0.1429  0.2364
 2362SOL    HW1 8537   0.256   1.979   3.077  0.4624  1.2607  1.5965
 2362SOL    HW2 8538   0.369   1.881   3.056 -1.1950 -0.4381  0.2458
 2363SOL     OW 8539   5.334   5.526   8.468 -0.0411 -0.0565 -0.2888
 2363SOL    HW1 8540   5.347   5.574   8.550  0.3721 -0.7192  0.0353
 2363SOL    HW2 8541   5.401   5.458   8.468 -1.7337 -1.8039  0.1175
 2364SOL     OW 8542   0.268   8.645   5.717  0.7890 -0.1119 -0.1791
 2364SOL    HW1 8543   0.232   8.560   5.694 -0.7354  0.5459 -0.2981
 2364SOL    HW2 8544   0.325   8.668   5.644  1.2401 -1.0065 -0.1351
 2365SOL     OW 8545   9.045   8.763   2.463 -0.0084 -0.4624 -0.2916
 2365SOL    HW1 8546   8.972   8.726   2.414 -1.5649  1.6818  0.2446
 2365SOL    HW2 8547   9.120   8.758   2.404 -1.0635 -0.9200 -1.6318
 2366SOL     OW 8548   3.478   1.437   4.507  0.0036  0.7567  0.2160
 2366SOL    HW1 8549   3.565   1.411   4.476 -0.6068 -0.8209 -0.2538
 2366SOL    HW2 8550   3.481   1.533   4.508  1.3532  0.7613 -0.9577
 2367SOL     OW 8551   4.465   0.309   3.155 -0.4313  0.8129  0.7009
 2367SOL    HW1 8552   4.488   0.307   3.062 -0.4075  1.7582  0.6801
 2367SOL    HW2 8553   4.548   0.294   3.200 -0.6829 -1.3519  0.5895
 2368SOL     OW 8554   8.929   2.133   8.040 -0.3987 -0.1005  0.0593
 2368SOL    HW1 8555   8.920   2.172   8.127  3.4111  0.9189  0.2055
 2368SOL    HW2 8556   8.900   2.043   8.050  2.0944 -0.7329  3.1476
 2369SOL     OW 8557   6.827   6.262   0.931  0.4835 -0.2444 -0.2241
 2369SOL    HW1 8558   6.889   6.295   0.997 -0.8114  0.0955  0.8822
 2369SOL    HW2 8559   6.805   6.174   0.961 -0.0340 -0.1274 -0.2510
 2370SOL     OW 8560   6.652   2.264   8.664  0.4277  0.2946 -0.4336
 2370SOL    HW1 8561   6.682   2.326   8.731 -0.8904  0.7089 -0.1972
 2370SOL    HW2 8562   6.669   2.309   8.581 -0.3136  0.8896 -0.2721
 2371SOL     OW 8563   3.584   6.803   5.634  0.7116 -0.3116  0.1774
 2371SOL    HW1 8564   3.628   6.858   5.569  0.3135  0.8060  0.8166
 2371SOL    HW2 8565   3.511   6.763   5.586  1.1097 -0.4329 -0.3409
 2372SOL     OW 8566   4.106   6.052   4.411  0.2447 -0.1776 -0.1425
 2372SOL    HW1 8567   4.101   6.140   4.449  0.3268 -0.0160 -0.5008
 2372SOL    HW2 8568   4.096   6.066   4.317  0.9454 -0.4800 -0.2727
 2373SOL     OW 8569   3.774   0.250   6.185 -0.2524  0.5507  0.4949
 2373SOL    HW1 8570   3.694   0.265   6.235 -1.0595  5.2279 -1.6320
 2373SOL    HW2 8571   3.745   0.212   6.102  0.0889  0.0224  0.6084
 2374SOL     OW 8572   2.187   4.153   0.276 -0.3228 -0.0184  0.0133
 2374SOL    HW1 8573   2.260   4.201   0.315 -0.0475 -0.5958  0.2375
 2374SOL    HW2 8574   2.141   4.115   0.352 -2.0054  1.8915  0.0236
 2375SOL     OW 8575   5.599   9.128   0.922  0.2615  0.4178 -0.5080
 2375SOL    HW1 8576   5.572   9.213   0.886 -0.4031  0.3957 -0.0707
 2375SOL    HW2 8577   5.690   9.118   0.892  0.6994  1.7510  0.2839
 2376SOL     OW 8578   5.386   1.274   8.161  0.1296 -0.2628  0.1828
 2376SOL    HW1 8579   5.472   1.272   8.204  0.5336  0.2361 -0.5897
 2376SOL    HW2 8580   5.326   1.238   8.227  1.0066 -1.0897  0.5486
 2377SOL     OW 8581   4.395   8.009   0.546 -0.1445  0.2782 -0.2466
 2377SOL    HW1 8582   4.392   7.925   0.593 -1.5946 -0.5337 -1.6819
 2377SOL    HW2 8583   4.476   8.050   0.576  0.3653 -1.4212  0.8735
 2378SOL     OW 8584   3.781   2.684   7.514 -0.1553 -0.5505 -0.2669
 2378SOL    HW1 8585   3.758   2.633   7.436  1.6005  1.5211 -2.3136
 2378SOL    HW2 8586   3.876   2.676   7.520 -0.2079 -0.2193  1.3735
 2379SOL     OW 8587   5.167   1.082   5.757  0.6081  0.0001  0.1974
 2379SOL    HW1 8588   5.163   0.986   5.761 -0.5123  0.0877  2.3736
 2379SOL    HW2 8589   5.257   1.104   5.782  0.5612 -0.4489  0.7684
 2380SOL     OW 8590   5.522   7.861   7.958  0.1426 -0.2613 -0.5666
 2380SOL    HW1 8591   5.559   7.945   7.985  3.1347 -2.2119  2.1632
 2380SOL    HW2 8592   5.462   7.837   8.029  0.0504 -0.8480 -0.8356
 2381SOL     OW 8593   7.841   5.823   0.845  0.1338  0.0760  0.0287
 2381SOL    HW1 8594   7.850   5.730   0.866 -1.7814  0.4630  3.3945
 2381SOL    HW2 8595   7.766   5.827   0.786 -0.3499 -0.5074  0.5844
 2382SOL     OW 8596   8.618   8.222   6.750 -0.4707 -0.1873  0.2397
 2382SOL    HW1 8597   8.630   8.183   6.664  0.6802 -2.0184  1.1623
 2382SOL    HW2 8598   8.702   8.207   6.795 -0.5472  1.9811  1.2100
 2383SOL     OW 8599   6.522   7.999   2.732  0.7297  0.3977  0.2984
 2383SOL    HW1 8600   6.566   8.074   2.693  0.7424  1.2081  1.7955
 2383SOL    HW2 8601   6.593   7.943   2.763  0.7193 -0.2122 -0.7500
 2384SOL     OW 8602   4.793   7.750   0.667  0.1277  0.0509  0.0692
 2384SOL    HW1 8603   4.755   7.687   0.729  1.0081 -0.1497  0.4185
 2384SOL    HW2 8604   4.858   7.700   0.618  1.2403  0.7992  0.7283
 2385SOL     OW 8605   3.730   8.631   0.183  0.1570 -0.0147 -0.5430
 2385SOL    HW1 8606   3.728   8.717   0.143 -0.7530  0.0520 -0.3775
 2385SOL    HW2 8607   3.777   8.643   0.265 -0.2632  0.4014 -0.3604
 2386SOL     OW 8608   2.888   1.154   1.350 -0.5817  0.2622  0.1394
 2386SOL    HW1 8609   2.902   1.247   1.331 -1.2273  0.2262 -0.5577
 2386SOL    HW2 8610   2.907   1.146   1.444 -0.2153  1.0354  0.1431
 2387SOL     OW 8611   5.675   4.415   4.202  0.0328  0.5921 -0.5644
 2387SOL    HW1 8612   5.606   4.474   4.170  0.0623  1.0953  0.2936
 2387SOL    HW2 8613   5.627   4.341   4.239 -0.0370  0.7578 -0.3237
 2388SOL     OW 8614   6.709   4.344   3.728  0.1138 -0.3801  0.3306
 2388SOL    HW1 8615   6.756   4.424   3.704  0.5799 -0.3322  1.3444
 2388SOL    HW2 8616   6.638   4.337   3.664 -2.0140  2.6737  2.1084
 2389SOL     OW 8617   6.773   3.367   9.246  0.2757 -0.3155 -0.2564
 2389SOL    HW1 8618   6.850   3.345   9.299  0.6274 -0.2303 -0.7194
 2389SOL    HW2 8619   6.796   3.337   9.158 -0.1688 -0.1641 -0.4250
 2390SOL     OW 8620   2.868   6.600   4.408  0.2470  0.0345  0.1203
 2390SOL    HW1 8621   2.902   6.510   4.409 -1.0766 -0.4954 -0.0284
 2390SOL    HW2 8622   2.941   6.653   4.375  0.9582 -1.0274 -0.0662
 2391SOL     OW 8623   0.974   5.499   6.419  0.3287  0.0331 -0.1650
 2391SOL    HW1 8624   0.881   5.522   6.418 -0.2247 -2.0051 -0.0386
 2391SOL    HW2 8625   1.000   5.513   6.510 -0.0487 -0.0553 -0.0377
 2392SOL     OW 8626   0.931   3.508   2.603  0.1008 -0.1686  0.3362
 2392SOL    HW1 8627   0.846   3.553   2.602 -0.1477 -0.6359 -0.4583
 2392SOL    HW2 8628   0.962   3.517   2.693 -0.7338  0.1187  0.6023
 2393SOL     OW 8629   5.630   6.068   3.277  0.1732 -0.4178  0.1344
 2393SOL    HW1 8630   5.617   6.078   3.371 -1.7498  0.7324 -0.1930
 2393SOL    HW2 8631   5.653   6.156   3.246  0.1727 -0.6471 -0.5401
 2394SOL     OW 8632   1.062   3.512   7.850  0.4288  0.2491 -0.1065
 2394SOL    HW1 8633   0.989   3.562   7.885  1.3957  0.4929  1.6699
 2394SOL    HW2 8634   1.092   3.562   7.774 -1.5996 -0.1977 -1.2891
 2395SOL     OW 8635   6.994   1.524   4.702  0.0187 -0.1859  0.1396
 2395SOL    HW1 8636   7.028   1.563   4.782  0.2944  0.5893 -0.3477
 2395SOL    HW2 8637   6.986   1.597   4.640  0.5405 -0.8819 -0.7894
 2396SOL     OW 8638   4.612   3.173   0.052  0.0052  0.4379 -0.6209
 2396SOL    HW1 8639   4.670   3.221   0.112  0.7961 -0.0757 -0.9600
 2396SOL    HW2 8640   4.532   3.226   0.049 -0.8752 -0.4764  2.4216
 2397SOL     OW 8641   2.345   0.834   1.346 -0.0073  0.1193  0.6068
 2397SOL    HW1 8642   2.327   0.784   1.266 -1.6839  2.2908 -0.4860
 2397SOL    HW2 8643   2.279   0.805   1.408 -1.7090  1.6381 -0.3975
 2398SOL     OW 8644   7.379   6.759   7.540  0.4759  0.6434 -0.2051
 2398SOL    HW1 8645   7.349   6.824   7.476  0.1232 -1.1825 -2.0138
 2398SOL    HW2 8646   7.359   6.675   7.499  2.3963 -0.6385  1.3232
 2399SOL     OW 8647   6.997   8.251   6.819 -0.1474 -0.6653  0.0496
 2399SOL    HW1 8648   6.962   8.316   6.757 -2.2148 -2.8107 -1.2024
 2399SOL    HW2 8649   6.962   8.278   6.904 -0.9167 -0.0736 -0.4353
 2400SOL     OW 8650   4.455   2.624   5.364  0.0427 -0.2530 -0.1836
 2400SOL    HW1 8651   4.522   2.586   5.307 -1.5515 -1.0091 -1.6493
 2400SOL    HW2 8652   4.481   2.715   5.374  2.4232 -0.9928  1.0747
 2401SOL     OW 8653   8.392   6.058   3.888  0.0629  0.1750 -0.4189
 2401SOL    HW1 8654   8.455   6.124   3.918  1.4161 -1.5728  0.7779
 2401SOL    HW2 8655   8.331   6.048   3.961 -2.2563  2.4800 -1.8937
 2402SOL     OW 8656   3.413   5.025   5.388  0.2667  0.0429 -0.0681
 2402SOL    HW1 8657   3.419   4.993   5.298 -0.9669  1.6064 -0.7433
 2402SOL    HW2 8658   3.362   4.959   5.434 -0.7899  0.1833 -1.0109
 2403SOL     OW 8659   4.309   8.353   6.751 -0.1310 -0.3132  0.7418
 2403SOL    HW1 8660   4.236   8.402   6.714 -1.7092 -2.6090  0.6623
 2403SOL    HW2 8661   4.301   8.364   6.846  0.4667  0.8150  0.6776
 2404SOL     OW 8662   5.981   8.233   3.863  0.7790  0.7545 -0.2498
 2404SOL    HW1 8663   5.907   8.291   3.881  0.3567  0.4811 -1.0619
 2404SOL    HW2 8664   6.050   8.292   3.832  0.7415  0.9561  0.0450
 2405SOL     OW 8665   0.143   5.528   9.037  0.9075  0.5745 -0.3957
 2405SOL    HW1 8666   0.117   5.581   8.962 -0.0234 -2.7790 -2.6823
 2405SOL    HW2 8667   0.082   5.454   9.036  1.1645  0.1295  3.4694
 2406SOL     OW 8668   6.124   4.848   5.589  0.1951  0.0098 -0.1121
 2406SOL    HW1 8669   6.072   4.798   5.525 -0.0886 -0.5291  0.5303
 2406SOL    HW2 8670   6.214   4.842   5.557  0.0736 -0.3609 -0.3957
 2407SOL     OW 8671   1.179   2.089   7.230  0.2701  0.1839 -0.2334
 2407SOL    HW1 8672   1.265   2.060   7.259  1.1470  2.6039 -0.1932
 2407SOL    HW2 8673   1.175   2.181   7.253 -1.7768  0.5030 -1.5406
 2408SOL     OW 8674   2.890   6.455   8.693 -0.1799 -0.0748 -0.3568
 2408SOL    HW1 8675   2.872   6.532   8.639  0.8502 -0.1110 -0.7642
 2408SOL    HW2 8676   2.806   6.409   8.697 -0.8756  1.1625  0.0659
 2409SOL     OW 8677   9.087   4.918   3.472 -0.0334  0.5556 -0.2266
 2409SOL    HW1 8678   8.993   4.900   3.474  0.3428 -2.0805 -1.2243
 2409SOL    HW2 8679   9.099   4.981   3.401 -1.1149  1.7495  0.6209
 2410SOL     OW 8680   0.638   6.201   9.219 -0.2206 -0.6578 -0.6305
 2410SOL    HW1 8681   0.606   6.263   9.153  1.1210  0.7733 -0.0246
 2410SOL    HW2 8682   0.560   6.154   9.248 -1.1001 -0.1106 -2.0069
 2411SOL     OW 8683   3.733   7.723   2.402  0.1855  0.0620 -0.1492
 2411SOL    HW1 8684   3.775   7.805   2.427  0.7961 -0.1816 -0.3416
 2411SOL    HW2 8685   3.707   7.735   2.311  1.0651 -0.2551 -0.4545
 2412SOL     OW 8686   7.521   9.261   3.664  0.2455  0.1956  0.1697
 2412SOL    HW1 8687   7.439   9.240   3.708  0.2681  0.0188  0.1298
 2412SOL    HW2 8688   7.494   9.300   3.580  0.2026  0.7625  0.4427
 2413SOL     OW 8689   5.625   6.420   7.127  0.1730  0.0933 -0.2317
 2413SOL    HW1 8690   5.713   6.452   7.146  0.0016  0.8018 -0.5623
 2413SOL    HW2 8691   5.638   6.332   7.093  0.6863 -0.1163  0.5031
 2414SOL     OW 8692   4.025   0.613   0.282 -0.0371  0.2550  0.0286
 2414SOL    HW1 8693   4.101   0.666   0.306  0.6556 -0.4192 -0.6394
 2414SOL    HW2 8694   4.014   0.552   0.354  1.6941 -1.3908 -1.0013
 2415SOL     OW 8695   1.408   8.512   6.085  0.6109  0.5060  0.2358
 2415SOL    HW1 8696   1.451   8.548   6.162  1.0597  0.1519  0.1572
 2415SOL    HW2 8697   1.368   8.588   6.042 -1.4058  0.4591  1.8830
 2416SOL     OW 8698   3.437   1.085   8.886 -0.0014  0.0439  0.3793
 2416SOL    HW1 8699   3.407   1.053   8.972  0.4839  0.7576  0.8252
 2416SOL    HW2 8700   3.505   1.149   8.907  0.1150  0.2327 -0.5455
 2417SOL     OW 8701   1.821   5.216   3.086 -0.0354 -0.4821 -0.2596
 2417SOL    HW1 8702   1.893   5.190   3.143 -0.3155  0.5133  0.5790
 2417SOL    HW2 8703   1.845   5.304   3.056 -0.9373 -0.0898  0.1213
 2418SOL     OW 8704   2.958   5.423   4.881 -0.1708  0.2402  0.3393
 2418SOL    HW1 8705   2.880   5.391   4.926  0.3948 -1.4556  0.1682
 2418SOL    HW2 8706   3.028   5.420   4.946  0.2008 -0.2661 -0.0713
 2419SOL     OW 8707   6.503   6.339   8.044  0.1547 -0.0298 -0.4443
 2419SOL    HW1 8708   6.431   6.402   8.051  0.4731  0.4974 -1.5495
 2419SOL    HW2 8709   6.581   6.394   8.037  0.2791 -0.3936 -3.4589
 2420SOL     OW 8710   0.351   2.389   5.630  0.3165 -0.1367 -0.0214
 2420SOL    HW1 8711   0.342   2.335   5.551  1.2131  1.3833 -1.2280
 2420SOL    HW2 8712   0.262   2.398   5.664  0.1775 -2.6229  0.4480
 2421SOL     OW 8713   7.833   4.704   2.488 -0.1886  0.5020  0.0856
 2421SOL    HW1 8714   7.750   4.714   2.442  0.2003  1.2731 -0.4600
 2421SOL    HW2 8715   7.830   4.770   2.557 -0.3999 -0.0732  0.6429
 2422SOL     OW 8716   7.069   6.942   0.576  0.3182 -0.0147  0.1321
 2422SOL    HW1 8717   7.040   6.856   0.546  0.4791 -0.4293  1.1365
 2422SOL    HW2 8718   7.035   6.950   0.665  2.3718 -0.1060  0.9962
 2423SOL     OW 8719   8.105   2.448   4.954  0.0697 -0.0449 -0.1877
 2423SOL    HW1 8720   8.018   2.478   4.979 -0.0061  0.0886 -0.5968
 2423SOL    HW2 8721   8.135   2.395   5.028  0.1530  0.9166  0.4801
 2424SOL     OW 8722   8.953   7.853   0.772  0.0693  0.0868  0.1151
 2424SOL    HW1 8723   8.879   7.863   0.832 -0.5045  0.3145 -0.6164
 2424SOL    HW2 8724   9.004   7.781   0.809  1.0861  1.7951  2.2292
 2425SOL     OW 8725   3.671   2.853   2.340 -0.0496 -0.3481  0.0273
 2425SOL    HW1 8726   3.676   2.832   2.247  0.7145  0.0532 -0.0296
 2425SOL    HW2 8727   3.626   2.937   2.344  1.4919  0.5272 -0.1300
 2426SOL     OW 8728   3.104   7.863   5.084  0.0628 -0.0191  0.0965
 2426SOL    HW1 8729   3.196   7.855   5.107  0.1989 -3.1672 -1.0715
 2426SOL    HW2 8730   3.062   7.788   5.127 -1.9241  1.1010  0.2666
 2427SOL     OW 8731   3.475   0.424   5.880 -0.4078  0.2564  0.3988
 2427SOL    HW1 8732   3.560   0.464   5.898 -2.1511  3.6010  2.2258
 2427SOL    HW2 8733   3.437   0.409   5.967 -2.2713  0.2831 -0.3623
 2428SOL     OW 8734   4.035   8.390   1.447  0.0010 -0.1074  0.8775
 2428SOL    HW1 8735   3.954   8.347   1.474 -0.1795 -0.7298 -0.5608
 2428SOL    HW2 8736   4.016   8.423   1.359  1.9356 -2.0710 -0.3441
 2429SOL     OW 8737   8.816   5.177   5.057 -0.1640 -0.5866  0.0308
 2429SOL    HW1 8738   8.753   5.162   5.127 -0.0438 -4.2473 -0.4796
 2429SOL    HW2 8739   8.808   5.271   5.038 -1.9643  0.0508  3.1813
 2430SOL     OW 8740   8.361   2.531   7.829  0.4415  0.2747 -0.4243
 2430SOL    HW1 8741   8.396   2.579   7.753  3.7911  1.2001  1.4647
 2430SOL    HW2 8742   8.399   2.576   7.904 -0.4636 -2.2797  1.7017
 2431SOL     OW 8743   1.639   3.199   6.304 -0.1141  0.3240 -0.3318
 2431SOL    HW1 8744   1.642   3.261   6.231 -0.2236  0.7663  0.0337
 2431SOL    HW2 8745   1.695   3.238   6.371 -0.7931  0.4163  0.1942
 2432SOL     OW 8746   5.782   6.596   0.038 -0.2113 -0.4857  0.1272
 2432SOL    HW1 8747   5.748   6.523   0.090 -1.5328  0.3759  0.5229
 2432SOL    HW2 8748   5.866   6.618   0.080 -0.1230 -1.3339  0.4104
 2433SOL     OW 8749   6.162   7.966   7.987 -0.7776  0.2053  0.3802
 2433SOL    HW1 8750   6.157   7.889   8.045  1.3631  0.0470  0.4235
 2433SOL    HW2 8751   6.085   7.958   7.931 -2.3756 -0.2005  2.4825
 2434SOL     OW 8752   4.516   5.563   3.697 -0.0236  0.1853 -0.1256
 2434SOL    HW1 8753   4.453   5.631   3.720 -0.1256  0.3832 -0.9584
 2434SOL    HW2 8754   4.505   5.497   3.765 -2.7898 -0.8936 -1.4740
 2435SOL     OW 8755   8.143   6.720   8.026  0.1060 -0.1074  0.7074
 2435SOL    HW1 8756   8.231   6.733   7.989 -0.3931  1.6091  0.0143
 2435SOL    HW2 8757   8.122   6.803   8.068 -0.9412 -0.7150  1.4221
 2436SOL     OW 8758   8.546   1.723   0.641 -0.0136  0.2377  0.0569
 2436SOL    HW1 8759   8.540   1.633   0.673 -1.2501  0.6399  1.0171
 2436SOL    HW2 8760   8.539   1.777   0.720  3.0885  1.1791 -0.1782
 2437SOL     OW 8761   5.723   1.682   3.014  0.1025 -0.1006  0.9990
 2437SOL    HW1 8762   5.667   1.623   2.965  0.1341  1.8575 -1.5969
 2437SOL    HW2 8763   5.674   1.764   3.019  2.1932  1.3312 -0.3719
 2438SOL     OW 8764   2.809   8.268   7.799  0.3206  0.8730 -0.0889
 2438SOL    HW1 8765   2.722   8.267   7.758  0.6914  0.9471 -0.8936
 2438SOL    HW2 8766   2.792   8.293   7.890 -0.4509  1.4153 -0.3679
 2439SOL     OW 8767   1.587   8.855   8.968 -1.0034  0.3327 -0.1086
 2439SOL    HW1 8768   1.491   8.851   8.959 -0.9076  0.4283 -1.4120
 2439SOL    HW2 8769   1.618   8.774   8.929 -0.4627  1.2482 -1.6960
 2440SOL     OW 8770   9.006   6.018   6.703 -0.2411 -0.5794  0.2995
 2440SOL    HW1 8771   9.095   5.985   6.718  0.2974  1.5512  2.4250
 2440SOL    HW2 8772   8.958   5.992   6.782 -1.2663 -0.8217 -0.3792
 2441SOL     OW 8773   1.511   7.039   0.610 -0.3998  0.3303  0.5298
 2441SOL    HW1 8774   1.452   7.113   0.603 -0.0836  0.4406 -2.3509
 2441SOL    HW2 8775   1.483   6.979   0.540  0.2268 -1.6453  1.8709
 2442SOL     OW 8776   5.852   7.267   3.073 -0.4634 -0.3170 -0.2644
 2442SOL    HW1 8777   5.930   7.266   3.128  0.2654 -1.0837 -1.2524
 2442SOL    HW2 8778   5.826   7.174   3.067 -1.2814 -0.1029 -0.1924
 2443SOL     OW 8779   5.778   3.650   4.833  0.1933 -0.0234 -0.4738
 2443SOL    HW1 8780   5.714   3.695   4.888  0.0530  0.6792 -1.1839
 2443SOL    HW2 8781   5.739   3.565   4.814  0.6737 -0.6714  1.2863
 2444SOL     OW 8782   6.117   0.832   7.521 -0.1846 -1.0411 -0.0801
 2444SOL    HW1 8783   6.090   0.913   7.564 -0.2475 -0.2380 -1.5612
 2444SOL    HW2 8784   6.064   0.764   7.563 -0.6980 -0.2057  0.6589
 2445SOL     OW 8785   3.316   6.857   8.591  0.2589  0.1680 -0.1300
 2445SOL    HW1 8786   3.340   6.790   8.655 -0.3509 -0.6181 -0.7075
 2445SOL    HW2 8787   3.240   6.820   8.545  1.2119  0.3402 -1.9034
 2446SOL     OW 8788   4.183   1.905   1.849  0.3730  0.7444 -0.3867
 2446SOL    HW1 8789   4.265   1.859   1.829  1.2827  1.5487  1.3277
 2446SOL    HW2 8790   4.203   1.958   1.926 -2.0308  0.2102  0.7092
 2447SOL     OW 8791   7.883   2.524   7.440  0.1838  0.2230 -0.4713
 2447SOL    HW1 8792   7.829   2.595   7.405 -0.8841 -0.5765 -0.4742
 2447SOL    HW2 8793   7.832   2.490   7.514  1.1003  0.0333  0.0820
 2448SOL     OW 8794   8.993   2.018   4.513  0.7795  0.6398 -0.2681
 2448SOL    HW1 8795   8.930   2.089   4.497  0.6223  1.1419  2.1799
 2448SOL    HW2 8796   8.940   1.939   4.514  0.1286  1.0461  1.6583
 2449SOL     OW 8797   3.819   1.022   1.588  0.1809  0.2691 -0.4772
 2449SOL    HW1 8798   3.866   0.955   1.638 -0.1293  0.9810  0.8161
 2449SOL    HW2 8799   3.729   1.017   1.620 -0.4118 -0.3052 -2.1177
 2450SOL     OW 8800   2.043   2.174   4.400  0.5010 -0.4365 -0.1264
 2450SOL    HW1 8801   1.995   2.256   4.413 -0.0382 -0.0572 -3.4566
 2450SOL    HW2 8802   1.976   2.105   4.408  0.9220 -0.6311  2.4973
 2451SOL     OW 8803   5.748   7.584   2.321  0.2874  0.0643  0.2998
 2451SOL    HW1 8804   5.835   7.617   2.344  0.5618 -0.8706  0.6362
 2451SOL    HW2 8805   5.755   7.561   2.228  0.6473 -0.7574  0.5220
 2452SOL     OW 8806   0.255   5.549   0.413  0.6835 -0.1508  0.1646
 2452SOL    HW1 8807   0.342   5.514   0.395  1.1076  1.0782 -0.2961
 2452SOL    HW2 8808   0.237   5.522   0.503  0.7580 -1.9449 -0.3269
 2453SOL     OW 8809   2.957   5.121   1.529 -0.1179 -0.1944 -0.0867
 2453SOL    HW1 8810   2.912   5.116   1.445  0.7206 -0.8282 -0.5126
 2453SOL    HW2 8811   2.921   5.199   1.571 -1.8442 -0.8405 -0.2591
 2454SOL     OW 8812   8.725   5.623   4.568  0.2739  0.3670 -0.3476
 2454SOL    HW1 8813   8.719   5.640   4.474 -3.3639 -2.5047 -0.8370
 2454SOL    HW2 8814   8.751   5.531   4.575 -1.9916 -0.2197  1.3165
 2455SOL     OW 8815   4.766   7.739   2.812 -0.3956  0.3440 -0.5345
 2455SOL    HW1 8816   4.730   7.828   2.812  0.4845  0.7293 -1.9340
 2455SOL    HW2 8817   4.819   7.735   2.891  0.8411  1.6367 -1.2447
 2456SOL     OW 8818   1.059   1.780   0.855 -0.3728  0.1338 -0.2970
 2456SOL    HW1 8819   1.130   1.759   0.795  0.7145 -1.6857  1.4847
 2456SOL    HW2 8820   1.014   1.696   0.869 -0.0107  0.2542  2.0585
 2457SOL     OW 8821   8.400   1.516   7.335  1.0041  0.0927  0.3307
 2457SOL    HW1 8822   8.322   1.464   7.352  1.4791 -0.1225  2.0529
 2457SOL    HW2 8823   8.414   1.509   7.241 -1.7673  1.1959 -0.2581
 2458SOL     OW 8824   2.504   6.114   2.140  1.3405 -0.1376  0.1663
 2458SOL    HW1 8825   2.511   6.109   2.236 -0.8099 -0.6884  0.3547
 2458SOL    HW2 8826   2.418   6.078   2.121 -0.2414  4.0026 -1.6290
 2459SOL     OW 8827   5.241   5.449   4.216  0.0895  0.0641 -0.3458
 2459SOL    HW1 8828   5.237   5.423   4.124 -3.2380  0.4101 -0.4365
 2459SOL    HW2 8829   5.218   5.369   4.264  1.5636 -0.0518  0.2029
 2460SOL     OW 8830   2.092   6.133   3.167  0.3435  0.0733 -0.0914
 2460SOL    HW1 8831   2.115   6.140   3.074  0.1205 -2.0048 -0.3506
 2460SOL    HW2 8832   2.011   6.082   3.167  0.0687  0.4692  1.2460
 2461SOL     OW 8833   6.507   6.776   8.755 -0.2382 -0.4941 -0.1160
 2461SOL    HW1 8834   6.579   6.714   8.769  1.3492 -0.3175 -5.3239
 2461SOL    HW2 8835   6.442   6.726   8.705  0.3840  1.3988 -3.0705
 2462SOL     OW 8836   8.323   5.751   8.585  0.7824 -0.3263 -0.1378
 2462SOL    HW1 8837   8.344   5.840   8.610 -0.5905 -0.1460  0.4542
 2462SOL    HW2 8838   8.343   5.747   8.491 -0.0950  0.9074 -0.3965
 2463SOL     OW 8839   8.455   2.998   0.413 -0.2734 -0.2670  0.0791
 2463SOL    HW1 8840   8.383   3.059   0.428  0.8942  1.2201 -0.1074
 2463SOL    HW2 8841   8.489   2.979   0.500  1.2209  1.7435 -0.0057
 2464SOL     OW 8842   9.027   1.642   7.265 -0.2304  0.3100  0.1317
 2464SOL    HW1 8843   9.087   1.589   7.318  0.6143  0.7590 -0.3445
 2464SOL    HW2 8844   9.069   1.727   7.259 -0.7489  0.5337 -0.5126
 2465SOL     OW 8845   1.370   5.840   8.275 -0.2270 -0.4686 -0.1894
 2465SOL    HW1 8846   1.369   5.819   8.181 -1.1823 -2.8136  0.2759
 2465SOL    HW2 8847   1.412   5.765   8.316  1.3856  1.0904  1.2191
 2466SOL     OW 8848   0.089   3.358   3.138 -0.4409 -0.1061 -0.0095
 2466SOL    HW1 8849   0.001   3.343   3.103  0.0504 -2.5341 -0.3481
 2466SOL    HW2 8850   0.138   3.392   3.063 -0.6480 -0.3969 -0.2781
 2467SOL     OW 8851   8.904   7.705   8.374  0.8428  0.2596 -0.6946
 2467SOL    HW1 8852   8.866   7.620   8.356 -0.6213  0.4502  1.2157
 2467SOL    HW2 8853   8.841   7.768   8.338  1.6774  0.5856 -1.6558
 2468SOL     OW 8854   3.041   8.860   2.099  0.0941 -1.3232 -0.0361
 2468SOL    HW1 8855   2.971   8.831   2.157 -0.1354 -0.9621 -0.1291
 2468SOL    HW2 8856   3.044   8.796   2.029 -1.2559 -0.4619 -0.9282
 2469SOL     OW 8857   6.882   9.161   5.649  0.2475 -0.2045 -0.2945
 2469SOL    HW1 8858   6.925   9.082   5.616 -2.3351 -1.8759  0.0231
 2469SOL    HW2 8859   6.820   9.185   5.579  0.5948  1.2245 -0.1383
 2470SOL     OW 8860   4.205   4.756   5.185  0.1193  0.1199 -0.2522
 2470SOL    HW1 8861   4.185   4.676   5.136  1.0510 -0.1306 -0.2519
 2470SOL    HW2 8862   4.170   4.827   5.131 -1.5193 -0.3173  0.1781
 2471SOL     OW 8863   8.234   2.982   1.170  0.3446  0.5153  0.4855
 2471SOL    HW1 8864   8.200   2.981   1.081  1.6969  0.7030 -0.0679
 2471SOL    HW2 8865   8.220   3.071   1.201  0.9666  0.8011 -0.0141
 2472SOL     OW 8866   4.937   6.455   8.533 -0.5240  0.3546  0.1798
 2472SOL    HW1 8867   4.862   6.448   8.592 -0.3334 -1.2607  0.2715
 2472SOL    HW2 8868   4.900   6.448   8.445 -0.5831  0.5815  0.1863
 2473SOL     OW 8869   0.166   2.224   3.439 -0.4555 -0.5413  0.0205
 2473SOL    HW1 8870   0.091   2.243   3.494 -0.2766  0.0531  0.0706
 2473SOL    HW2 8871   0.218   2.161   3.489 -0.6945 -0.6056  0.1846
 2474SOL     OW 8872   2.399   3.307   1.731  0.2170  0.5058 -0.0688
 2474SOL    HW1 8873   2.413   3.401   1.743  0.7057  0.5860 -1.1308
 2474SOL    HW2 8874   2.421   3.291   1.639  2.1679 -1.0029  0.5751
 2475SOL     OW 8875   6.720   5.076   0.553  0.1772 -0.1220  0.4589
 2475SOL    HW1 8876   6.743   5.000   0.499 -1.1270 -1.0310  1.1312
 2475SOL    HW2 8877   6.803   5.106   0.589  0.7594 -0.9947 -0.1249
 2476SOL     OW 8878   2.088   4.801   1.670 -0.5042 -0.0365 -0.4579
 2476SOL    HW1 8879   2.024   4.739   1.705  0.3621 -1.4358 -1.2458
 2476SOL    HW2 8880   2.040   4.883   1.659 -2.1924 -1.0807 -1.1942
 2477SOL     OW 8881   8.064   5.438   1.007 -0.4448 -0.6779 -0.4155
 2477SOL    HW1 8882   8.013   5.358   0.992 -0.6688 -0.2979 -1.8317
 2477SOL    HW2 8883   8.032   5.500   0.941  1.2807 -0.1622 -0.8345
 2478SOL     OW 8884   7.004   5.335   0.322  0.1155 -0.2787 -0.4961
 2478SOL    HW1 8885   6.931   5.397   0.324  0.6773  0.4345 -1.5730
 2478SOL    HW2 8886   7.075   5.381   0.367  0.0425 -0.7949  0.1526
 2479SOL     OW 8887   2.930   0.469   8.326  0.6421  0.4419  0.0628
 2479SOL    HW1 8888   2.865   0.515   8.273  0.7309 -1.2868 -1.6423
 2479SOL    HW2 8889   2.889   0.461   8.412 -0.8691  0.5519 -0.6096
 2480SOL     OW 8890   6.842   3.889   7.481 -0.2198 -0.3040 -0.0170
 2480SOL    HW1 8891   6.820   3.962   7.423 -0.1409 -0.5655 -0.3802
 2480SOL    HW2 8892   6.916   3.920   7.533 -0.5005  0.0493  0.1698
 2481SOL     OW 8893   2.922   1.535   0.902 -0.0010  0.3158  0.8113
 2481SOL    HW1 8894   2.950   1.578   0.821  1.7025 -0.6011  0.8631
 2481SOL    HW2 8895   2.999   1.542   0.960 -1.0599  0.6511  2.2342
 2482SOL     OW 8896   6.566   2.168   7.648 -0.5852  0.3210 -0.1959
 2482SOL    HW1 8897   6.642   2.118   7.679 -0.9442 -1.0540 -1.4096
 2482SOL    HW2 8898   6.498   2.149   7.713 -0.2735  0.5075  0.1922
 2483SOL     OW 8899   0.579   5.259   6.976 -0.0848  0.7581 -0.0328
 2483SOL    HW1 8900   0.602   5.191   7.039  1.6930  1.1777 -0.1697
 2483SOL    HW2 8901   0.547   5.212   6.899  0.2144  0.1256  0.2268
 2484SOL     OW 8902   8.570   3.925   6.651 -0.1597 -0.0649 -0.1083
 2484SOL    HW1 8903   8.543   4.001   6.703  0.1350  0.6909 -1.0371
 2484SOL    HW2 8904   8.655   3.949   6.615  0.3304 -1.1776  0.2493
 2485SOL     OW 8905   5.061   3.765   1.623 -0.3547  0.1704  0.2630
 2485SOL    HW1 8906   5.071   3.776   1.529 -1.2741 -0.4622  0.0739
 2485SOL    HW2 8907   5.042   3.672   1.635 -0.7705  0.3386  1.0182
 2486SOL     OW 8908   7.957   7.232   0.066 -0.0585 -0.0719  0.4771
 2486SOL    HW1 8909   7.878   7.275   0.033 -0.1950 -0.9385 -0.3738
 2486SOL    HW2 8910   7.953   7.143   0.030  0.5494 -0.6012  1.6484
 2487SOL     OW 8911   5.985   7.808   1.137 -0.2274 -0.4124  0.3505
 2487SOL    HW1 8912   6.044   7.769   1.072 -0.4974  0.4853 -0.4559
 2487SOL    HW2 8913   5.922   7.739   1.156  0.1012 -0.8288 -0.0405
 2488SOL     OW 8914   0.920   4.491   3.264  0.7174  0.5284 -0.0823
 2488SOL    HW1 8915   0.966   4.564   3.222  0.1125 -0.0737 -1.8701
 2488SOL    HW2 8916   0.835   4.528   3.289  0.9627  0.8095  0.3444
 2489SOL     OW 8917   4.992   4.711   6.910 -0.2278 -0.1568  0.4582
 2489SOL    HW1 8918   5.044   4.683   6.835  1.1360  0.3647  1.1617
 2489SOL    HW2 8919   5.055   4.712   6.983 -1.5428 -0.7806  1.6321
 2490SOL     OW 8920   2.329   6.744   3.939  0.7638  0.7091 -0.0016
 2490SOL    HW1 8921   2.245   6.742   3.894  2.1991 -0.9921 -2.9071
 2490SOL    HW2 8922   2.391   6.708   3.876  3.1552 -1.2698  3.1591
 2491SOL     OW 8923   6.503   9.088   6.529  0.1516  0.5360  0.4948
 2491SOL    HW1 8924   6.528   9.175   6.496  1.2813  1.1027  2.6792
 2491SOL    HW2 8925   6.582   9.055   6.573 -1.0473 -0.4467  1.9975
 2492SOL     OW 8926   0.445   1.584   0.828 -0.1734  0.5990  0.5321
 2492SOL    HW1 8927   0.455   1.655   0.893 -1.1065 -0.6096  2.0748
 2492SOL    HW2 8928   0.481   1.620   0.748  1.6991  1.9385  1.8810
 2493SOL     OW 8929   0.856   8.396   4.931 -0.2111 -0.2820  0.4870
 2493SOL    HW1 8930   0.815   8.469   4.978  0.0439  0.1542  0.0416
 2493SOL    HW2 8931   0.948   8.400   4.955 -0.1310 -0.2363  0.1825
 2494SOL     OW 8932   2.075   4.763   8.133 -0.7787 -0.3485  0.7214
 2494SOL    HW1 8933   1.997   4.819   8.127 -0.3827  0.2397  0.9788
 2494SOL    HW2 8934   2.066   4.718   8.217 -0.1863  0.7402  1.3983
 2495SOL     OW 8935   4.199   7.409   0.945 -0.0339  0.1916 -0.0011
 2495SOL    HW1 8936   4.164   7.373   1.027 -0.5225 -0.2768 -0.4109
 2495SOL    HW2 8937   4.210   7.502   0.963  1.6637 -0.1902  1.2285
 2496SOL     OW 8938   0.011   6.881   6.787 -0.5575 -0.5318 -0.6566
 2496SOL    HW1 8939   0.101   6.860   6.763 -0.2852 -0.0801 -0.0762
 2496SOL    HW2 8940  -0.024   6.927   6.711 -0.3148 -0.7456 -0.9017
 2497SOL     OW 8941   0.463   0.308   8.444  0.0283  0.4691  0.1246
 2497SOL    HW1 8942   0.383   0.347   8.480  0.2120  1.6752 -0.7117
 2497SOL    HW2 8943   0.533   0.348   8.495  0.1024 -1.6561  1.8447
 2498SOL     OW 8944   6.918   5.236   8.523 -0.1758 -0.3958 -0.3946
 2498SOL    HW1 8945   6.829   5.236   8.488  0.1726  0.7484 -1.3337
 2498SOL    HW2 8946   6.974   5.231   8.446  0.5949  0.9391  0.0464
 2499SOL     OW 8947   2.807   3.783   2.082  0.0014  0.6449  0.4156
 2499SOL    HW1 8948   2.895   3.812   2.058 -0.8384  2.2712 -0.9436
 2499SOL    HW2 8949   2.756   3.864   2.090 -1.8925 -0.3049 -1.0910
 2500SOL     OW 8950   7.434   3.317   8.649  0.2782 -0.3407  0.1666
 2500SOL    HW1 8951   7.497   3.344   8.582 -0.4388 -1.2019 -0.9011
 2500SOL    HW2 8952   7.352   3.304   8.600 -0.4341 -0.3506  1.3272
 2501SOL     OW 8953   6.252   1.879   8.007 -0.4340  0.0502  0.0954
 2501SOL    HW1 8954   6.312   1.919   8.071  1.3616  0.5448 -1.7747
 2501SOL    HW2 8955   6.176   1.853   8.058  0.1769  1.9692  2.1370
 2502SOL     OW 8956   7.900   5.522   2.610 -0.1144  0.1965 -0.0597
 2502SOL    HW1 8957   7.991   5.549   2.608  0.3401 -1.2131 -3.0695
 2502SOL    HW2 8958   7.857   5.586   2.668  2.9281  0.0877  2.5722
 2503SOL     OW 8959   4.412   0.849   1.804  0.5310  0.2405 -0.5185
 2503SOL    HW1 8960   4.333   0.815   1.847 -0.1326  0.4242 -1.5636
 2503SOL    HW2 8961   4.458   0.896   1.874 -0.7164  0.8712 -0.0805
 2504SOL     OW 8962   3.975   1.249   4.659 -0.4389  0.0128  0.0341
 2504SOL    HW1 8963   3.913   1.245   4.732 -2.0521  0.7770 -1.2315
 2504SOL    HW2 8964   3.961   1.167   4.611 -0.2561  0.0636 -0.1088
 2505SOL     OW 8965   1.435   7.541   0.840  0.3134 -0.4410  0.4870
 2505SOL    HW1 8966   1.517   7.562   0.796  0.0755 -1.1964 -0.3579
 2505SOL    HW2 8967   1.368   7.556   0.773 -0.2073 -0.2159  1.0458
 2506SOL     OW 8968   2.225   4.004   1.247 -0.7660  0.4226  0.3698
 2506SOL    HW1 8969   2.207   3.948   1.172 -1.1428  2.0263 -0.7905
 2506SOL    HW2 8970   2.284   3.953   1.303 -1.3120 -1.2016 -0.4921
 2507SOL     OW 8971   2.133   5.593   0.179 -0.5787  0.1378 -0.1938
 2507SOL    HW1 8972   2.222   5.566   0.198 -0.8676  0.0967  1.2190
 2507SOL    HW2 8973   2.132   5.609   0.085  1.1882  1.1479 -0.0835
 2508SOL     OW 8974   1.735   7.011   4.478  0.0104  0.4882  0.5797
 2508SOL    HW1 8975   1.776   7.086   4.436 -0.9779  1.7180  1.7374
 2508SOL    HW2 8976   1.675   7.049   4.542 -0.7318 -1.2899  0.9908
 2509SOL     OW 8977   8.990   5.033   8.458  0.0148  0.2181  0.2374
 2509SOL    HW1 8978   9.025   5.024   8.546 -0.0126  1.1024  0.3520
 2509SOL    HW2 8979   8.924   5.101   8.465 -0.1026  0.1837 -0.4342
 2510SOL     OW 8980   2.106   4.037   3.436  0.1067  0.2351 -0.3662
 2510SOL    HW1 8981   2.148   3.962   3.394  2.4015  1.1835  0.1029
 2510SOL    HW2 8982   2.144   4.114   3.393  0.7570  1.1865  1.7360
 2511SOL     OW 8983   6.634   4.548   7.078 -0.0060 -0.2510  0.1284
 2511SOL    HW1 8984   6.654   4.468   7.126  2.1562  0.7169  0.9728
 2511SOL    HW2 8985   6.549   4.576   7.112  0.5596 -0.6546  1.9837
 2512SOL     OW 8986   6.866   3.329   8.985 -0.4279 -0.3168 -0.2865
 2512SOL    HW1 8987   6.933   3.276   8.944  1.3211  1.2281  0.4335
 2512SOL    HW2 8988   6.792   3.325   8.925  0.1988 -2.2418 -0.9966
 2513SOL     OW 8989   5.210   5.892   0.369  0.3258 -0.2706  0.3179
 2513SOL    HW1 8990   5.286   5.845   0.336  1.3789  0.9908  0.8693
 2513SOL    HW2 8991   5.177   5.838   0.441 -0.0493 -1.4162 -0.6798
 2514SOL     OW 8992   4.831   3.807   4.310  0.6486  0.3673  0.4843
 2514SOL    HW1 8993   4.878   3.881   4.273 -1.7536  0.7435 -2.1751
 2514SOL    HW2 8994   4.809   3.752   4.234 -1.7659 -0.5646  1.7395
 2515SOL     OW 8995   4.274   8.921   3.686  0.2937 -0.1123  0.1231
 2515SOL    HW1 8996   4.197   8.937   3.631 -0.6103 -1.0676  1.0594
 2515SOL    HW2 8997   4.294   9.006   3.724 -2.2151 -0.3321  2.2471
 2516SOL     OW 8998   8.826   8.368   7.716  1.0401 -0.2046 -0.0046
 2516SOL    HW1 8999   8.880   8.427   7.663  0.5096  0.5583  0.2753
 2516SOL    HW2 9000   8.771   8.322   7.652  0.2817  0.8372 -0.1384
 2517SOL     OW 9001   9.119   8.904   4.964 -0.1556  0.1335 -0.7327
 2517SOL    HW1 9002   9.137   8.844   4.892 -0.9103  1.5319 -2.1501
 2517SOL    HW2 9003   9.037   8.948   4.939  0.2840  1.6363  0.3234
 2518SOL     OW 9004   7.262   6.978   5.466  0.3367 -0.1519  0.1601
 2518SOL    HW1 9005   7.230   6.888   5.473  0.8915 -0.2966  1.0245
 2518SOL    HW2 9006   7.185   7.032   5.478 -0.1940 -0.5094 -1.4804
 2519SOL     OW 9007   4.993   4.595   1.757 -0.5530  0.1778 -0.5501
 2519SOL    HW1 9008   5.071   4.546   1.784 -1.0016 -0.9136 -1.1534
 2519SOL    HW2 9009   4.921   4.535   1.776 -1.0861  0.4539 -1.6633
 2520SOL     OW 9010   5.235   2.948   7.328  0.0911 -0.3338 -0.4626
 2520SOL    HW1 9011   5.155   2.922   7.372 -0.2384  0.3496 -0.6391
 2520SOL    HW2 9012   5.274   2.866   7.298 -0.6749 -0.6509 -0.6109
 2521SOL     OW 9013   8.884   3.257   6.810  0.1315 -0.2690  0.1854
 2521SOL    HW1 9014   8.958   3.312   6.783 -0.1680 -0.2425 -0.5887
 2521SOL    HW2 9015   8.926   3.179   6.848  0.5526  0.3910  1.1271
 2522SOL     OW 9016   6.209   4.559   0.809 -0.0604  0.2919  0.2997
 2522SOL    HW1 9017   6.240   4.491   0.869 -0.3552 -0.0244  0.1031
 2522SOL    HW2 9018   6.228   4.641   0.853 -2.0078  0.0548  1.7316
 2523SOL     OW 9019   0.530   1.583   5.021  0.5140 -0.3286  0.0462
 2523SOL    HW1 9020   0.534   1.656   4.960 -0.6854  1.1123  1.6204
 2523SOL    HW2 9021   0.552   1.621   5.106 -0.7956 -1.6310  1.0247
 2524SOL     OW 9022   4.468   7.638   5.751 -0.8735  0.3921  0.0149
 2524SOL    HW1 9023   4.374   7.644   5.734 -0.5709  1.3419 -1.4762
 2524SOL    HW2 9024   4.500   7.728   5.744  0.0607  0.1587  1.0947
 2525SOL     OW 9025   5.556   5.779   4.511 -0.1211  0.1524 -0.1255
 2525SOL    HW1 9026   5.574   5.707   4.450  1.4563  0.9262 -0.6316
 2525SOL    HW2 9027   5.568   5.858   4.458 -1.4101  0.8089  0.5288
 2526SOL     OW 9028   8.919   7.314   6.266  0.1110  0.1849 -0.4272
 2526SOL    HW1 9029   8.876   7.256   6.203 -0.5929 -0.9529  1.0479
 2526SOL    HW2 9030   8.982   7.257   6.311 -0.9131  0.3894  1.3656
 2527SOL     OW 9031   3.869   2.986   8.801 -0.0672 -0.1125  0.6529
 2527SOL    HW1 9032   3.912   2.906   8.772  0.7432  0.6209 -0.2695
 2527SOL    HW2 9033   3.856   2.974   8.895  1.2190 -0.8088  0.7721
 2528SOL     OW 9034   0.869   3.550   4.287  0.0692  0.3142  0.2214
 2528SOL    HW1 9035   0.783   3.577   4.320 -0.2623 -1.1943  0.6678
 2528SOL    HW2 9036   0.851   3.514   4.200  0.1669 -0.3700  0.4755
 2529SOL     OW 9037   4.330   3.844   1.191  0.2581  0.2893  0.0158
 2529SOL    HW1 9038   4.315   3.913   1.127  0.8184  0.3781 -0.0216
 2529SOL    HW2 9039   4.357   3.890   1.271 -0.3527  0.1753  0.2988
 2530SOL     OW 9040   1.993   0.306   4.242 -0.0436 -0.1705 -0.2278
 2530SOL    HW1 9041   2.015   0.293   4.334 -0.3952 -1.3223 -0.2865
 2530SOL    HW2 9042   2.028   0.393   4.220  0.4469 -0.0841  0.8579
 2531SOL     OW 9043   0.244   2.773   1.481  0.3218  0.7467 -0.3210
 2531SOL    HW1 9044   0.309   2.842   1.481 -1.1162  2.1729 -0.5156
 2531SOL    HW2 9045   0.288   2.697   1.518  0.9687  2.7366  3.4034
 2532SOL     OW 9046   0.229   2.460   4.006  0.4844  0.1962  0.0446
 2532SOL    HW1 9047   0.230   2.489   4.097  0.0369 -1.4186  0.6097
 2532SOL    HW2 9048   0.283   2.380   4.006 -0.0159 -0.1616 -0.9792
 2533SOL     OW 9049   1.595   5.949   5.084  0.1177 -0.5247 -0.6720
 2533SOL    HW1 9050   1.586   5.907   4.999 -1.6789  0.0274 -0.7917
 2533SOL    HW2 9051   1.519   5.918   5.134  0.3963  0.2355  0.2518
 2534SOL     OW 9052   5.878   0.339   5.639  0.4079 -0.2050 -0.7010
 2534SOL    HW1 9053   5.811   0.384   5.692 -0.1320 -0.7218 -0.9324
 2534SOL    HW2 9054   5.875   0.384   5.554  0.5451 -0.0519 -0.6252
 2535SOL     OW 9055   8.333   0.580   1.697  0.5314  0.3374 -0.2277
 2535SOL    HW1 9056   8.339   0.637   1.774 -0.0794  0.0662  0.0334
 2535SOL    HW2 9057   8.259   0.614   1.647 -0.3817 -0.7094  0.3616
 2536SOL     OW 9058   0.657   0.947   2.336 -0.1204 -0.3494  0.5222
 2536SOL    HW1 9059   0.724   1.007   2.368  0.8640 -2.4986  2.8349
 2536SOL    HW2 9060   0.595   0.938   2.408  0.1622 -2.5946  0.5790
 2537SOL     OW 9061   8.707   7.984   8.447  0.0022  0.0388  0.3446
 2537SOL    HW1 9062   8.702   8.064   8.498 -1.8778 -0.3151  0.8222
 2537SOL    HW2 9063   8.632   7.989   8.388 -0.6959 -1.7217  0.9925
 2538SOL     OW 9064   1.127   4.078   2.666  0.0448 -0.4105 -0.3335
 2538SOL    HW1 9065   1.079   4.002   2.632  0.6703 -0.5079 -1.0139
 2538SOL    HW2 9066   1.213   4.073   2.626  1.6993 -1.8076  2.9560
 2539SOL     OW 9067   3.212   0.363   1.577 -0.2402  0.0233 -0.2630
 2539SOL    HW1 9068   3.224   0.271   1.597  0.6251  0.2725  0.3810
 2539SOL    HW2 9069   3.216   0.407   1.662 -0.1248  0.7071 -0.6179
 2540SOL     OW 9070   5.943   4.713   3.248 -0.7384  0.2007  0.3079
 2540SOL    HW1 9071   6.022   4.765   3.233  0.6110 -1.3698  1.4815
 2540SOL    HW2 9072   5.893   4.763   3.313  2.0513 -1.1911  3.8926
 2541SOL     OW 9073   1.946   3.875   1.770 -0.5379  0.1993 -0.8209
 2541SOL    HW1 9074   1.984   3.788   1.756  0.3593  0.4610 -0.0907
 2541SOL    HW2 9075   1.979   3.928   1.698  1.4238  0.6998  0.3599
 2542SOL     OW 9076   9.021   3.362   1.488  0.2459  0.0294 -0.2427
 2542SOL    HW1 9077   8.941   3.311   1.499  0.2022 -0.0499 -0.8809
 2542SOL    HW2 9078   9.012   3.403   1.402  1.6980 -1.4624 -1.1730
 2543SOL     OW 9079   8.779   0.851   2.976 -0.0569  0.1609 -0.2292
 2543SOL    HW1 9080   8.711   0.836   3.041  1.7013 -0.9816  1.4678
 2543SOL    HW2 9081   8.844   0.905   3.021  1.2901 -0.7943 -0.9578
 2544SOL     OW 9082   4.729   7.516   2.578 -0.1867  0.1052 -0.1653
 2544SOL    HW1 9083   4.727   7.561   2.662 -0.4978  1.6871 -0.9739
 2544SOL    HW2 9084   4.820   7.490   2.567  0.1975  1.3075 -0.0265
 2545SOL     OW 9085   2.751   0.192   4.165  0.5197  0.2655 -0.5895
 2545SOL    HW1 9086   2.836   0.236   4.168  0.7939 -0.2095 -1.1838
 2545SOL    HW2 9087   2.743   0.163   4.074 -0.2673  0.2804 -0.5250
 2546SOL     OW 9088   1.110   5.555   0.309  0.7098  0.3971  0.0618
 2546SOL    HW1 9089   1.062   5.631   0.339  0.2032 -0.0799  0.4762
 2546SOL    HW2 9090   1.043   5.489   0.292  1.2031 -0.2781  0.6500
 2547SOL     OW 9091   1.935   3.932   8.401 -0.1991  0.0637  0.2770
 2547SOL    HW1 9092   2.027   3.957   8.388 -0.5087  0.7990 -0.5684
 2547SOL    HW2 9093   1.939   3.863   8.468  0.9233  0.4006  0.5873
 2548SOL     OW 9094   5.342   0.635   3.243 -0.4932  0.2443  0.8636
 2548SOL    HW1 9095   5.322   0.711   3.189  1.1333 -0.4543 -0.8420
 2548SOL    HW2 9096   5.388   0.670   3.319  2.7551  0.8785 -1.2132
 2549SOL     OW 9097   8.002   1.154   3.466 -0.2026 -0.0742 -0.0946
 2549SOL    HW1 9098   8.010   1.175   3.559 -0.9137 -0.2672  0.0229
 2549SOL    HW2 9099   7.945   1.077   3.464 -1.3463  0.7499 -0.7510
 2550SOL     OW 9100   2.434   3.891   0.259 -0.0947 -0.3002  0.1705
 2550SOL    HW1 9101   2.503   3.845   0.212  0.3581  1.8378 -1.4570
 2550SOL    HW2 9102   2.353   3.864   0.215  0.2724  1.2142 -1.5720
 2551SOL     OW 9103   2.556   3.530   5.333 -0.2202  0.4434 -0.3354
 2551SOL    HW1 9104   2.482   3.552   5.276 -1.3395 -2.2653 -0.0587
 2551SOL    HW2 9105   2.520   3.469   5.397  1.5054  1.6978  2.0068
 2552SOL     OW 9106   3.473   1.131   5.126 -0.2056 -0.4245 -0.5911
 2552SOL    HW1 9107   3.468   1.047   5.171 -0.7212  0.6114  1.3618
 2552SOL    HW2 9108   3.415   1.121   5.050  0.0199 -1.9230 -0.6012
 2553SOL     OW 9109   7.729   9.034   5.808 -0.3812  0.4049 -0.0683
 2553SOL    HW1 9110   7.806   9.060   5.757  0.8812 -0.7532  1.1443
 2553SOL    HW2 9111   7.707   8.946   5.775 -1.2875  0.7847 -0.5014
 2554SOL     OW 9112   3.192   2.829   2.356  0.0360  0.4779 -0.1900
 2554SOL    HW1 9113   3.248   2.775   2.300  0.0239  1.2200 -0.9314
 2554SOL    HW2 9114   3.106   2.786   2.352  0.7821 -1.4425  2.0120
 2555SOL     OW 9115   4.295   5.332   1.339 -0.2139 -0.0559  0.5106
 2555SOL    HW1 9116   4.378   5.363   1.302 -0.4126 -0.4015 -0.2438
 2555SOL    HW2 9117   4.310   5.331   1.434  1.3509 -2.0675  0.3018
 2556SOL     OW 9118   2.567   4.963   6.657 -0.2811 -0.4553  0.5309
 2556SOL    HW1 9119   2.537   5.054   6.656  2.5754  0.5932 -0.1961
 2556SOL    HW2 9120   2.552   4.932   6.568  0.8681  0.1434  0.1016
 2557SOL     OW 9121   4.090   3.777   3.001 -0.3952 -0.1548  0.5519
 2557SOL    HW1 9122   4.021   3.714   3.021 -0.7438  0.0315 -0.0493
 2557SOL    HW2 9123   4.171   3.728   3.013 -0.6675 -0.7848 -0.1311
 2558SOL     OW 9124   8.212   0.829   0.762 -0.1944  0.1311  0.2878
 2558SOL    HW1 9125   8.266   0.888   0.709  1.0173 -0.4912  0.7961
 2558SOL    HW2 9126   8.189   0.880   0.840 -2.4090  1.2334 -0.9716
 2559SOL     OW 9127   5.204   7.798   1.477 -0.0180  0.2836  0.5702
 2559SOL    HW1 9128   5.115   7.799   1.511 -0.4036 -2.4142 -0.1257
 2559SOL    HW2 9129   5.195   7.776   1.385  1.2036  4.2105 -0.6776
 2560SOL     OW 9130   1.326   8.887   8.479 -0.0349  0.3884 -0.0841
 2560SOL    HW1 9131   1.289   8.799   8.482  0.5659  0.0220 -2.1042
 2560SOL    HW2 9132   1.274   8.933   8.414 -1.6488  2.2446  2.3225
 2561SOL     OW 9133   6.547   3.083   2.672 -0.6781 -0.1641  0.3071
 2561SOL    HW1 9134   6.603   3.159   2.690 -1.6023  0.4160  0.7858
 2561SOL    HW2 9135   6.561   3.025   2.746 -1.0209  0.1666  0.6322
 2562SOL     OW 9136   8.310   4.144   5.748 -0.0806 -0.1765  0.0780
 2562SOL    HW1 9137   8.247   4.104   5.807 -1.1542 -1.2652 -1.6982
 2562SOL    HW2 9138   8.387   4.162   5.802 -1.0857 -0.9114  1.8100
 2563SOL     OW 9139   5.913   5.341   8.579  0.6462 -0.1703 -0.1359
 2563SOL    HW1 9140   5.942   5.431   8.572 -2.3368  0.8827 -0.3684
 2563SOL    HW2 9141   5.910   5.309   8.489 -4.5709  1.8610 -1.0112
 2564SOL     OW 9142   5.865   6.863   1.362  0.3963 -0.0286  0.3122
 2564SOL    HW1 9143   5.777   6.900   1.352  0.6628  0.7981  0.8628
 2564SOL    HW2 9144   5.852   6.768   1.358 -0.5445  0.0773  0.5721
 2565SOL     OW 9145   4.244   6.189   1.500 -0.3700 -0.1002  0.7260
 2565SOL    HW1 9146   4.203   6.105   1.479 -1.0218  0.2419  0.5935
 2565SOL    HW2 9147   4.243   6.238   1.418  0.8061 -0.2834  0.5935
 2566SOL     OW 9148   4.331   8.615   3.721  0.4637  0.0606  0.2314
 2566SOL    HW1 9149   4.328   8.708   3.701  0.8900  0.2946  1.2046
 2566SOL    HW2 9150   4.297   8.572   3.642 -1.2919  1.1105  0.3731
 2567SOL     OW 9151   3.625   5.151   0.676 -0.0935  0.1185  0.1567
 2567SOL    HW1 9152   3.596   5.105   0.755 -1.7234  0.3574 -0.2691
 2567SOL    HW2 9153   3.590   5.239   0.686 -1.0836 -0.0979 -1.2269
 2568SOL     OW 9154   4.909   2.893   5.754  0.2268 -0.3404 -0.5194
 2568SOL    HW1 9155   4.976   2.878   5.821  0.5337 -0.7213 -0.9055
 2568SOL    HW2 9156   4.951   2.953   5.692 -0.3239  0.6305  0.0174
 2569SOL     OW 9157   6.353   8.285   2.492  0.7613  0.3274 -0.1800
 2569SOL    HW1 9158   6.272   8.321   2.454  0.7753  0.7785  0.2004
 2569SOL    HW2 9159   6.338   8.191   2.496  0.6407  0.3091 -1.0193
 2570SOL     OW 9160   2.345   4.854   6.186  0.1511 -0.4749  0.4848
 2570SOL    HW1 9161   2.441   4.855   6.191  0.0983 -1.3627  2.2010
 2570SOL    HW2 9162   2.324   4.776   6.134  0.3408 -1.2113  1.4862
 2571SOL     OW 9163   2.924   6.619   0.733  0.2324  0.3369  0.3550
 2571SOL    HW1 9164   3.003   6.600   0.682 -0.1659  0.7942 -0.4566
 2571SOL    HW2 9165   2.897   6.706   0.704  0.3487  0.8964  1.8342
 2572SOL     OW 9166   1.588   7.447   3.269  0.5161 -0.4867  0.1976
 2572SOL    HW1 9167   1.683   7.447   3.284  0.7344  0.1124 -1.0979
 2572SOL    HW2 9168   1.565   7.539   3.259 -0.0307 -0.6993 -0.5488
 2573SOL     OW 9169   8.746   2.536   4.377 -0.2953 -0.4156 -0.4230
 2573SOL    HW1 9170   8.785   2.615   4.338  0.3375  0.0552  1.1082
 2573SOL    HW2 9171   8.651   2.549   4.366 -0.1522 -0.9976 -3.0694
 2574SOL     OW 9172   6.585   6.470   8.464 -0.6394  0.3122 -0.2955
 2574SOL    HW1 9173   6.602   6.512   8.549  1.8173  1.5122 -1.2971
 2574SOL    HW2 9174   6.509   6.518   8.429  0.2108  1.8893 -0.0661
 2575SOL     OW 9175   2.003   3.664   3.312 -0.4728  0.0524 -0.0135
 2575SOL    HW1 9176   1.963   3.639   3.228  3.1689 -0.7505 -1.7049
 2575SOL    HW2 9177   2.072   3.726   3.287  2.0111 -1.6831  2.0937
 2576SOL     OW 9178   4.001   7.216   4.904  0.0078 -0.4540 -0.2087
 2576SOL    HW1 9179   4.017   7.288   4.842 -1.8676 -1.9398 -2.6010
 2576SOL    HW2 9180   3.924   7.243   4.952 -0.4618 -0.6621 -0.8297
 2577SOL     OW 9181   3.579   6.921   8.260 -0.0678  0.2318  0.3784
 2577SOL    HW1 9182   3.550   6.856   8.324  0.2741 -0.4176 -0.1095
 2577SOL    HW2 9183   3.517   6.913   8.188  0.6455 -0.3864 -0.1868
 2578SOL     OW 9184   3.247   8.968   7.037 -0.1704  0.2322  0.0148
 2578SOL    HW1 9185   3.240   8.988   6.944 -0.2644 -2.4020 -0.6097
 2578SOL    HW2 9186   3.160   8.987   7.072 -0.0583  1.5137 -0.3260
 2579SOL     OW 9187   3.508   3.511   5.811  0.3051 -0.3649  0.6635
 2579SOL    HW1 9188   3.520   3.429   5.859  1.6880 -0.9865 -0.6755
 2579SOL    HW2 9189   3.596   3.549   5.805  0.4085 -0.8312 -2.2119
 2580SOL     OW 9190   6.333   5.878   4.252 -0.6892  0.7480  0.5879
 2580SOL    HW1 9191   6.281   5.801   4.231 -1.2572  0.9508  1.2180
 2580SOL    HW2 9192   6.312   5.897   4.344  0.7382  0.6468  0.9514
 2581SOL     OW 9193   6.168   6.182   8.143  0.3293 -0.4569  0.0140
 2581SOL    HW1 9194   6.097   6.124   8.170  0.9105 -0.4518  1.6897
 2581SOL    HW2 9195   6.219   6.197   8.223  0.8551  1.4465 -0.6096
 2582SOL     OW 9196   5.827   8.622   8.599 -0.0654 -0.5375  0.3270
 2582SOL    HW1 9197   5.792   8.615   8.688 -1.7775  0.8848 -0.1755
 2582SOL    HW2 9198   5.753   8.652   8.547  1.0614 -0.7877 -1.4850
 2583SOL     OW 9199   7.237   7.813   9.001 -0.6880 -0.5716  0.6071
 2583SOL    HW1 9200   7.259   7.808   9.094  0.5231  0.1388  0.3852
 2583SOL    HW2 9201   7.195   7.729   8.981  2.8112 -2.6117  0.8667
 2584SOL     OW 9202   8.775   3.988   8.689  0.4677  0.0070  0.6029
 2584SOL    HW1 9203   8.774   3.914   8.750  0.6859  1.4548  2.4685
 2584SOL    HW2 9204   8.686   3.991   8.653  0.1137 -0.4494  1.4190
 2585SOL     OW 9205   5.168   1.021   1.566  0.2922  0.2877 -0.1130
 2585SOL    HW1 9206   5.218   1.017   1.484 -0.7486  0.6198 -0.7963
 2585SOL    HW2 9207   5.124   1.106   1.563 -1.0277 -0.3598  0.0028
 2586SOL     OW 9208   6.595   3.294   3.303  0.2591  0.3703 -0.1244
 2586SOL    HW1 9209   6.630   3.217   3.259 -1.7715 -0.1195 -0.9755
 2586SOL    HW2 9210   6.600   3.364   3.237  3.0005  1.3216  0.9415
 2587SOL     OW 9211   8.348   5.948   0.544  0.3968  0.2612 -0.1335
 2587SOL    HW1 9212   8.295   5.938   0.464 -0.1717 -0.8483  0.3572
 2587SOL    HW2 9213   8.357   5.859   0.577  0.4459  0.7340  1.1556
 2588SOL     OW 9214   4.443   1.582   8.312  0.0969 -0.0926 -0.0113
 2588SOL    HW1 9215   4.413   1.611   8.398 -0.4922 -1.4719  0.2819
 2588SOL    HW2 9216   4.391   1.633   8.250 -0.2400  0.1517  0.4634
 2589SOL     OW 9217   1.311   7.755   3.392  0.3410 -0.1760  0.0187
 2589SOL    HW1 9218   1.218   7.739   3.407  0.5981 -2.7862 -0.5777
 2589SOL    HW2 9219   1.329   7.712   3.308  2.0755  0.3830  0.0660
 2590SOL     OW 9220   6.033   6.584   4.297  0.5486 -0.2111 -0.1803
 2590SOL    HW1 9221   5.945   6.593   4.333 -0.1921 -0.6668 -1.8018
 2590SOL    HW2 9222   6.070   6.508   4.343 -1.0486 -1.9215 -1.5634
 2591SOL     OW 9223   5.910   3.718   1.553  0.3393  0.0350  0.0809
 2591SOL    HW1 9224   5.815   3.709   1.555 -0.3100  3.3040 -3.7921
 2591SOL    HW2 9225   5.943   3.630   1.534 -2.2385 -0.5601 -2.0284
 2592SOL     OW 9226   3.488   6.860   4.442  0.2951 -0.3777 -0.3663
 2592SOL    HW1 9227   3.450   6.933   4.394 -1.3429 -1.4562 -0.8087
 2592SOL    HW2 9228   3.413   6.806   4.466  1.2846 -0.9909  1.5345
 2593SOL     OW 9229   1.292   6.359   6.789 -0.1688 -0.3979 -0.2383
 2593SOL    HW1 9230   1.302   6.280   6.842 -1.7520 -0.5211 -0.0792
 2593SOL    HW2 9231   1.379   6.374   6.751  0.7446 -0.8677  1.5849
 2594SOL     OW 9232   2.223   6.268   4.333 -0.2304 -0.2827 -0.2301
 2594SOL    HW1 9233   2.198   6.186   4.289  0.2720  0.2148 -1.5070
 2594SOL    HW2 9234   2.304   6.294   4.289  1.2992 -0.6574  2.2237
 2595SOL     OW 9235   2.185   1.817   6.835  0.0291  0.1062 -0.2241
 2595SOL    HW1 9236   2.177   1.834   6.929  0.9065 -0.9863  0.0703
 2595SOL    HW2 9237   2.168   1.901   6.794 -1.7210  0.3239  0.8346
 2596SOL     OW 9238   1.711   8.304   0.228  0.8057  0.7554  0.3273
 2596SOL    HW1 9239   1.719   8.288   0.134 -1.6803 -0.9549  0.3242
 2596SOL    HW2 9240   1.793   8.270   0.265  0.6754 -1.1186 -0.9681
 2597SOL     OW 9241   5.491   8.983   8.266 -0.0511  0.4496  0.6368
 2597SOL    HW1 9242   5.428   9.008   8.199 -0.0494  0.1884  0.5400
 2597SOL    HW2 9243   5.553   8.926   8.222 -0.0444  0.2850  0.8564
 2598SOL     OW 9244   2.190   3.424   2.160 -0.6083  0.0599 -0.5512
 2598SOL    HW1 9245   2.254   3.492   2.139 -0.8461  1.1836  1.9899
 2598SOL    HW2 9246   2.242   3.355   2.202 -0.7648 -0.0182 -0.4843
 2599SOL     OW 9247   5.764   6.368   6.303  0.1473  0.3345  0.3081
 2599SOL    HW1 9248   5.780   6.381   6.397  2.0015  0.7087 -0.0239
 2599SOL    HW2 9249   5.845   6.330   6.270 -0.2632  0.7382 -1.2454
 2600SOL     OW 9250   5.721   7.161   8.227  0.3989 -0.8991  0.1051
 2600SOL    HW1 9251   5.722   7.103   8.303  3.2385 -0.5024  0.4588
 2600SOL    HW2 9252   5.729   7.249   8.264 -2.2707 -0.3108 -0.5140
 2601SOL     OW 9253   5.870   0.921   8.518  0.2161  0.2033 -0.6911
 2601SOL    HW1 9254   5.822   0.838   8.516  0.0262  0.2890  0.0228
 2601SOL    HW2 9255   5.818   0.980   8.464 -0.6410  0.3681  0.2845
 2602SOL     OW 9256   6.628   5.678   4.658  0.5682 -0.1417  0.1060
 2602SOL    HW1 9257   6.671   5.636   4.733  0.5667  1.5956  1.1376
 2602SOL    HW2 9258   6.699   5.696   4.597  1.3548  2.2926  1.6007
 2603SOL     OW 9259   7.085   0.634   4.342 -0.3759 -0.1141 -0.0921
 2603SOL    HW1 9260   7.028   0.629   4.419 -0.8297  0.7038 -0.3552
 2603SOL    HW2 9261   7.169   0.666   4.377 -0.3484 -0.4509  0.1621
 2604SOL     OW 9262   0.629   3.325   5.461  0.4635  0.4438 -0.3836
 2604SOL    HW1 9263   0.693   3.376   5.511  0.9713 -0.6587  0.1317
 2604SOL    HW2 9264   0.549   3.377   5.464  1.2734  1.7743 -0.9023
 2605SOL     OW 9265   0.266   5.608   7.222 -0.0086 -0.0262  0.3646
 2605SOL    HW1 9266   0.333   5.558   7.175  0.4386 -0.0763  1.0420
 2605SOL    HW2 9267   0.310   5.687   7.250 -0.1057 -0.2561  1.1931
 2606SOL     OW 9268   3.283   0.146   6.916  0.3089 -0.3770  0.0854
 2606SOL    HW1 9269   3.213   0.083   6.901 -0.0483  0.0965 -0.2420
 2606SOL    HW2 9270   3.240   0.231   6.916  0.8054 -0.1202  0.4143
 2607SOL     OW 9271   9.026   4.259   1.544 -0.0803  0.5056 -0.2763
 2607SOL    HW1 9272   9.019   4.218   1.630 -0.1677  1.5629  0.2358
 2607SOL    HW2 9273   8.957   4.217   1.492  0.1674 -0.3557  0.0675
 2608SOL     OW 9274   8.463   2.062   4.321  0.1031 -0.4272 -0.3851
 2608SOL    HW1 9275   8.427   2.130   4.378  1.2773 -0.7565  0.7900
 2608SOL    HW2 9276   8.499   1.997   4.380  0.0091 -1.5368 -1.5069
 2609SOL     OW 9277   7.083   5.818   7.342  0.1677  0.7479  0.5497
 2609SOL    HW1 9278   7.066   5.825   7.436  0.1726 -0.1733  0.6344
 2609SOL    HW2 9279   7.002   5.847   7.300 -0.3217 -0.0970  0.8747
 2610SOL     OW 9280   5.877   6.047   7.333  0.4036  0.0960  0.2987
 2610SOL    HW1 9281   5.925   5.965   7.346 -0.2962 -0.3266  0.2517
 2610SOL    HW2 9282   5.933   6.097   7.274  0.0045 -1.1174 -1.2026
 2611SOL     OW 9283   5.494   4.986   3.547 -0.4062  0.1616  0.4774
 2611SOL    HW1 9284   5.467   4.938   3.469  1.2801  0.4087 -0.3187
 2611SOL    HW2 9285   5.558   4.929   3.589 -1.5104 -0.0961  1.8770
 2612SOL     OW 9286   3.597   8.277   6.917  0.0533 -0.2318  0.2716
 2612SOL    HW1 9287   3.676   8.290   6.970  0.3858 -0.0660 -0.2453
 2612SOL    HW2 9288   3.565   8.366   6.902  1.1698 -0.0842 -1.5650
 2613SOL     OW 9289   4.338   2.253   2.332 -0.0700 -0.1884 -0.5717
 2613SOL    HW1 9290   4.297   2.278   2.250 -1.4796  0.1514  0.2023
 2613SOL    HW2 9291   4.387   2.173   2.312  1.2172  0.9439 -2.1633
 2614SOL     OW 9292   7.603   4.313   3.261 -0.1025 -0.1610  0.3830
 2614SOL    HW1 9293   7.554   4.299   3.342 -1.7528 -1.2309 -0.7281
 2614SOL    HW2 9294   7.621   4.407   3.260  1.2494 -0.3346  2.6533
 2615SOL     OW 9295   8.479   1.290   0.743 -0.0352 -0.3479  0.4826
 2615SOL    HW1 9296   8.435   1.346   0.679 -3.1248 -1.0200  1.8654
 2615SOL    HW2 9297   8.478   1.340   0.825  0.7608 -0.8674  0.8292
 2616SOL     OW 9298   5.701   8.330   1.096 -0.1478 -0.4504 -0.2099
 2616SOL    HW1 9299   5.609   8.356   1.103 -0.0205  0.0053 -0.1983
 2616SOL    HW2 9300   5.747   8.412   1.077  0.3470 -0.5460  0.5368
 2617SOL     OW 9301   6.386   4.515   8.498 -0.1907  0.0664 -0.0108
 2617SOL    HW1 9302   6.419   4.593   8.543 -1.0679 -0.0002  0.7786
 2617SOL    HW2 9303   6.371   4.544   8.408  0.6756  0.4618 -0.0407
 2618SOL     OW 9304   4.720   6.585   6.267 -0.0098 -0.0078  0.4838
 2618SOL    HW1 9305   4.790   6.519   6.272  2.1845  2.1682  0.7738
 2618SOL    HW2 9306   4.639   6.535   6.262  1.6130 -2.7140 -0.7648
 2619SOL     OW 9307   7.741   5.679   4.732 -0.3777  0.0443  0.1338
 2619SOL    HW1 9308   7.688   5.638   4.663 -1.1771 -0.0001  0.7587
 2619SOL    HW2 9309   7.778   5.757   4.691 -0.4302 -0.2532 -0.4951
 2620SOL     OW 9310   2.646   7.757   7.395  0.2094 -0.6584  0.1714
 2620SOL    HW1 9311   2.720   7.772   7.336 -0.4943 -0.6919 -0.7253
 2620SOL    HW2 9312   2.685   7.763   7.483  1.3461 -1.0504 -0.2884
 2621SOL     OW 9313   2.244   1.802   0.263 -0.7680  0.5095 -0.2295
 2621SOL    HW1 9314   2.321   1.821   0.210 -0.9060  0.3681 -0.4858
 2621SOL    HW2 9315   2.259   1.847   0.346 -0.0304 -0.1849  0.0310
 2622SOL     OW 9316   2.519   7.225   8.511  0.0340  0.2525  0.0219
 2622SOL    HW1 9317   2.547   7.261   8.595 -0.2401 -0.8122  0.5919
 2622SOL    HW2 9318   2.601   7.199   8.468  0.0808 -1.2851  0.9556
 2623SOL     OW 9319   6.362   2.711   2.931 -0.1725 -0.1878 -0.3654
 2623SOL    HW1 9320   6.298   2.770   2.971 -1.7342 -0.9806 -1.5719
 2623SOL    HW2 9321   6.315   2.628   2.923  1.0010 -0.7808 -1.3539
 2624SOL     OW 9322   2.996   1.956   4.222 -0.1820  0.5340  0.1841
 2624SOL    HW1 9323   3.090   1.947   4.212 -0.0334  0.3640  1.5392
 2624SOL    HW2 9324   2.985   1.997   4.308 -1.4247 -2.2264  1.4419
 2625SOL     OW 9325   3.510   3.639   1.867 -0.6553 -0.0705 -0.1686
 2625SOL    HW1 9326   3.558   3.692   1.931 -0.6581 -1.4028  0.9876
 2625SOL    HW2 9327   3.567   3.564   1.851 -1.0667 -0.2055 -1.0622
 2626SOL     OW 9328   6.891   7.119   8.237 -0.3964  0.0456  0.2759
 2626SOL    HW1 9329   6.934   7.155   8.159 -0.0202  1.0020  0.8993
 2626SOL    HW2 9330   6.893   7.024   8.224  2.4352 -0.0216  0.4841
 2627SOL     OW 9331   2.363   8.947   1.729 -0.1118  0.5114 -0.0533
 2627SOL    HW1 9332   2.408   8.966   1.646 -0.2925 -0.3665 -0.3617
 2627SOL    HW2 9333   2.307   9.023   1.743 -1.5745 -0.1839 -1.7692
 2628SOL     OW 9334   8.491   6.869   6.137  0.1529  0.5522 -0.1079
 2628SOL    HW1 9335   8.443   6.892   6.058  3.1200 -0.2709 -2.3270
 2628SOL    HW2 9336   8.551   6.943   6.151  0.4746  0.1571  0.6935
 2629SOL     OW 9337   0.909   6.510   2.649 -0.1387 -0.0377 -0.4226
 2629SOL    HW1 9338   0.832   6.509   2.706 -1.4136 -1.7841 -2.0940
 2629SOL    HW2 9339   0.953   6.427   2.667 -0.1170 -0.2416 -1.3664
 2630SOL     OW 9340   8.725   5.368   1.376 -0.4668 -0.2798  0.2004
 2630SOL    HW1 9341   8.798   5.319   1.339  0.1851  1.5731 -1.0817
 2630SOL    HW2 9342   8.657   5.365   1.308 -0.9083 -0.4330  0.6378
 2631SOL     OW 9343   7.840   1.364   2.273  0.4555 -0.0997 -0.3640
 2631SOL    HW1 9344   7.844   1.438   2.212 -4.0642  1.8882  1.2833
 2631SOL    HW2 9345   7.829   1.287   2.217  1.2336  0.9697 -2.0715
 2632SOL     OW 9346   1.705   4.835   8.888 -0.0467 -0.2911 -0.4625
 2632SOL    HW1 9347   1.658   4.903   8.839 -1.5334 -2.3985 -2.1602
 2632SOL    HW2 9348   1.646   4.813   8.961 -0.0031 -0.3804 -0.4539
 2633SOL     OW 9349   4.439   3.973   5.814  0.3017 -0.7052  0.0016
 2633SOL    HW1 9350   4.496   3.933   5.880 -1.0606 -1.5419  0.7099
 2633SOL    HW2 9351   4.474   4.062   5.804  1.4212 -1.0304  0.7720
 2634SOL     OW 9352   5.359   1.138   7.536  0.0021 -0.5130 -0.0315
 2634SOL    HW1 9353   5.322   1.158   7.450 -0.0994  0.4891  0.2383
 2634SOL    HW2 9354   5.299   1.179   7.598  0.4225 -0.6846  0.4931
 2635SOL     OW 9355   5.510   4.206   4.280  0.0041  0.0074 -0.2674
 2635SOL    HW1 9356   5.436   4.262   4.261  0.0553 -0.0528 -0.6630
 2635SOL    HW2 9357   5.471   4.122   4.304 -0.0570 -0.1901 -1.0126
 2636SOL     OW 9358   7.407   2.304   7.921 -0.5312 -0.0089  0.1936
 2636SOL    HW1 9359   7.337   2.353   7.964 -0.3708  0.4986 -0.1131
 2636SOL    HW2 9360   7.473   2.291   7.989 -0.3452  0.6610  0.1508
 2637SOL     OW 9361   6.550   7.775   0.411 -0.1006 -0.3124  0.1116
 2637SOL    HW1 9362   6.572   7.867   0.398  2.6191 -0.9698 -0.6024
 2637SOL    HW2 9363   6.592   7.751   0.494 -0.4119 -1.0126  0.0807
 2638SOL     OW 9364   1.995   3.419   0.280 -0.4132  0.1938 -0.0108
 2638SOL    HW1 9365   2.077   3.370   0.271  0.6105  1.7060  0.7061
 2638SOL    HW2 9366   1.980   3.456   0.193  0.2533  0.7843  0.1176
 2639SOL     OW 9367   0.990   3.757   8.505  0.3318  0.6602 -0.7737
 2639SOL    HW1 9368   0.942   3.813   8.566 -0.6365 -0.1249 -0.7757
 2639SOL    HW2 9369   0.996   3.808   8.425 -1.6397  0.3373 -1.1805
 2640SOL     OW 9370   8.980   8.830   8.652 -0.2933  0.0414 -0.0216
 2640SOL    HW1 9371   8.937   8.797   8.573  0.6456 -0.2548 -0.4254
 2640SOL    HW2 9372   9.047   8.890   8.618 -0.6574  0.8154  0.6096
 2641SOL     OW 9373   4.089   7.224   0.045 -0.2255 -0.2981 -0.4287
 2641SOL    HW1 9374   4.030   7.154   0.017  0.1915 -1.5271  1.5610
 2641SOL    HW2 9375   4.036   7.279   0.102  0.1629 -0.5751  0.2065
 2642SOL     OW 9376   1.317   5.627   6.434 -0.5108  0.7198 -0.2854
 2642SOL    HW1 9377   1.380   5.615   6.505 -1.0415 -0.8130 -0.0362
 2642SOL    HW2 9378   1.279   5.713   6.449 -0.9333  0.2486  1.5818
 2643SOL     OW 9379   8.720   6.447   2.668  0.2437 -0.4030  0.5488
 2643SOL    HW1 9380   8.711   6.414   2.578  0.6056  0.0511  0.3417
 2643SOL    HW2 9381   8.632   6.440   2.705 -0.4448  1.4199 -0.5574
 2644SOL     OW 9382   2.606   3.662   4.097 -0.5648 -0.4382 -0.2560
 2644SOL    HW1 9383   2.649   3.633   4.016 -0.8377  1.0363 -0.9641
 2644SOL    HW2 9384   2.517   3.685   4.069 -0.5077  0.5772  0.3597
 2645SOL     OW 9385   8.274   1.904   8.391 -0.0065  0.2499  0.1716
 2645SOL    HW1 9386   8.342   1.961   8.355 -0.9013  1.4766  0.3453
 2645SOL    HW2 9387   8.286   1.910   8.486  0.9785 -1.2465  0.1615
 2646SOL     OW 9388   6.468   7.379   7.978 -0.4934  0.3498 -0.2182
 2646SOL    HW1 9389   6.408   7.306   7.964 -1.4531  1.1904 -0.5420
 2646SOL    HW2 9390   6.529   7.347   8.044 -0.5546 -0.9419 -0.7558
 2647SOL     OW 9391   3.718   6.455   3.136  0.2649  0.0187 -0.0841
 2647SOL    HW1 9392   3.633   6.492   3.161 -0.3152  0.0583 -1.9424
 2647SOL    HW2 9393   3.747   6.408   3.214 -0.2336  2.1144  1.4784
 2648SOL     OW 9394   1.252   8.290   1.991 -0.3069  0.0000  0.2718
 2648SOL    HW1 9395   1.294   8.356   1.935 -0.1273 -0.8385 -0.5995
 2648SOL    HW2 9396   1.322   8.262   2.050 -0.1103 -0.1295 -0.0195
 2649SOL     OW 9397   5.289   8.382   2.490  0.6446  0.7021  0.4689
 2649SOL    HW1 9398   5.248   8.437   2.556 -0.7985  0.0717  0.1365
 2649SOL    HW2 9399   5.271   8.292   2.518  1.6868  0.3993  0.2302
 2650SOL     OW 9400   0.793   8.576   3.436 -0.0656  0.1133  0.2065
 2650SOL    HW1 9401   0.836   8.575   3.521 -0.7096 -0.3104  0.5377
 2650SOL    HW2 9402   0.814   8.662   3.399  1.7278 -0.3951 -0.0041
 2651SOL     OW 9403   7.358   0.946   1.464 -0.3591 -0.0068 -0.6230
 2651SOL    HW1 9404   7.326   0.947   1.554 -2.2911  0.3476 -1.2608
 2651SOL    HW2 9405   7.338   0.858   1.432 -0.7798  0.2308 -1.0438
 2652SOL     OW 9406   6.796   2.551   4.637  0.1833  0.5713 -0.4362
 2652SOL    HW1 9407   6.831   2.512   4.556  1.2945  2.1520 -0.7755
 2652SOL    HW2 9408   6.758   2.634   4.609  0.5839  1.1445  0.6503
 2653SOL     OW 9409   8.056   6.529   5.754  0.1688  0.4314 -0.2780
 2653SOL    HW1 9410   7.965   6.542   5.779  0.0488  0.2304 -0.5931
 2653SOL    HW2 9411   8.069   6.588   5.680  0.8498  1.8646  0.9416
 2654SOL     OW 9412   6.230   0.951   8.328  0.0888 -0.3707  0.1836
 2654SOL    HW1 9413   6.323   0.934   8.315 -0.1924 -2.0265  0.1238
 2654SOL    HW2 9414   6.190   0.864   8.334 -1.5223  0.2925 -0.2921
 2655SOL     OW 9415   1.942   4.952   8.497 -0.0070 -0.2988 -0.4750
 2655SOL    HW1 9416   1.937   5.025   8.435  0.5606 -0.1050 -0.2952
 2655SOL    HW2 9417   1.905   4.877   8.449 -0.0364 -0.0337 -0.8701
 2656SOL     OW 9418   4.227   3.382   1.808  0.0182 -0.4645 -0.1455
 2656SOL    HW1 9419   4.290   3.363   1.739 -0.2239  1.4012 -0.9402
 2656SOL    HW2 9420   4.272   3.442   1.866 -0.1671 -1.1588  0.7408
 2657SOL     OW 9421   7.361   4.094   0.829  0.1445 -0.3683 -0.3577
 2657SOL    HW1 9422   7.311   4.025   0.785 -0.1102  0.1776 -0.9285
 2657SOL    HW2 9423   7.448   4.090   0.788  0.5064 -1.1409  0.4507
 2658SOL     OW 9424   9.247   8.034   2.574  0.1893 -0.3042  0.8542
 2658SOL    HW1 9425   9.276   8.052   2.664  1.8740 -1.8617  0.6732
 2658SOL    HW2 9426   9.293   7.954   2.550  1.3615  1.1448 -2.1245
 2659SOL     OW 9427   0.533   5.553   8.907 -0.5853  0.6149 -0.3519
 2659SOL    HW1 9428   0.441   5.581   8.907 -0.5788  0.6380 -0.5174
 2659SOL    HW2 9429   0.547   5.516   8.994 -0.8471  0.2966 -0.4420
 2660SOL     OW 9430   1.037   6.828   2.005 -0.1010 -0.9029 -0.2478
 2660SOL    HW1 9431   1.075   6.742   2.023 -0.9081 -1.1610  0.2870
 2660SOL    HW2 9432   1.092   6.864   1.937  2.4678 -0.3405  1.9442
 2661SOL     OW 9433   5.118   8.380   4.089  0.3034  0.0087 -0.1072
 2661SOL    HW1 9434   5.192   8.439   4.078  1.0565 -1.3389 -3.3148
 2661SOL    HW2 9435   5.044   8.425   4.048 -0.0435  0.1962  0.6890
 2662SOL     OW 9436   4.758   4.475   6.686 -0.7089  0.4879  0.0126
 2662SOL    HW1 9437   4.772   4.382   6.664 -1.7706  0.4544 -0.6214
 2662SOL    HW2 9438   4.676   4.497   6.643 -0.0769  1.9526 -0.5045
 2663SOL     OW 9439   3.182   7.127   7.484 -0.2963  0.5881 -0.3671
 2663SOL    HW1 9440   3.096   7.090   7.502  0.2971 -0.2498  0.9535
 2663SOL    HW2 9441   3.167   7.220   7.468 -1.2235  0.9094  2.0828
 2664SOL     OW 9442   1.661   2.871   2.538  0.2207 -0.0593 -0.0456
 2664SOL    HW1 9443   1.710   2.858   2.457 -0.7488  0.2604 -0.6974
 2664SOL    HW2 9444   1.594   2.935   2.515 -1.5370 -1.6715  0.3836
 2665SOL     OW 9445   5.852   7.323   3.444  0.0382 -0.4005 -0.1434
 2665SOL    HW1 9446   5.898   7.253   3.490  1.2424 -1.2003 -2.3675
 2665SOL    HW2 9447   5.918   7.391   3.433 -0.3633 -0.0290 -0.2824
 2666SOL     OW 9448   0.540   1.783   1.101  0.6033  0.1886  0.8520
 2666SOL    HW1 9449   0.628   1.749   1.087  1.2364  2.0863 -0.2396
 2666SOL    HW2 9450   0.548   1.840   1.178 -0.0296 -0.7516  1.6307
 2667SOL     OW 9451   0.017   3.286   7.220 -0.7297 -0.2866  0.6280
 2667SOL    HW1 9452  -0.001   3.282   7.315 -0.0257 -0.5763  0.7513
 2667SOL    HW2 9453   0.059   3.203   7.200 -1.3991 -0.4692 -0.0623
 2668SOL     OW 9454   2.279   3.600   8.946  0.3288  0.1480 -0.1172
 2668SOL    HW1 9455   2.336   3.638   8.879  1.6632  1.8958  1.8695
 2668SOL    HW2 9456   2.335   3.538   8.992 -0.7725 -1.5487 -0.9483
 2669SOL     OW 9457   2.157   6.659   7.045 -0.2331  0.3645  0.6070
 2669SOL    HW1 9458   2.237   6.607   7.039 -0.7077 -0.3830  0.5700
 2669SOL    HW2 9459   2.096   6.603   7.092 -1.0851  0.4738 -0.3236
 2670SOL     OW 9460   0.982   0.929   4.516  0.4863  0.0806 -0.1075
 2670SOL    HW1 9461   1.022   0.984   4.583  0.6338 -1.5587  1.2098
 2670SOL    HW2 9462   0.894   0.911   4.548  1.7352 -3.8398  1.7532
 2671SOL     OW 9463   0.068   4.677   3.541  0.5309 -0.1062 -0.0494
 2671SOL    HW1 9464   0.153   4.650   3.506  0.7604  0.9822 -0.3700
 2671SOL    HW2 9465   0.062   4.770   3.521  0.0143  0.2289  1.5043
 2672SOL     OW 9466   3.137   2.779   8.079 -0.2418  0.2665 -0.5516
 2672SOL    HW1 9467   3.222   2.818   8.057  0.1479 -0.0839  0.2427
 2672SOL    HW2 9468   3.151   2.742   8.166 -1.2221  0.2064 -0.4117
 2673SOL     OW 9469   7.078   8.936   6.147  0.3570  0.3813  0.3264
 2673SOL    HW1 9470   7.139   9.006   6.169  0.3936  0.1925  0.8422
 2673SOL    HW2 9471   7.103   8.909   6.058  0.1648  1.1940  0.0199
 2674SOL     OW 9472   7.667   7.243   6.935 -0.2657  0.0921  0.7180
 2674SOL    HW1 9473   7.573   7.240   6.954 -0.4556 -1.0076 -0.2620
 2674SOL    HW2 9474   7.678   7.325   6.886 -0.8752 -0.1621  0.1269
 2675SOL     OW 9475   2.281   3.704   6.412  0.0676 -0.0027 -0.3150
 2675SOL    HW1 9476   2.358   3.648   6.410  0.6173  0.7360 -0.4217
 2675SOL    HW2 9477   2.246   3.699   6.323 -0.7221 -1.2740  0.0352
 2676SOL     OW 9478   0.213   2.917   0.102 -0.4643 -0.8589 -0.5594
 2676SOL    HW1 9479   0.235   3.009   0.113  0.5903 -0.8408 -2.3933
 2676SOL    HW2 9480   0.139   2.916   0.042  0.4981 -1.1939 -1.8082
 2677SOL     OW 9481   0.438   3.519   6.892 -0.0438  0.1987  0.4491
 2677SOL    HW1 9482   0.390   3.550   6.814 -1.8045 -2.4726  0.3558
 2677SOL    HW2 9483   0.527   3.550   6.878 -0.5166  0.6716 -2.1517
 2678SOL     OW 9484   1.650   9.044   7.697 -0.9663 -0.0860  0.0923
 2678SOL    HW1 9485   1.647   8.950   7.679 -0.3394  0.0338 -0.7111
 2678SOL    HW2 9486   1.658   9.085   7.611 -0.0860  0.6460  0.5027
 2679SOL     OW 9487   2.835   9.239   1.062  0.0634  0.2668 -0.6769
 2679SOL    HW1 9488   2.891   9.162   1.075 -0.2721 -0.0979 -1.3472
 2679SOL    HW2 9489   2.750   9.202   1.037 -0.0718  0.8645 -1.0953
 2680SOL     OW 9490   2.547   5.185   3.831  0.2259 -0.2357  0.0924
 2680SOL    HW1 9491   2.462   5.190   3.875 -0.6816 -0.6051 -1.5323
 2680SOL    HW2 9492   2.586   5.104   3.862  0.2154  0.1901  1.2401
 2681SOL     OW 9493   8.714   9.084   7.074 -0.1035  0.2860 -0.0723
 2681SOL    HW1 9494   8.790   9.036   7.107  0.5067  1.0721 -0.3052
 2681SOL    HW2 9495   8.689   9.037   6.994  0.8560  0.6927 -0.6255
 2682SOL     OW 9496   9.015   2.054   1.815 -0.0144 -0.5723  0.6765
 2682SOL    HW1 9497   8.999   2.092   1.901 -0.0591  0.5361  0.2027
 2682SOL    HW2 9498   8.942   2.086   1.761  2.2301  2.4160 -0.8746
 2683SOL     OW 9499   5.900   2.999   7.002  0.2519  0.4616  0.3764
 2683SOL    HW1 9500   5.938   2.917   7.034 -0.4044 -0.1426 -0.3299
 2683SOL    HW2 9501   5.846   3.031   7.073  0.0470 -0.0351  0.4442
 2684SOL     OW 9502   5.121   2.404   3.722 -0.2457 -0.3389 -0.5034
 2684SOL    HW1 9503   5.071   2.466   3.776 -0.3114 -0.6864 -0.1593
 2684SOL    HW2 9504   5.066   2.326   3.718  0.1318 -0.6146 -0.3773
 2685SOL     OW 9505   3.950   9.173   7.082  0.5449 -0.3017  0.2507
 2685SOL    HW1 9506   3.916   9.249   7.036 -0.2266 -1.2038 -0.7080
 2685SOL    HW2 9507   3.892   9.164   7.158  1.1905  0.5762  0.8711
 2686SOL     OW 9508   0.768   5.747   1.347 -0.0772  0.3375  0.2796
 2686SOL    HW1 9509   0.830   5.809   1.310 -0.1809  0.3607  0.1453
 2686SOL    HW2 9510   0.780   5.667   1.295 -2.7468  1.4197 -2.2814
 2687SOL     OW 9511   5.571   3.365   5.326 -0.1642  0.3194 -0.2258
 2687SOL    HW1 9512   5.583   3.330   5.414  0.5973 -0.2843 -0.5601
 2687SOL    HW2 9513   5.659   3.391   5.298 -0.2075 -0.5427 -1.2414
 2688SOL     OW 9514   1.935   7.025   3.328  0.1642  0.4099  0.6758
 2688SOL    HW1 9515   1.991   7.062   3.396  0.0535 -0.0796  1.0436
 2688SOL    HW2 9516   1.949   6.931   3.335  0.0236  0.3459  0.1255
 2689SOL     OW 9517   4.284   0.179   5.997 -0.8225 -0.6935  0.2689
 2689SOL    HW1 9518   4.302   0.263   5.954 -0.1295  0.4848  2.6822
 2689SOL    HW2 9519   4.212   0.141   5.945  0.6340  0.0442 -2.5129
 2690SOL     OW 9520   3.789   9.032   5.677 -0.0294 -0.4785  0.3936
 2690SOL    HW1 9521   3.821   9.099   5.616  0.0572 -0.3394  0.5919
 2690SOL    HW2 9522   3.832   8.951   5.648 -0.8829 -0.6485 -0.4458
 2691SOL     OW 9523   3.525   7.926   0.553 -0.0570  0.2114 -0.5272
 2691SOL    HW1 9524   3.482   7.840   0.550 -0.7934  0.5478 -0.0009
 2691SOL    HW2 9525   3.547   7.945   0.462 -0.3550 -0.3089 -0.7161
 2692SOL     OW 9526   4.421   0.258   4.059 -0.3244  0.3042  0.2582
 2692SOL    HW1 9527   4.465   0.290   3.981 -0.8395  1.4711  0.4225
 2692SOL    HW2 9528   4.332   0.292   4.052 -0.7628 -0.7060  0.6977
 2693SOL     OW 9529   2.377   1.652   1.494 -0.6701  0.3833  0.1971
 2693SOL    HW1 9530   2.377   1.642   1.399 -0.5293  1.8006  0.0204
 2693SOL    HW2 9531   2.331   1.574   1.526 -0.1716 -0.4254 -0.9763
 2694SOL     OW 9532   8.631   2.217   5.072 -0.1027 -0.2615 -0.2034
 2694SOL    HW1 9533   8.686   2.291   5.046 -1.4473  0.5290 -0.9371
 2694SOL    HW2 9534   8.548   2.231   5.026  0.0047 -2.9223 -1.4187
 2695SOL     OW 9535   8.696   6.921   1.530  0.2000  0.3991 -0.2478
 2695SOL    HW1 9536   8.791   6.911   1.521  0.2221  0.8544 -0.6024
 2695SOL    HW2 9537   8.668   6.843   1.577  0.8438  0.5841  0.4622
 2696SOL     OW 9538   6.791   6.278   2.130 -0.1701  0.4978  0.0194
 2696SOL    HW1 9539   6.831   6.293   2.044 -1.7673  0.8759 -0.6841
 2696SOL    HW2 9540   6.783   6.183   2.137 -2.3238  0.5090 -1.3913
 2697SOL     OW 9541   6.921   0.703   7.840 -0.2332  0.6007  0.3317
 2697SOL    HW1 9542   6.975   0.728   7.915  1.1251  0.0770 -0.4276
 2697SOL    HW2 9543   6.981   0.655   7.783 -1.8330 -1.2624  0.0926
 2698SOL     OW 9544   4.898   3.090   5.158 -0.9215 -0.4800  0.2110
 2698SOL    HW1 9545   4.887   3.141   5.238 -0.2907  0.3479 -0.2200
 2698SOL    HW2 9546   4.948   3.013   5.185 -0.6147 -0.1492  0.5875
 2699SOL     OW 9547   8.952   1.959   1.195  0.1365 -0.1091  0.3253
 2699SOL    HW1 9548   8.929   1.950   1.288 -1.5603 -0.4048 -0.0827
 2699SOL    HW2 9549   8.886   2.019   1.160  1.1060  0.4630 -0.5851
 2700SOL     OW 9550   5.596   3.754   4.999  0.2077  0.2897  1.1173
 2700SOL    HW1 9551   5.566   3.837   4.961  1.3317  0.2087 -0.0046
 2700SOL    HW2 9552   5.532   3.736   5.068 -2.1040  0.3354 -0.8605
 2701SOL     OW 9553   4.531   5.404   1.816  0.2258  0.4307  0.7098
 2701SOL    HW1 9554   4.613   5.441   1.782 -0.5691  0.0022 -1.9360
 2701SOL    HW2 9555   4.474   5.480   1.829 -0.0883  0.5243 -0.9202
 2702SOL     OW 9556   2.511   1.787   4.881  1.1796  0.3356 -0.0976
 2702SOL    HW1 9557   2.567   1.779   4.958  1.1250 -0.3457 -0.1235
 2702SOL    HW2 9558   2.423   1.768   4.914  1.4726 -2.7482 -0.8009
 2703SOL     OW 9559   8.148   6.877   4.603  0.0927  0.3825  0.0815
 2703SOL    HW1 9560   8.164   6.863   4.696 -3.2721 -2.4193  0.4357
 2703SOL    HW2 9561   8.072   6.822   4.583  1.1722  0.1846 -4.5492
 2704SOL     OW 9562   3.325   3.911   6.209  0.0532 -0.1539  0.3801
 2704SOL    HW1 9563   3.396   3.962   6.247 -0.5446  1.2566 -0.3483
 2704SOL    HW2 9564   3.353   3.894   6.119 -0.4565  0.2854  0.1345
 2705SOL     OW 9565   3.468   8.385   8.241 -0.3057 -0.2421 -0.0733
 2705SOL    HW1 9566   3.461   8.366   8.148  1.9233 -1.5137 -0.0683
 2705SOL    HW2 9567   3.534   8.454   8.246  1.3463 -1.7566  0.5877
 2706SOL     OW 9568   7.296   2.971   0.264  0.0147  0.1251  0.4680
 2706SOL    HW1 9569   7.232   2.986   0.334  1.2192 -1.5238  2.0279
 2706SOL    HW2 9570   7.291   2.877   0.247 -0.4112  0.5230 -1.9001
 2707SOL     OW 9571   4.513   7.396   8.860  0.0291 -0.7759 -0.2394
 2707SOL    HW1 9572   4.467   7.370   8.780 -1.8116  0.4997  0.3395
 2707SOL    HW2 9573   4.505   7.320   8.918 -1.1977 -0.6699 -0.2374
 2708SOL     OW 9574   7.101   5.342   3.047  0.0327  0.1955  0.4883
 2708SOL    HW1 9575   7.038   5.390   3.100 -1.8621 -0.7429 -0.8242
 2708SOL    HW2 9576   7.051   5.272   3.006  2.0118 -0.8448 -0.3319
 2709SOL     OW 9577   7.776   0.769   7.087 -0.5878 -0.0740  0.2384
 2709SOL    HW1 9578   7.839   0.821   7.137 -2.8251  0.4140  2.7898
 2709SOL    HW2 9579   7.746   0.703   7.149 -0.6265 -2.0395 -1.7752
 2710SOL     OW 9580   3.472   8.229   5.865  0.1383 -0.0308  0.2255
 2710SOL    HW1 9581   3.548   8.246   5.809 -1.8412  1.1122 -2.3197
 2710SOL    HW2 9582   3.452   8.314   5.904 -1.2092  0.3156 -1.0932
 2711SOL     OW 9583   3.450   3.373   6.616 -0.3615  0.2680 -0.4871
 2711SOL    HW1 9584   3.423   3.462   6.594 -1.6826 -0.3348 -1.4803
 2711SOL    HW2 9585   3.455   3.371   6.711  0.7964  1.6994 -0.5000
 2712SOL     OW 9586   5.305   2.385   2.796  0.5997  0.4096  0.1008
 2712SOL    HW1 9587   5.289   2.294   2.818 -0.7170  1.0592  2.0661
 2712SOL    HW2 9588   5.392   2.385   2.756 -0.0275 -1.8897 -1.4565
 2713SOL     OW 9589   0.017   0.191   5.781  0.0751 -0.2586 -0.3778
 2713SOL    HW1 9590  -0.057   0.232   5.737 -0.4803 -0.1562  0.6263
 2713SOL    HW2 9591   0.080   0.173   5.711  0.1385  1.8421 -0.9111
 2714SOL     OW 9592   2.461   9.164   3.942 -0.4593  0.4577 -0.1653
 2714SOL    HW1 9593   2.406   9.235   3.976 -0.5983  0.1955  0.1708
 2714SOL    HW2 9594   2.444   9.163   3.848 -0.4894  0.8375 -0.1677
 2715SOL     OW 9595   5.212   5.406   7.962 -0.2902  0.5040 -0.6612
 2715SOL    HW1 9596   5.236   5.437   8.049 -1.3752 -0.1607 -0.1001
 2715SOL    HW2 9597   5.163   5.478   7.923 -1.5529  0.0663  0.0766
 2716SOL     OW 9598   6.801   3.369   4.820 -1.0737  0.2200  0.0628
 2716SOL    HW1 9599   6.729   3.307   4.833 -0.4816 -0.6030 -0.4882
 2716SOL    HW2 9600   6.836   3.347   4.733 -1.3902  1.8879 -0.5111
 2717SOL     OW 9601   5.569   3.618   7.394  0.0526 -0.1131  0.3413
 2717SOL    HW1 9602   5.638   3.560   7.364 -0.7974 -0.4907 -0.9579
 2717SOL    HW2 9603   5.491   3.589   7.346 -0.5373  1.6724  0.1640
 2718SOL     OW 9604   4.416   0.316   7.063 -0.5190  0.5938  0.0135
 2718SOL    HW1 9605   4.325   0.322   7.035 -1.5387  1.2327  3.0345
 2718SOL    HW2 9606   4.425   0.383   7.131  1.9664 -0.0621  0.4556
 2719SOL     OW 9607   0.689   3.088   1.505 -0.1724  0.0143 -0.1744
 2719SOL    HW1 9608   0.712   3.027   1.435 -0.3890 -2.2171  1.6009
 2719SOL    HW2 9609   0.772   3.133   1.525  0.0593  0.1295 -1.3207
 2720SOL     OW 9610   4.142   8.631   2.142  0.6826  0.0482  0.4836
 2720SOL    HW1 9611   4.148   8.695   2.213 -0.0320  0.8293 -0.1282
 2720SOL    HW2 9612   4.179   8.551   2.178  0.2586  0.4027  1.7673
 2721SOL     OW 9613   5.822   5.012   0.382 -0.3791  0.0825 -0.2918
 2721SOL    HW1 9614   5.741   5.034   0.427 -0.6557 -0.2799 -0.6099
 2721SOL    HW2 9615   5.848   4.928   0.419 -0.5455 -0.1596 -0.7223
 2722SOL     OW 9616   2.792   4.385   3.960  0.2611 -0.0011  0.2961
 2722SOL    HW1 9617   2.869   4.425   3.920 -0.5801  0.8282 -0.5295
 2722SOL    HW2 9618   2.826   4.308   4.006  1.3925 -0.4811 -1.2714
 2723SOL     OW 9619   6.812   6.072   0.637 -0.6533  0.4551 -0.0419
 2723SOL    HW1 9620   6.820   6.014   0.561 -1.2664  0.0289  0.2075
 2723SOL    HW2 9621   6.889   6.052   0.691 -0.8166 -0.0666 -0.0004
 2724SOL     OW 9622   4.309   7.027   1.059  0.3140  0.4583  0.0546
 2724SOL    HW1 9623   4.238   6.965   1.077  0.5107 -0.0822 -0.9585
 2724SOL    HW2 9624   4.341   7.053   1.146  0.9460 -1.6883  0.5267
 2725SOL     OW 9625   6.433   7.530   7.778 -0.4716  0.0921 -0.4403
 2725SOL    HW1 9626   6.522   7.545   7.747 -0.7709 -0.8375 -1.8505
 2725SOL    HW2 9627   6.442   7.462   7.845 -0.1176  0.0552 -0.5237
 2726SOL     OW 9628   7.292   2.744   6.535  0.6429  0.5344  0.1547
 2726SOL    HW1 9629   7.323   2.715   6.621  2.1397  0.2495 -0.4446
 2726SOL    HW2 9630   7.234   2.674   6.505 -1.0073  1.2815  1.5005
 2727SOL     OW 9631   2.047   3.909   4.021  0.2505  0.0918 -0.0778
 2727SOL    HW1 9632   2.005   3.865   4.095 -0.4841  1.4923  0.3711
 2727SOL    HW2 9633   2.115   3.963   4.060 -0.1674  0.8702 -0.4002
 2728SOL     OW 9634   8.291   8.293   1.964  0.1417 -0.6795 -0.0239
 2728SOL    HW1 9635   8.365   8.290   1.903  0.4441  0.7480  0.2442
 2728SOL    HW2 9636   8.215   8.274   1.910  0.4217  0.4387 -0.8515
 2729SOL     OW 9637   3.641   2.421   0.550 -0.2013 -0.3975  0.5135
 2729SOL    HW1 9638   3.561   2.376   0.522 -1.1159 -0.2520  2.7442
 2729SOL    HW2 9639   3.629   2.511   0.519 -0.6398 -0.5103  0.3359
 2730SOL     OW 9640   4.647   6.379   1.115 -0.1419 -0.5992 -0.2394
 2730SOL    HW1 9641   4.659   6.421   1.030 -3.3129  1.1953  0.0270
 2730SOL    HW2 9642   4.675   6.444   1.179  0.9860 -1.4397  0.1594
 2731SOL     OW 9643   6.205   0.500   6.175  0.3239 -0.4686 -0.0550
 2731SOL    HW1 9644   6.174   0.567   6.237  2.7467 -0.2647  1.0545
 2731SOL    HW2 9645   6.168   0.418   6.209  0.1454 -0.1252  0.6064
 2732SOL     OW 9646   1.203   8.793   6.114 -0.5910  0.5030  0.2470
 2732SOL    HW1 9647   1.205   8.751   6.200  1.3613  0.9859  0.4750
 2732SOL    HW2 9648   1.201   8.886   6.134  0.5269  0.6327 -0.2112
 2733SOL     OW 9649   8.923   2.823   9.131  0.0182 -0.5159 -0.1390
 2733SOL    HW1 9650   8.896   2.838   9.222 -0.5841  0.0254 -0.4048
 2733SOL    HW2 9651   8.897   2.733   9.113 -2.9508  0.3836 -0.8212
 2734SOL     OW 9652   9.090   2.708   4.966 -0.0990 -0.2091 -0.0395
 2734SOL    HW1 9653   9.115   2.745   4.881  0.4981  0.8638  0.5676
 2734SOL    HW2 9654   9.105   2.780   5.027 -1.3566 -0.6855  0.8562
 2735SOL     OW 9655   3.145   2.186   6.358 -0.1515 -0.2012 -0.3637
 2735SOL    HW1 9656   3.126   2.257   6.419 -0.8856 -1.6271  1.1507
 2735SOL    HW2 9657   3.073   2.124   6.369 -0.8027 -0.1146 -3.4010
 2736SOL     OW 9658   2.760   2.170   1.577  0.4784  0.2578  0.4975
 2736SOL    HW1 9659   2.744   2.089   1.624 -0.1633  0.0218 -0.1115
 2736SOL    HW2 9660   2.673   2.208   1.563  0.4025 -0.7619 -2.3792
 2737SOL     OW 9661   1.359   0.300   2.994 -0.3047 -0.0442  0.1140
 2737SOL    HW1 9662   1.414   0.349   2.934 -1.6658  1.8561  0.3545
 2737SOL    HW2 9663   1.406   0.217   3.008  1.0025  0.3017 -1.9541
 2738SOL     OW 9664   6.841   4.839   2.547  0.6236  0.1904  0.1415
 2738SOL    HW1 9665   6.914   4.897   2.524  1.2480  0.1625  1.8730
 2738SOL    HW2 9666   6.873   4.790   2.623 -0.5867 -1.0707 -0.1295
 2739SOL     OW 9667   1.935   0.312   2.215  0.3514 -0.2013  0.2013
 2739SOL    HW1 9668   2.007   0.258   2.247  0.0423 -0.8191 -0.1140
 2739SOL    HW2 9669   1.856   0.260   2.233  0.0578  0.0938 -0.2044
 2740SOL     OW 9670   5.440   6.835   1.019 -0.0053  0.1128 -0.2397
 2740SOL    HW1 9671   5.501   6.793   1.079  0.9693  0.2854 -1.0713
 2740SOL    HW2 9672   5.447   6.928   1.039  1.3317  0.3129 -1.4691
 2741SOL     OW 9673   7.046   1.301   8.017  0.1134  0.0126  0.0547
 2741SOL    HW1 9674   7.101   1.371   7.980 -0.7416  1.0864  0.7414
 2741SOL    HW2 9675   7.022   1.334   8.104 -0.7739 -0.8947  0.1613
 2742SOL     OW 9676   8.895   1.185   6.843 -0.2819  0.3183  0.1077
 2742SOL    HW1 9677   8.955   1.115   6.816 -0.0682  0.8276 -0.8018
 2742SOL    HW2 9678   8.913   1.256   6.781  0.5842  1.7729  1.9283
 2743SOL     OW 9679   8.743   4.853   2.740 -0.2710 -0.3075  0.3751
 2743SOL    HW1 9680   8.822   4.831   2.790 -0.9271 -1.5120  0.9340
 2743SOL    HW2 9681   8.708   4.930   2.784  1.2490  1.0361 -0.6565
 2744SOL     OW 9682   4.782   9.091   6.873  0.8120 -0.5358 -1.1319
 2744SOL    HW1 9683   4.866   9.045   6.881 -0.9368 -4.2413 -1.7896
 2744SOL    HW2 9684   4.784   9.130   6.786  1.9088 -0.4062 -1.0634
 2745SOL     OW 9685   1.481   8.346   5.585  0.4123 -0.4030  0.1452
 2745SOL    HW1 9686   1.424   8.383   5.652  1.4152  1.7271 -0.1013
 2745SOL    HW2 9687   1.422   8.324   5.513 -0.5696 -1.9738  1.3577
 2746SOL     OW 9688   6.325   5.630   8.703  0.3367  0.0930  0.5938
 2746SOL    HW1 9689   6.251   5.571   8.688 -1.0881  1.2121  2.6491
 2746SOL    HW2 9690   6.329   5.683   8.624  0.4453 -1.4777 -0.5013
 2747SOL     OW 9691   7.161   8.588   4.804  0.3048  0.1996  0.1374
 2747SOL    HW1 9692   7.089   8.557   4.749 -1.8122  2.6843  1.2962
 2747SOL    HW2 9693   7.176   8.518   4.867  0.6412 -1.3628 -1.5819
 2748SOL     OW 9694   0.032   4.817   5.584 -0.0855  0.3511 -0.0995
 2748SOL    HW1 9695  -0.041   4.856   5.537 -0.2967 -0.6227 -0.6181
 2748SOL    HW2 9696   0.107   4.831   5.526  0.2095  1.6055  0.5648
 2749SOL     OW 9697   5.432   5.421   0.836  0.5334  0.1223 -0.3531
 2749SOL    HW1 9698   5.517   5.429   0.879  0.4976  1.7494 -0.5215
 2749SOL    HW2 9699   5.448   5.365   0.760  1.0928 -0.8855  0.5056
 2750SOL     OW 9700   0.608   1.841   7.891 -0.3041  0.2026 -0.0100
 2750SOL    HW1 9701   0.567   1.761   7.857 -2.3414  0.3227  1.9299
 2750SOL    HW2 9702   0.670   1.810   7.957 -0.8502  0.2052  0.5061
 2751SOL     OW 9703   3.610   1.031   1.199 -0.5520 -0.1281  0.3173
 2751SOL    HW1 9704   3.523   1.006   1.232 -0.7374 -1.1954 -0.8762
 2751SOL    HW2 9705   3.643   1.093   1.264 -2.4638  0.8033  0.4822
 2752SOL     OW 9706   0.696   3.653   2.600 -0.0295  0.3001 -0.2802
 2752SOL    HW1 9707   0.645   3.699   2.533 -0.1986  0.2239 -0.2036
 2752SOL    HW2 9708   0.631   3.606   2.651 -0.0009  1.0830  0.5030
 2753SOL     OW 9709   6.753   8.124   8.803 -0.1885 -0.3340 -0.9949
 2753SOL    HW1 9710   6.721   8.138   8.893 -0.5502  1.4065 -1.3504
 2753SOL    HW2 9711   6.771   8.031   8.798 -0.4766 -0.5206  0.7949
 2754SOL     OW 9712   7.866   0.104   6.103 -0.1966 -0.4419 -0.1459
 2754SOL    HW1 9713   7.825   0.186   6.076  1.2199 -0.0151 -1.1271
 2754SOL    HW2 9714   7.822   0.080   6.185 -1.5101  0.6082 -0.5118
 2755SOL     OW 9715   5.040   1.373   4.797 -0.3075  0.4833 -0.3263
 2755SOL    HW1 9716   5.023   1.282   4.822 -0.7557  0.9479  1.1786
 2755SOL    HW2 9717   5.135   1.383   4.807 -0.0342 -0.1718 -1.8772
 2756SOL     OW 9718   5.111   6.304   5.681  0.1388  0.3999 -0.1048
 2756SOL    HW1 9719   5.092   6.213   5.658 -0.6601  0.5112  0.0895
 2756SOL    HW2 9720   5.144   6.342   5.599 -0.7364  0.2608 -0.5366
 2757SOL     OW 9721   8.232   5.125   7.946  0.0511  0.4076 -0.3592
 2757SOL    HW1 9722   8.326   5.138   7.947  0.1305 -0.1324 -0.3258
 2757SOL    HW2 9723   8.197   5.196   8.000  0.5331 -0.1210  0.6747
 2758SOL     OW 9724   1.089   6.355   2.307  0.4547 -0.1487 -0.0961
 2758SOL    HW1 9725   1.037   6.314   2.238  0.8482  0.6804 -0.9046
 2758SOL    HW2 9726   1.109   6.283   2.367 -2.4172 -0.3329  0.7987
 2759SOL     OW 9727   8.393   3.956   6.369 -0.3117  0.3088 -0.1085
 2759SOL    HW1 9728   8.447   3.951   6.448  0.0546 -1.7446 -0.4245
 2759SOL    HW2 9729   8.423   3.884   6.315 -0.4397  1.7783 -2.2453
 2760SOL     OW 9730   8.038   4.254   6.116  0.1516  0.5909 -0.2282
 2760SOL    HW1 9731   8.044   4.328   6.175 -1.3537  0.2169  0.4530
 2760SOL    HW2 9732   8.127   4.220   6.110  0.7320  2.0267 -0.0212
 2761SOL     OW 9733   8.387   7.113   0.222  0.5762  0.7836  0.4407
 2761SOL    HW1 9734   8.321   7.045   0.212 -0.0755  1.5524 -0.6636
 2761SOL    HW2 9735   8.351   7.170   0.290  0.0767  1.2057 -0.1637
 2762SOL     OW 9736   8.993   9.172   5.691 -0.6495  0.6717  0.0411
 2762SOL    HW1 9737   8.926   9.110   5.721 -1.1999  0.8362 -0.8040
 2762SOL    HW2 9738   8.997   9.158   5.596 -0.1170  1.2969 -0.0350
 2763SOL     OW 9739   5.010   7.572   7.309  0.4374 -0.1353 -0.1452
 2763SOL    HW1 9740   5.095   7.562   7.267  0.8847  0.9800  0.4585
 2763SOL    HW2 9741   4.969   7.645   7.263  0.6906  0.7151  0.9481
 2764SOL     OW 9742   2.722   5.523   5.128 -0.0479 -0.0238 -0.4355
 2764SOL    HW1 9743   2.627   5.528   5.141  0.1282  1.7593  0.5591
 2764SOL    HW2 9744   2.741   5.591   5.063  0.7543  1.2276  1.0316
 2765SOL     OW 9745   4.192   8.052   2.260 -0.1561 -0.2776  0.2702
 2765SOL    HW1 9746   4.202   8.142   2.231 -0.1884 -0.1145  0.7462
 2765SOL    HW2 9747   4.198   8.057   2.356  1.0208 -0.9331  0.2487
 2766SOL     OW 9748   0.880   6.208   7.598 -0.0044 -0.3092  0.2376
 2766SOL    HW1 9749   0.824   6.156   7.656  0.9678 -1.5747  0.0793
 2766SOL    HW2 9750   0.968   6.199   7.635  0.2370  1.0147  0.0344
 2767SOL     OW 9751   0.306   8.516   7.421 -0.0461  0.2048 -0.1684
 2767SOL    HW1 9752   0.272   8.593   7.467  0.2319  1.1043 -1.4184
 2767SOL    HW2 9753   0.376   8.550   7.366 -0.1863 -0.8834 -1.0454
 2768SOL     OW 9754   3.459   3.840   2.159 -0.2596  0.2162 -0.3236
 2768SOL    HW1 9755   3.381   3.895   2.153 -0.1220  0.6439  1.4198
 2768SOL    HW2 9756   3.472   3.825   2.253  1.4477 -0.2994 -0.5971
 2769SOL     OW 9757   4.145   2.025   7.469  0.2132 -0.0951  0.1105
 2769SOL    HW1 9758   4.135   2.111   7.428  1.0099 -0.0116  0.0763
 2769SOL    HW2 9759   4.158   2.043   7.562 -0.1467 -0.2050  0.1816
 2770SOL     OW 9760   8.710   5.111   6.644  0.1413  0.0917 -0.1217
 2770SOL    HW1 9761   8.714   5.177   6.575 -1.6439  0.2575 -0.1063
 2770SOL    HW2 9762   8.691   5.029   6.598  0.1335 -0.0113  0.0618
 2771SOL     OW 9763   7.383   7.078   3.503  0.0848  0.1211  0.3155
 2771SOL    HW1 9764   7.420   7.094   3.416  2.8504 -2.4107  0.8741
 2771SOL    HW2 9765   7.395   7.160   3.550  0.3317  0.9170 -1.0694
 2772SOL     OW 9766   0.763   1.128   4.728  0.3838 -0.3833  0.5390
 2772SOL    HW1 9767   0.831   1.171   4.781 -2.4844  2.3484  2.3835
 2772SOL    HW2 9768   0.757   1.182   4.650 -0.1116 -0.1863  0.7113
 2773SOL     OW 9769   5.228   2.833   9.262  0.5529 -0.1085 -0.5082
 2773SOL    HW1 9770   5.193   2.752   9.225  1.6234 -0.0300 -1.7794
 2773SOL    HW2 9771   5.247   2.812   9.353 -1.0416 -0.6766 -0.2754
 2774SOL     OW 9772   2.136   8.046   5.336 -0.0901  0.1983 -0.4331
 2774SOL    HW1 9773   2.156   8.013   5.424 -1.9449 -0.6463 -0.2738
 2774SOL    HW2 9774   2.049   8.084   5.345 -1.3494 -1.9676 -2.3620
 2775SOL     OW 9775   5.979   8.140   7.083  0.1518  0.2587 -0.5715
 2775SOL    HW1 9776   5.895   8.165   7.120 -0.9177 -1.6575 -1.5228
 2775SOL    HW2 9777   5.965   8.141   6.989  1.4463  0.6738 -0.7726
 2776SOL     OW 9778   9.277   4.381   7.018 -0.0913 -0.0630 -0.5977
 2776SOL    HW1 9779   9.232   4.334   6.948 -0.3389  0.6540 -0.9242
 2776SOL    HW2 9780   9.222   4.458   7.034 -0.2909 -0.4500  0.7044
 2777SOL     OW 9781   8.569   5.679   3.109  0.0545 -0.1699  0.3701
 2777SOL    HW1 9782   8.551   5.763   3.066  0.8455 -0.3861 -0.4143
 2777SOL    HW2 9783   8.502   5.672   3.177 -0.5104  0.7282 -0.0745
 2778SOL     OW 9784   6.303   3.114   1.517  0.0664  0.0438  0.5198
 2778SOL    HW1 9785   6.236   3.075   1.573 -0.3473 -1.9770 -1.2578
 2778SOL    HW2 9786   6.385   3.099   1.564 -0.3133 -1.2505  0.8078
 2779SOL     OW 9787   4.175   3.316   8.362 -0.5112 -0.1663  0.4070
 2779SOL    HW1 9788   4.093   3.334   8.408  0.1084  1.6837  0.8616
 2779SOL    HW2 9789   4.155   3.330   8.270 -0.6308  0.6777  0.5508
 2780SOL     OW 9790   0.136   0.204   7.801  0.4788 -0.1546  0.1739
 2780SOL    HW1 9791   0.132   0.300   7.802  1.7539 -0.0820  0.3371
 2780SOL    HW2 9792   0.084   0.179   7.725 -1.1410  0.5666  0.9972
 2781SOL     OW 9793   0.697   2.346   5.339  0.2298  0.2713 -0.7159
 2781SOL    HW1 9794   0.745   2.347   5.255  1.4664  4.0691 -0.1520
 2781SOL    HW2 9795   0.765   2.356   5.405 -0.8854 -0.9492  0.6697
 2782SOL     OW 9796   3.163   6.721   1.727 -0.3219 -0.1000  0.1610
 2782SOL    HW1 9797   3.110   6.791   1.688 -0.8621 -0.9489 -0.6666
 2782SOL    HW2 9798   3.234   6.767   1.771 -0.3539  0.9633 -0.8363
 2783SOL     OW 9799   7.491   5.813   1.003 -0.2477 -0.2882  0.4603
 2783SOL    HW1 9800   7.516   5.743   1.063 -0.9320 -0.4597  0.5506
 2783SOL    HW2 9801   7.396   5.815   1.007 -0.3260 -0.5511 -0.9204
 2784SOL     OW 9802   0.986   9.086   4.798  0.0950  0.7927  0.3160
 2784SOL    HW1 9803   1.021   9.000   4.821  0.5132  0.0604 -2.5809
 2784SOL    HW2 9804   1.063   9.141   4.782 -0.1704  1.6589  1.8105
 2785SOL     OW 9805   6.234   1.085   7.867 -0.0985 -0.0362 -0.0557
 2785SOL    HW1 9806   6.199   1.090   7.778 -0.7978  1.7135  0.2811
 2785SOL    HW2 9807   6.168   1.035   7.915  0.1172 -0.6980 -0.4345
 2786SOL     OW 9808   8.745   6.847   7.579 -0.4162 -0.4566  0.5378
 2786SOL    HW1 9809   8.799   6.840   7.500  0.3122 -1.2543  1.1019
 2786SOL    HW2 9810   8.665   6.890   7.548  0.0767 -0.2563 -0.5272
 2787SOL     OW 9811   1.872   0.348   1.034  0.1084 -0.1039 -0.5793
 2787SOL    HW1 9812   1.945   0.399   1.071 -0.7867 -0.0721  1.2771
 2787SOL    HW2 9813   1.795   0.402   1.051 -0.4965 -0.6546 -1.5032
 2788SOL     OW 9814   8.973   7.884   5.331 -0.0193 -0.7627  0.4891
 2788SOL    HW1 9815   8.893   7.878   5.384  0.8058 -2.8635  1.6607
 2788SOL    HW2 9816   8.980   7.976   5.308 -1.5374 -0.1052  2.3433
 2789SOL     OW 9817   6.407   6.789   1.469  0.2473 -0.0934 -0.1387
 2789SOL    HW1 9818   6.339   6.835   1.518  1.1812 -1.0715  2.1976
 2789SOL    HW2 9819   6.489   6.811   1.514  1.4693  0.5830 -2.5162
 2790SOL     OW 9820   3.244   0.804   8.513  0.3394  0.6382  0.3171
 2790SOL    HW1 9821   3.276   0.890   8.485  0.8079  1.5080  3.2091
 2790SOL    HW2 9822   3.149   0.812   8.511  0.3757  1.3408  0.7814
 2791SOL     OW 9823   0.347   8.594   8.665 -0.0545 -0.9359 -0.2476
 2791SOL    HW1 9824   0.254   8.580   8.683  0.4647 -0.7032  3.2361
 2791SOL    HW2 9825   0.360   8.555   8.579 -3.2905 -1.2393 -0.7387
 2792SOL     OW 9826   2.440   5.409   6.696  0.2555  0.3416 -0.2565
 2792SOL    HW1 9827   2.349   5.401   6.723  0.3405  1.9741  0.5990
 2792SOL    HW2 9828   2.441   5.373   6.607 -0.9741 -0.7467  0.1395
 2793SOL     OW 9829   2.576   8.510   3.149  0.1567  0.3021 -0.6340
 2793SOL    HW1 9830   2.601   8.432   3.100 -1.1512 -0.2505 -0.4643
 2793SOL    HW2 9831   2.545   8.571   3.083 -0.2005  0.1150 -0.6449
 2794SOL     OW 9832   8.744   5.654   8.560 -0.5252  0.4013 -0.1478
 2794SOL    HW1 9833   8.717   5.731   8.610  0.5824  0.2031  0.7991
 2794SOL    HW2 9834   8.729   5.580   8.618 -0.9207 -0.0410 -0.7943
 2795SOL     OW 9835   7.916   8.038   8.984  1.3059  0.3166  0.1617
 2795SOL    HW1 9836   7.982   8.072   8.923 -1.0493  0.9965 -2.1532
 2795SOL    HW2 9837   7.862   7.980   8.931  0.6687 -1.1548  2.2794
 2796SOL     OW 9838   7.983   7.165   1.236  0.3089  0.0834 -0.1040
 2796SOL    HW1 9839   7.997   7.220   1.159 -1.1185  0.5535 -0.0562
 2796SOL    HW2 9840   7.889   7.149   1.237  0.5406 -1.3941  0.5586
 2797SOL     OW 9841   4.139   7.388   2.544  0.3672  0.0546  0.0215
 2797SOL    HW1 9842   4.121   7.481   2.531  0.9474 -0.0200 -1.5504
 2797SOL    HW2 9843   4.226   7.386   2.584  1.1366  0.1693 -1.5823
 2798SOL     OW 9844   8.798   5.963   4.044  0.1718  0.0113  0.1853
 2798SOL    HW1 9845   8.879   5.942   3.996  0.4531  3.2718 -0.9931
 2798SOL    HW2 9846   8.746   5.883   4.037  1.2056 -0.5623 -3.5688
 2799SOL     OW 9847   4.105   3.990   8.168  0.0523 -0.0998 -0.4921
 2799SOL    HW1 9848   4.059   3.913   8.201  0.2812 -0.4137 -0.8928
 2799SOL    HW2 9849   4.158   4.020   8.242 -0.0975 -0.2798 -0.3100
 2800SOL     OW 9850   0.504   2.497   4.789 -0.4853 -0.2945  0.2373
 2800SOL    HW1 9851   0.410   2.481   4.791 -0.7139  0.9782  0.0587
 2800SOL    HW2 9852   0.521   2.538   4.705  0.5030 -1.9550 -0.4367
 2801SOL     OW 9853   0.050   1.562   5.422  0.3869  0.2230 -0.0781
 2801SOL    HW1 9854   0.108   1.629   5.388 -0.2632  0.8425  0.0125
 2801SOL    HW2 9855   0.073   1.483   5.373  0.5633  0.7202 -0.8116
 2802SOL     OW 9856   0.324   4.879   7.304 -0.1915 -0.4450  0.3820
 2802SOL    HW1 9857   0.269   4.907   7.377  0.3219  0.6274  0.3870
 2802SOL    HW2 9858   0.399   4.836   7.346 -0.8368 -1.5869  0.3889
 2803SOL     OW 9859   7.081   1.589   1.662 -0.0795  0.0502  0.0964
 2803SOL    HW1 9860   7.033   1.560   1.585  0.8017  0.6343 -0.6989
 2803SOL    HW2 9861   7.025   1.655   1.703 -0.3103  0.1497 -0.3722
 2804SOL     OW 9862   8.964   3.090   9.053  0.1100  0.5601 -0.2188
 2804SOL    HW1 9863   8.884   3.102   9.104  0.3193 -0.3323  0.3330
 2804SOL    HW2 9864   8.999   3.006   9.082 -0.8853 -1.0798 -3.3529
 2805SOL     OW 9865   4.378   0.627   2.038  0.2203 -0.1994 -0.2130
 2805SOL    HW1 9866   4.389   0.593   1.949 -0.6790  2.2944 -1.3667
 2805SOL    HW2 9867   4.302   0.684   2.032  0.4616  0.4299  2.0629
 2806SOL     OW 9868   5.163   1.492   7.160  0.8390  0.6425  0.1753
 2806SOL    HW1 9869   5.135   1.534   7.078  0.7059  0.3743  0.0834
 2806SOL    HW2 9870   5.092   1.512   7.222 -0.0511 -0.8479 -0.3124
 2807SOL     OW 9871   5.773   4.725   0.655 -0.0924 -0.0238  0.1732
 2807SOL    HW1 9872   5.692   4.690   0.692  0.0694  1.5914  2.1914
 2807SOL    HW2 9873   5.842   4.668   0.690 -0.2420 -1.0273 -1.0653
 2808SOL     OW 9874   8.176   7.573   7.754  0.3553 -0.8485 -0.3395
 2808SOL    HW1 9875   8.265   7.580   7.719  1.3989 -0.8269  2.0930
 2808SOL    HW2 9876   8.174   7.488   7.797 -0.9441 -0.9954 -0.6590
 2809SOL     OW 9877   0.377   5.464   2.789  0.0666 -0.4331  0.4629
 2809SOL    HW1 9878   0.390   5.558   2.777 -0.2725 -0.4150  0.2006
 2809SOL    HW2 9879   0.465   5.426   2.783  0.1695 -0.1661  0.2521
 2810SOL     OW 9880   5.738   5.936   1.942 -0.7654 -0.3561 -0.6236
 2810SOL    HW1 9881   5.718   6.007   1.880  0.7584  0.1591 -0.5726
 2810SOL    HW2 9882   5.833   5.931   1.942 -0.7870 -1.1928  0.7553
 2811SOL     OW 9883   4.202   5.239   7.367  0.2121  0.0082  0.3092
 2811SOL    HW1 9884   4.179   5.259   7.457 -1.6620  1.7208 -0.4671
 2811SOL    HW2 9885   4.254   5.159   7.372  0.7531  0.4428  2.9330
 2812SOL     OW 9886   2.726   5.097   7.948 -0.7656  0.6576 -0.2855
 2812SOL    HW1 9887   2.762   5.151   8.019 -0.9267  1.7423 -1.0026
 2812SOL    HW2 9888   2.634   5.121   7.945 -0.7886  0.5060 -0.7697
 2813SOL     OW 9889   7.692   8.295   0.272 -0.2947  0.0280 -0.2289
 2813SOL    HW1 9890   7.601   8.268   0.258 -0.3372 -0.1836  0.4489
 2813SOL    HW2 9891   7.713   8.266   0.360  1.3258 -2.4407 -1.3124
 2814SOL     OW 9892   0.198   8.937   3.949  0.3402  0.2656  0.2582
 2814SOL    HW1 9893   0.150   8.928   3.866  0.9166  3.3408 -0.5470
 2814SOL    HW2 9894   0.174   8.860   3.999 -1.6917 -0.6769 -1.9598
 2815SOL     OW 9895   1.769   7.598   7.241 -0.2509 -0.5433 -0.4087
 2815SOL    HW1 9896   1.841   7.652   7.208 -0.1997  0.5444  1.3172
 2815SOL    HW2 9897   1.809   7.544   7.309 -0.9066 -0.5017  0.0195
 2816SOL     OW 9898   6.601   8.943   0.189  0.2770 -0.2383 -0.7358
 2816SOL    HW1 9899   6.674   8.963   0.247  0.5209  1.8832 -1.6582
 2816SOL    HW2 9900   6.547   9.022   0.190 -1.6962 -1.5158 -0.5826
 2817SOL     OW 9901   9.204   3.950   4.808 -0.6704 -0.1320  0.0840
 2817SOL    HW1 9902   9.243   3.949   4.720 -0.1971 -2.5500  0.2646
 2817SOL    HW2 9903   9.229   4.035   4.844  0.5913  0.2084 -1.4713
 2818SOL     OW 9904   9.235   4.145   7.897 -0.3510 -0.3546  0.4518
 2818SOL    HW1 9905   9.170   4.076   7.905  0.3085 -0.8778  1.5466
 2818SOL    HW2 9906   9.217   4.204   7.971  0.9687 -1.0215  1.3616
 2819SOL     OW 9907   6.306   6.953   6.614 -0.1801 -0.1287  0.2302
 2819SOL    HW1 9908   6.290   7.016   6.543  0.0715 -0.4068 -0.0807
 2819SOL    HW2 9909   6.319   7.007   6.691 -0.0026  0.2046 -0.0292
 2820SOL     OW 9910   1.503   3.394   8.566  0.1988  0.3285 -0.8403
 2820SOL    HW1 9911   1.557   3.374   8.490 -1.1491  1.2522 -2.1034
 2820SOL    HW2 9912   1.430   3.333   8.561  0.0946  0.4066 -0.3058
 2821SOL     OW 9913   1.318   5.375   4.514  0.1853  0.4167 -0.3352
 2821SOL    HW1 9914   1.356   5.437   4.452  1.2759  1.1030  0.9688
 2821SOL    HW2 9915   1.229   5.406   4.528  1.0534  2.4019  1.1518
 2822SOL     OW 9916   1.188   3.653   3.719  0.5436 -0.5323 -0.1817
 2822SOL    HW1 9917   1.155   3.690   3.801  1.0263 -0.6990  0.0972
 2822SOL    HW2 9918   1.116   3.597   3.688  0.2499 -0.2504 -0.0172
 2823SOL     OW 9919   3.007   4.725   7.719  0.1366  0.1176 -0.0086
 2823SOL    HW1 9920   3.041   4.645   7.679  0.6109 -0.0291  0.6706
 2823SOL    HW2 9921   2.937   4.695   7.777 -0.7135  0.3524 -0.8968
 2824SOL     OW 9922   0.959   2.421   7.354  0.2036 -0.4477 -0.5856
 2824SOL    HW1 9923   0.948   2.381   7.267 -0.1526  0.5047 -0.9981
 2824SOL    HW2 9924   1.038   2.381   7.389  1.0844  0.0699 -1.8971
 2825SOL     OW 9925   2.001   4.517   2.072  0.9659  0.1869 -0.0561
 2825SOL    HW1 9926   1.964   4.548   2.155  0.4353  0.2567 -0.3162
 2825SOL    HW2 9927   2.091   4.550   2.072  0.2842  2.1347 -0.5297
 2826SOL     OW 9928   2.819   5.136   6.418  0.0680 -0.5681  0.2288
 2826SOL    HW1 9929   2.894   5.186   6.449  0.6105 -1.5553  0.5607
 2826SOL    HW2 9930   2.848   5.099   6.334 -0.3998 -0.1559 -0.1170
 2827SOL     OW 9931   5.472   7.152   0.939  0.5276 -0.7333 -0.5425
 2827SOL    HW1 9932   5.465   7.130   1.032  0.0414 -1.2906 -0.7075
 2827SOL    HW2 9933   5.388   7.194   0.918  0.9669  0.1878 -0.5299
 2828SOL     OW 9934   3.950   3.945   9.269 -0.2101  0.4108  0.2821
 2828SOL    HW1 9935   4.025   3.907   9.225  0.1293 -0.6044  1.6746
 2828SOL    HW2 9936   3.985   3.982   9.350 -1.1085  0.4018  0.6925
 2829SOL     OW 9937   3.105   2.063   7.235  0.0914  0.1449 -0.4108
 2829SOL    HW1 9938   3.036   2.078   7.300  1.5511  0.7836  1.0644
 2829SOL    HW2 9939   3.160   2.141   7.240  1.9118 -1.0757 -0.2321
 2830SOL     OW 9940   6.346   6.686   2.831 -0.0645 -0.5822  0.4613
 2830SOL    HW1 9941   6.403   6.738   2.888  1.9820 -2.2866  0.1059
 2830SOL    HW2 9942   6.325   6.608   2.883 -1.4167 -0.3728  0.2647
 2831SOL     OW 9943   2.807   5.637   1.048  0.1600 -0.3199  0.5483
 2831SOL    HW1 9944   2.824   5.722   1.008 -0.5172  1.7100  4.1690
 2831SOL    HW2 9945   2.711   5.632   1.055  0.2503 -0.4704  2.0150
 2832SOL     OW 9946   0.519   1.174   0.193  0.4113  0.0452 -0.0127
 2832SOL    HW1 9947   0.439   1.130   0.165 -1.1080  3.1495 -1.0478
 2832SOL    HW2 9948   0.562   1.111   0.251 -1.3033 -2.8509 -1.6446
 2833SOL     OW 9949   6.693   6.267   6.435  0.3537  0.8867 -0.0598
 2833SOL    HW1 9950   6.635   6.342   6.442 -1.9544 -0.9158  1.4802
 2833SOL    HW2 9951   6.658   6.203   6.496  2.5272 -1.2816 -0.9015
 2834SOL     OW 9952   6.170   4.190   6.830 -0.6919  0.7868  0.7949
 2834SOL    HW1 9953   6.090   4.166   6.875 -0.7917 -0.4699  0.0055
 2834SOL    HW2 9954   6.237   4.133   6.867 -0.6910  0.0435 -0.2879
 2835SOL     OW 9955   7.908   5.932   4.225  0.3836  0.9023 -0.2862
 2835SOL    HW1 9956   7.900   5.970   4.313 -0.6519 -1.1924  0.6005
 2835SOL    HW2 9957   7.939   5.843   4.240 -1.4850 -0.0869 -1.8792
 2836SOL     OW 9958   8.240   8.469   1.409 -0.1042  0.3667 -0.1204
 2836SOL    HW1 9959   8.285   8.511   1.482 -0.9707 -0.8409  1.1671
 2836SOL    HW2 9960   8.187   8.538   1.370  1.9572  1.5445 -0.9900
 2837SOL     OW 9961   7.282   2.937   1.668 -0.4701 -0.3933 -0.0216
 2837SOL    HW1 9962   7.230   2.958   1.745  0.1001 -1.7631  0.7809
 2837SOL    HW2 9963   7.218   2.932   1.596 -0.9311  1.4241  0.2257
 2838SOL     OW 9964   4.734   4.100   1.112 -0.7962 -0.1461 -0.0092
 2838SOL    HW1 9965   4.698   4.047   1.040 -0.2392 -0.3804 -0.1235
 2838SOL    HW2 9966   4.709   4.190   1.090  0.8706  0.0259 -1.4636
 2839SOL     OW 9967   1.809   6.257   4.985 -0.0483  0.3713 -0.0723
 2839SOL    HW1 9968   1.744   6.257   5.055  0.4961 -1.3889  0.4886
 2839SOL    HW2 9969   1.804   6.345   4.948 -2.8084  0.2798 -0.1342
 2840SOL     OW 9970   6.103   6.726   7.978  0.8193  0.3077  0.0612
 2840SOL    HW1 9971   6.036   6.667   7.943  0.9147  0.3787 -0.2423
 2840SOL    HW2 9972   6.061   6.812   7.980  1.0173  0.4209 -0.4735
 2841SOL     OW 9973   3.240   5.543   1.391  0.4874  0.4339  0.0277
 2841SOL    HW1 9974   3.287   5.536   1.474 -0.1376 -0.6826  0.3043
 2841SOL    HW2 9975   3.267   5.466   1.342 -0.5580  0.1025 -0.0515
 2842SOL     OW 9976   0.536   7.269   6.237 -0.1153 -0.3361  0.1835
 2842SOL    HW1 9977   0.516   7.337   6.301 -1.3067  0.0412 -0.5535
 2842SOL    HW2 9978   0.513   7.308   6.153 -0.6116 -1.5661 -0.2724
 2843SOL     OW 9979   0.824   4.263   3.739  0.3227  0.2300 -0.0484
 2843SOL    HW1 9980   0.890   4.282   3.672 -0.3209 -0.4770 -0.9025
 2843SOL    HW2 9981   0.829   4.338   3.799  2.7812 -0.3810  0.6439
 2844SOL     OW 9982   8.046   7.781   5.647 -0.4258  0.7352  0.1820
 2844SOL    HW1 9983   8.064   7.875   5.650  1.5053  0.5204 -1.9011
 2844SOL    HW2 9984   8.022   7.764   5.556 -0.6015 -0.8242  0.4936
 2845SOL     OW 9985   2.065   8.367   2.614 -0.1100  0.8372 -0.0903
 2845SOL    HW1 9986   2.059   8.420   2.694  2.4239 -0.3653  1.0276
 2845SOL    HW2 9987   2.124   8.296   2.637 -1.2273 -0.9603 -2.3644
 2846SOL     OW 9988   3.113   9.118   7.536 -0.3080 -0.3844  0.0460
 2846SOL    HW1 9989   3.033   9.071   7.512  0.3655 -1.3694 -0.3093
 2846SOL    HW2 9990   3.181   9.081   7.479  0.5793 -0.1539  0.9332
 2847SOL     OW 9991   6.031   8.677   7.167 -0.0537 -0.2420  0.5997
 2847SOL    HW1 9992   6.114   8.704   7.207  0.4039 -0.3244 -0.2716
 2847SOL    HW2 9993   6.014   8.590   7.204 -0.0324 -0.0019  1.1859
 2848SOL     OW 9994   1.133   6.017   7.039  0.2011  0.1150 -0.9120
 2848SOL    HW1 9995   1.114   6.037   6.948 -0.4251  0.9620 -0.6116
 2848SOL    HW2 9996   1.099   5.929   7.053  0.4366 -0.0727 -1.5321
 2849SOL     OW 9997   2.980   2.662   4.620  0.2186 -0.0291 -0.0191
 2849SOL    HW1 9998   3.063   2.620   4.641 -0.0622 -0.9520 -0.6511
 2849SOL    HW2 9999   2.995   2.755   4.635  1.5066 -0.1260 -0.5950
 2850SOL     OW10000   5.085   6.029   8.110 -0.2815 -0.1517 -0.7524
 2850SOL    HW110001   5.167   6.049   8.065  1.3287 -0.4257  1.8786
 2850SOL    HW210002   5.070   5.936   8.092  0.5091 -0.3368 -0.4904
 2851SOL     OW10003   8.508   1.672   0.199  0.2293 -0.4265 -0.3319
 2851SOL    HW110004   8.526   1.637   0.286  0.1128 -1.6815 -0.7795
 2851SOL    HW210005   8.586   1.651   0.148  2.2977  4.1671  0.4425
 2852SOL     OW10006   4.452   2.592   6.272  0.2244  0.2548 -0.2447
 2852SOL    HW110007   4.358   2.600   6.260  0.1165 -0.1100  0.3126
 2852SOL    HW210008   4.487   2.582   6.183 -0.2321  0.6334 -0.4711
 2853SOL     OW10009   0.728   6.519   7.228  0.1377 -0.1479  0.5498
 2853SOL    HW110010   0.668   6.550   7.296  0.4564  0.0032  0.7632
 2853SOL    HW210011   0.762   6.436   7.262 -0.9733 -0.9149 -0.1711
 2854SOL     OW10012   4.992   5.951   6.748 -0.5825 -0.5555 -0.0129
 2854SOL    HW110013   4.965   6.000   6.825  0.1012  0.4721 -0.3949
 2854SOL    HW210014   5.082   5.924   6.767 -0.3486 -0.1419 -0.5175
 2855SOL     OW10015   6.578   6.805   9.057  0.4425 -0.0707 -0.0521
 2855SOL    HW110016   6.522   6.835   8.986 -0.3545 -1.2975  0.0291
 2855SOL    HW210017   6.613   6.885   9.096  0.4306  0.6364 -1.4429
 2856SOL     OW10018   0.474   5.444   0.836  0.8615 -0.1163 -0.3196
 2856SOL    HW110019   0.512   5.463   0.922  0.3587  0.0669 -0.1374
 2856SOL    HW210020   0.469   5.349   0.833  2.4001 -0.2055 -0.8095
 2857SOL     OW10021   4.333   7.812   0.723 -0.0934  0.0859 -0.1220
 2857SOL    HW110022   4.241   7.817   0.697  0.0058  0.5825 -0.3877
 2857SOL    HW210023   4.360   7.722   0.702 -0.5079 -0.0497 -0.0706
 2858SOL     OW10024   5.958   0.519   4.962  0.6356 -0.5418 -0.0525
 2858SOL    HW110025   6.051   0.541   4.948  0.8268 -1.4623 -0.2624
 2858SOL    HW210026   5.959   0.446   5.023 -0.1031  1.5484  2.6148
 2859SOL     OW10027   5.603   9.162   5.480  0.5298 -0.2675 -0.2181
 2859SOL    HW110028   5.547   9.161   5.403 -1.1137 -0.8341  0.9295
 2859SOL    HW210029   5.650   9.245   5.474 -2.0411  1.3114 -0.1651
 2860SOL     OW10030   3.288   9.098   2.914  0.2248  0.0017  0.1667
 2860SOL    HW110031   3.270   9.177   2.863  1.1491 -0.2584 -0.6111
 2860SOL    HW210032   3.249   9.027   2.862 -0.7850 -0.0498  0.9654
 2861SOL     OW10033   7.721   9.242   0.711 -0.3601 -0.3024  0.0730
 2861SOL    HW110034   7.811   9.218   0.731  0.1911  2.0408  0.7134
 2861SOL    HW210035   7.727   9.296   0.632 -1.0598  0.6732  0.6649
 2862SOL     OW10036   0.214   7.329   6.786 -0.3425  0.1727  0.0859
 2862SOL    HW110037   0.132   7.280   6.778 -1.3338  1.4970  1.4524
 2862SOL    HW210038   0.220   7.351   6.879  0.4003  2.0143 -0.3449
 2863SOL     OW10039   3.809   6.625   6.058 -0.1233 -0.0832  0.5422
 2863SOL    HW110040   3.818   6.639   5.964 -0.6055 -0.8431  0.3773
 2863SOL    HW210041   3.808   6.713   6.095  2.5984  0.2114  0.1001
 2864SOL     OW10042   7.409   3.230   4.880 -0.1876  0.0243  0.1951
 2864SOL    HW110043   7.454   3.221   4.796  0.5411  0.0351  0.5720
 2864SOL    HW210044   7.345   3.159   4.880  1.1382 -1.2289  0.4310
 2865SOL     OW10045   1.565   4.383   5.120  1.1621  0.0569 -0.0060
 2865SOL    HW110046   1.522   4.337   5.048  0.7851 -0.6135  0.6377
 2865SOL    HW210047   1.497   4.395   5.186  1.4187  0.9681  0.1120
 2866SOL     OW10048   3.352   5.903   4.828  0.5844 -0.1478 -0.1386
 2866SOL    HW110049   3.360   5.992   4.792 -0.0820 -0.2572 -0.5728
 2866SOL    HW210050   3.318   5.916   4.916  1.8450  0.1010  0.3200
 2867SOL     OW10051   6.182   4.942   1.787 -0.0563 -0.2140 -0.6294
 2867SOL    HW110052   6.190   4.850   1.759 -0.6829 -0.3469 -0.3995
 2867SOL    HW210053   6.188   4.939   1.882  0.9485  0.1096 -0.6784
 2868SOL     OW10054   0.439   5.246   8.465 -0.0594 -0.2384 -0.1047
 2868SOL    HW110055   0.463   5.309   8.533  2.4186  1.1845 -2.1226
 2868SOL    HW210056   0.462   5.161   8.502 -0.0336  0.3638  1.3260
 2869SOL     OW10057   4.396   5.444   4.625  0.2721 -0.0300 -0.0069
 2869SOL    HW110058   4.360   5.439   4.713  1.6655 -0.7861  0.5540
 2869SOL    HW210059   4.455   5.519   4.626 -1.2340  1.2189 -0.9245
 2870SOL     OW10060   2.335   3.948   0.543 -0.0353  0.2078  0.4294
 2870SOL    HW110061   2.406   4.013   0.547  0.7418 -0.4495 -1.3692
 2870SOL    HW210062   2.353   3.899   0.463  0.3119 -3.2598  2.4223
 2871SOL     OW10063   6.134   7.704   8.069  0.4074 -0.3944  0.3315
 2871SOL    HW110064   6.227   7.707   8.090  0.5899 -0.4676 -0.4384
 2871SOL    HW210065   6.127   7.642   7.997 -0.3451 -1.0014  0.9026
 2872SOL     OW10066   6.382   8.300   3.871  0.1965  0.0243  0.3231
 2872SOL    HW110067   6.453   8.237   3.888  0.1439 -0.0267  0.3538
 2872SOL    HW210068   6.426   8.385   3.865  0.1976  0.0662  0.8577
 2873SOL     OW10069   0.583   2.800   3.030  0.3231  0.0671  0.4206
 2873SOL    HW110070   0.595   2.841   3.116  0.5003  0.4074  0.2320
 2873SOL    HW210071   0.601   2.707   3.046  0.5240  0.1534  0.7163
 2874SOL     OW10072   8.309   7.612   5.458  0.1991 -0.6183  0.0613
 2874SOL    HW110073   8.245   7.592   5.526 -0.5511  1.3629  0.0034
 2874SOL    HW210074   8.257   7.630   5.379  1.0395 -2.6727 -1.0556
 2875SOL     OW10075   3.420   0.990   3.670 -0.0843  0.3790 -0.4402
 2875SOL    HW110076   3.486   1.042   3.715  0.4865  0.3104 -1.1666
 2875SOL    HW210077   3.347   1.050   3.655 -0.0208  0.5695 -0.0068
 2876SOL     OW10078   8.192   0.001   1.958  0.1124  0.1444 -0.3534
 2876SOL    HW110079   8.097   0.007   1.950 -0.0802 -3.0600 -1.8555
 2876SOL    HW210080   8.214   0.061   2.029 -2.8616  1.8273 -0.7116
 2877SOL     OW10081   0.697   7.382   3.228 -0.0315  0.3098 -0.0932
 2877SOL    HW110082   0.755   7.338   3.166 -0.9899 -1.5131  0.2130
 2877SOL    HW210083   0.692   7.322   3.303 -0.7543  1.3451  0.7247
 2878SOL     OW10084   7.715   3.859   1.676  0.2149  0.4087  0.1049
 2878SOL    HW110085   7.772   3.935   1.682  0.2425  0.3138  1.1215
 2878SOL    HW210086   7.707   3.843   1.582  0.5693  1.3874 -0.1026
 2879SOL     OW10087   2.004   1.556   1.814  0.3381  0.2212  0.0715
 2879SOL    HW110088   1.932   1.521   1.867 -0.3596  1.1135 -0.2634
 2879SOL    HW210089   2.056   1.609   1.875 -0.0470  0.6492  0.0332
 2880SOL     OW10090   2.080   3.295   5.682 -0.6414  0.0914 -0.2662
 2880SOL    HW110091   2.158   3.254   5.719 -0.1358  0.9461 -0.3471
 2880SOL    HW210092   2.098   3.303   5.589 -0.8825  0.1597 -0.3080
 2881SOL     OW10093   4.494   7.650   2.501  0.0775  0.0413 -0.4909
 2881SOL    HW110094   4.459   7.606   2.424  0.4262  0.1568 -0.7210
 2881SOL    HW210095   4.588   7.629   2.500  0.1192  0.2038 -0.2090
 2882SOL     OW10096   8.390   4.951   6.990 -0.1166 -0.2446  0.3326
 2882SOL    HW110097   8.294   4.954   6.986 -0.1657 -1.8127 -0.8817
 2882SOL    HW210098   8.416   4.922   6.902  1.5110  0.6002  0.5012
 2883SOL     OW10099   1.062   2.290   5.817 -0.4134 -0.4914 -0.4109
 2883SOL    HW110100   0.980   2.246   5.795 -0.1785 -0.5992 -1.0985
 2883SOL    HW210101   1.129   2.222   5.811 -0.2053 -0.2942 -0.3444
 2884SOL     OW10102   2.199   1.913   6.459  0.5949  0.4754  0.2192
 2884SOL    HW110103   2.196   1.963   6.541  0.4456  0.6026  0.1371
 2884SOL    HW210104   2.163   1.973   6.394 -0.9054 -0.2245  0.3672
 2885SOL     OW10105   1.762   2.743   5.287  0.3703 -0.1200 -0.2223
 2885SOL    HW110106   1.800   2.663   5.251 -0.0402 -0.5019  0.1772
 2885SOL    HW210107   1.749   2.724   5.380 -0.3421  0.1671 -0.2523
 2886SOL     OW10108   0.928   7.990   6.520 -0.1581 -0.4306 -0.1426
 2886SOL    HW110109   0.885   8.075   6.519 -0.8643 -0.7446  1.3152
 2886SOL    HW210110   0.977   7.987   6.438 -0.6360  1.1065 -0.5125
 2887SOL     OW10111   6.669   6.122   7.677 -0.2230 -0.6853  0.7894
 2887SOL    HW110112   6.745   6.155   7.724  0.0871 -0.1370 -0.0786
 2887SOL    HW210113   6.610   6.197   7.669  0.4983 -0.2719 -1.2221
 2888SOL     OW10114   7.581   0.615   1.267 -0.1036  0.3843 -0.1044
 2888SOL    HW110115   7.563   0.697   1.221 -0.7784 -0.6102 -1.6944
 2888SOL    HW210116   7.564   0.635   1.359 -1.4237  1.7123 -0.5985
 2889SOL     OW10117   8.595   4.151   4.076  0.1774  0.1045 -0.1686
 2889SOL    HW110118   8.616   4.175   4.166 -1.8096  0.4136  0.2583
 2889SOL    HW210119   8.608   4.056   4.072 -0.3121  0.0049  0.6128
 2890SOL     OW10120   7.396   8.077   5.811 -0.0669  0.3521  0.4788
 2890SOL    HW110121   7.443   8.010   5.762 -0.8164  0.1964 -0.0396
 2890SOL    HW210122   7.396   8.046   5.901 -1.1592 -0.7784  0.1028
 2891SOL     OW10123   9.228   0.735   5.324  0.5413 -0.0506  0.3825
 2891SOL    HW110124   9.158   0.670   5.335  0.1771  0.3884  0.7256
 2891SOL    HW210125   9.290   0.694   5.263 -0.0852 -0.3930 -0.0387
 2892SOL     OW10126   6.892   4.828   7.286  0.4480  0.0971  0.3449
 2892SOL    HW110127   6.920   4.920   7.282 -0.1301  0.2837  0.4481
 2892SOL    HW210128   6.955   4.786   7.345  0.9933  0.3214 -0.0697
 2893SOL     OW10129   8.663   5.085   9.119 -0.4095  0.0183  0.5429
 2893SOL    HW110130   8.607   5.018   9.079 -1.6157  1.5180 -0.3735
 2893SOL    HW210131   8.738   5.036   9.152  0.2029 -1.4800 -2.6750
 2894SOL     OW10132   7.133   3.145   7.248 -0.0223 -0.2734  0.7128
 2894SOL    HW110133   7.063   3.108   7.301 -0.0173 -2.0249 -0.4218
 2894SOL    HW210134   7.136   3.089   7.170  0.6502  1.5630 -0.6608
 2895SOL     OW10135   1.247   5.695   3.992  0.6954  0.0254 -0.6271
 2895SOL    HW110136   1.297   5.679   4.072  0.6575 -0.6369 -0.7277
 2895SOL    HW210137   1.194   5.772   4.011 -0.2835 -0.8946  0.4510
 2896SOL     OW10138   8.416   0.182   3.840  0.3608  0.0068  0.6048
 2896SOL    HW110139   8.440   0.267   3.879  0.4103  0.3218 -0.0978
 2896SOL    HW210140   8.482   0.168   3.772 -2.1482  1.6234 -2.4574
 2897SOL     OW10141   8.824   5.515   8.891 -0.4655 -0.3027 -0.1505
 2897SOL    HW110142   8.846   5.435   8.939 -2.4774 -0.1220  1.1838
 2897SOL    HW210143   8.902   5.533   8.838  0.7223 -2.1422  0.8514
 2898SOL     OW10144   0.951   4.850   7.006 -0.4506 -0.0615 -0.0053
 2898SOL    HW110145   0.934   4.784   7.073  1.0143 -0.3479  0.1061
 2898SOL    HW210146   0.925   4.933   7.047 -4.0319 -0.6172 -0.7525
 2899SOL     OW10147   5.679   2.544   3.272 -0.1743 -0.0155  0.4048
 2899SOL    HW110148   5.735   2.610   3.311  1.0000  0.1175 -1.4270
 2899SOL    HW210149   5.731   2.464   3.274 -0.4586 -0.2151 -0.0547
 2900SOL     OW10150   3.491   9.020   1.920 -0.5703  0.0624 -0.0104
 2900SOL    HW110151   3.456   8.958   1.855  1.8273 -1.1327 -0.2806
 2900SOL    HW210152   3.509   8.966   1.997  3.1228 -0.0720 -0.7978
 2901SOL     OW10153   8.150   0.175   3.734 -0.1249 -0.3765 -0.2731
 2901SOL    HW110154   8.134   0.268   3.718  1.0390  0.3831  2.4395
 2901SOL    HW210155   8.245   0.165   3.724  0.1220 -0.6664  1.8471
 2902SOL     OW10156   7.238   0.124   0.724  0.6641 -0.5101 -0.0125
 2902SOL    HW110157   7.286   0.206   0.735  1.7521 -1.0405 -0.6900
 2902SOL    HW210158   7.205   0.103   0.812  1.1293  0.1939  0.3332
 2903SOL     OW10159   0.396   7.992   6.139 -0.2061 -0.6923  0.0332
 2903SOL    HW110160   0.374   7.940   6.062 -1.6580  0.4228 -0.3557
 2903SOL    HW210161   0.327   7.970   6.202 -0.5681  0.3790  0.0323
 2904SOL     OW10162   1.413   9.180   0.901  0.3917 -0.0923  0.3225
 2904SOL    HW110163   1.415   9.274   0.881 -0.4425 -0.0457  0.4323
 2904SOL    HW210164   1.455   9.173   0.986 -0.5202  0.3230  0.8169
 2905SOL     OW10165   0.450   4.217   6.766  0.0284  0.1994 -0.7637
 2905SOL    HW110166   0.404   4.157   6.708 -1.0725  1.9700 -1.7976
 2905SOL    HW210167   0.384   4.245   6.830  0.6521 -0.0159 -0.0013
 2906SOL     OW10168   1.484   3.045   2.471 -0.4645  0.0921 -0.5867
 2906SOL    HW110169   1.397   3.072   2.500  0.0948  1.4324 -0.0686
 2906SOL    HW210170   1.485   3.061   2.377 -0.1746  1.9095 -0.3073
 2907SOL     OW10171   4.425   3.743   4.095  0.4560  0.5799 -0.0897
 2907SOL    HW110172   4.412   3.652   4.068  0.9983  0.5289 -0.1975
 2907SOL    HW210173   4.342   3.786   4.075 -0.3207 -0.2045  1.3009
 2908SOL     OW10174   1.804   4.610   1.447  0.0169 -0.7291  0.1345
 2908SOL    HW110175   1.770   4.658   1.523 -0.5263  0.0215 -0.5671
 2908SOL    HW210176   1.865   4.546   1.484 -0.3247 -0.4484  1.2101
 2909SOL     OW10177   2.363   6.991   0.629 -0.4786 -0.5016 -0.3782
 2909SOL    HW110178   2.432   6.927   0.645  0.3608  0.3803 -0.3665
 2909SOL    HW210179   2.402   7.053   0.567 -0.7920  0.7353  0.6116
 2910SOL     OW10180   1.848   1.877   2.216 -0.5236  0.1414 -0.4046
 2910SOL    HW110181   1.792   1.953   2.200 -0.1351  0.5758  0.2488
 2910SOL    HW210182   1.917   1.910   2.273 -0.3494 -0.7073 -0.1136
 2911SOL     OW10183   8.489   5.051   2.349 -0.3922 -0.1341 -0.0040
 2911SOL    HW110184   8.570   5.000   2.358 -0.1283  0.2061 -0.4375
 2911SOL    HW210185   8.517   5.136   2.315 -0.9608 -0.1038 -0.4070
 2912SOL     OW10186   9.153   0.992   8.894  0.0334  0.0827  0.1033
 2912SOL    HW110187   9.106   0.992   8.810 -0.0727  2.1265  0.0946
 2912SOL    HW210188   9.126   1.074   8.935  1.1860 -0.2172  1.5205
 2913SOL     OW10189   6.194   1.065   5.179  0.2678 -0.1072 -0.4165
 2913SOL    HW110190   6.227   1.149   5.146  1.6931 -0.1205  0.8492
 2913SOL    HW210191   6.264   1.032   5.235  0.9887 -3.5575 -3.0405
 2914SOL     OW10192   6.131   3.095   6.226  0.2296 -0.0494 -0.3909
 2914SOL    HW110193   6.058   3.053   6.271  0.5079 -0.0478  0.0699
 2914SOL    HW210194   6.178   3.142   6.296  0.2686  0.5178 -0.7958
 2915SOL     OW10195   2.690   6.309   4.516  0.4006  0.6130  0.4688
 2915SOL    HW110196   2.760   6.339   4.575  0.1896  1.3605  0.3549
 2915SOL    HW210197   2.641   6.389   4.495  0.6663  0.4205 -0.9881
 2916SOL     OW10198   4.941   6.108   1.709  0.7002 -0.3035  0.1202
 2916SOL    HW110199   5.017   6.139   1.758 -0.2466  1.0862  0.7458
 2916SOL    HW210200   4.955   6.139   1.620 -0.3191  2.2211  0.7655
 2917SOL     OW10201   8.859   1.614   0.478 -0.3132 -0.7747  0.2428
 2917SOL    HW110202   8.919   1.679   0.443 -0.3938 -0.4757  0.6475
 2917SOL    HW210203   8.881   1.609   0.571 -0.3992 -1.2276  0.2404
 2918SOL     OW10204   1.236   0.900   1.525  0.6901 -0.0671 -0.2891
 2918SOL    HW110205   1.199   0.988   1.514  0.6773  0.0746  0.7220
 2918SOL    HW210206   1.168   0.841   1.491  1.7726  0.3721 -3.4662
 2919SOL     OW10207   5.122   4.619   7.649  0.3590  0.1846 -0.2553
 2919SOL    HW110208   5.156   4.590   7.734  1.2402 -0.9427 -0.9606
 2919SOL    HW210209   5.195   4.606   7.589 -0.3481  0.6931 -1.2393
 2920SOL     OW10210   3.502   1.515   7.227 -0.1206 -0.9832 -0.3993
 2920SOL    HW110211   3.507   1.548   7.138  1.7652 -0.8697 -0.2841
 2920SOL    HW210212   3.580   1.462   7.238 -0.1582 -0.7641  1.2772
 2921SOL     OW10213   2.354   5.612   1.265  0.1786  0.0026 -0.1645
 2921SOL    HW110214   2.398   5.675   1.208  0.0711 -0.4494 -0.7596
 2921SOL    HW210215   2.312   5.550   1.205  0.3571 -0.6853  0.4016
 2922SOL     OW10216   2.745   6.517   1.613 -0.6800  0.1528  0.1305
 2922SOL    HW110217   2.730   6.454   1.684 -1.4800  0.9251  0.6738
 2922SOL    HW210218   2.804   6.582   1.652  0.7968 -0.6543 -0.6775
 2923SOL     OW10219   4.252   1.187   5.536  0.3861  0.2032 -0.1125
 2923SOL    HW110220   4.275   1.129   5.608  0.4542 -0.0008 -0.2978
 2923SOL    HW210221   4.172   1.231   5.565  0.8701  0.7359  0.4324
 2924SOL     OW10222   0.883   1.175   2.334 -0.2600  0.0339  0.4255
 2924SOL    HW110223   0.887   1.264   2.368  2.5171 -0.9205  3.0204
 2924SOL    HW210224   0.945   1.175   2.261 -1.2912  0.4888 -0.4828
 2925SOL     OW10225   5.150   1.028   9.079 -0.6276 -0.6331 -0.0569
 2925SOL    HW110226   5.097   1.107   9.078  0.0539 -0.1359 -1.8179
 2925SOL    HW210227   5.103   0.967   9.022  0.2494 -0.4656 -0.9896
 2926SOL     OW10228   2.658   2.221   6.504  0.2331  0.1866 -0.3584
 2926SOL    HW110229   2.584   2.176   6.464  0.0726  0.9443 -0.9225
 2926SOL    HW210230   2.702   2.264   6.432 -0.6036  2.3495  0.3477
 2927SOL     OW10231   5.278   2.278   2.382  0.9181  0.3130 -0.3338
 2927SOL    HW110232   5.249   2.242   2.298  0.6755 -2.7812  0.9543
 2927SOL    HW210233   5.215   2.347   2.401  0.8976  1.0093 -2.5711
 2928SOL     OW10234   2.075   7.921   0.408  0.6271  0.1598 -0.2975
 2928SOL    HW110235   2.110   7.957   0.489 -0.1184  0.3249 -0.0466
 2928SOL    HW210236   2.144   7.863   0.376  1.4329  1.0243 -0.1852
 2929SOL     OW10237   5.871   2.916   0.811 -0.3437 -0.2071  0.2552
 2929SOL    HW110238   5.894   2.962   0.730 -1.5267  1.2379  0.6891
 2929SOL    HW210239   5.775   2.923   0.816 -0.4401 -1.6155  1.0194
 2930SOL     OW10240   2.979   0.979   8.259 -0.2867  0.4139  0.2448
 2930SOL    HW110241   3.044   0.912   8.237  0.7876  0.8991  1.8115
 2930SOL    HW210242   2.988   1.045   8.190  0.0377 -0.0858 -0.1955
 2931SOL     OW10243   4.305   1.782   7.784  0.2094 -0.6036 -0.7380
 2931SOL    HW110244   4.291   1.871   7.753  0.2716 -0.5224 -0.5344
 2931SOL    HW210245   4.220   1.755   7.820  1.0658  0.7486  2.6980
 2932SOL     OW10246   1.082   3.451   5.786  0.2167  0.3072 -0.0145
 2932SOL    HW110247   1.038   3.445   5.871 -1.3451  0.7363 -0.7525
 2932SOL    HW210248   1.100   3.544   5.775 -0.8108  0.4354 -0.7226
 2933SOL     OW10249   0.993   0.016   2.088 -0.2135  0.2347 -0.2495
 2933SOL    HW110250   1.050  -0.060   2.099 -0.0825  0.4523  0.6663
 2933SOL    HW210251   1.022   0.078   2.156 -0.5496  0.9575 -0.7500
 2934SOL     OW10252   3.866   2.623   1.982 -0.0163 -0.0923 -0.2916
 2934SOL    HW110253   3.845   2.548   1.927  1.5252  0.1598 -1.2919
 2934SOL    HW210254   3.901   2.585   2.063 -0.3716 -0.4521 -0.3058
 2935SOL     OW10255   0.942   4.061   1.642  0.0358 -0.6111 -0.2558
 2935SOL    HW110256   0.885   3.996   1.684 -1.7402  1.9277  1.5112
 2935SOL    HW210257   0.993   4.098   1.714  2.2965 -1.1497 -1.4790
 2936SOL     OW10258   8.594   7.107   0.598 -0.2798  0.4199 -0.2999
 2936SOL    HW110259   8.579   7.032   0.656  0.9012  0.1231 -0.3557
 2936SOL    HW210260   8.556   7.181   0.645 -1.3254 -0.1810 -0.1715
 2937SOL     OW10261   5.466   5.608   6.579  0.1013  0.1930 -0.1461
 2937SOL    HW110262   5.482   5.653   6.496  0.7884  0.1721 -0.0263
 2937SOL    HW210263   5.545   5.622   6.630  0.0665 -0.6071  0.1393
 2938SOL     OW10264   3.438   7.493   4.638 -0.0186  0.2315  0.2804
 2938SOL    HW110265   3.374   7.429   4.607 -0.3657  0.6255  0.1724
 2938SOL    HW210266   3.484   7.449   4.710 -0.9035  0.2115  0.8408
 2939SOL     OW10267   6.259   9.030   2.786 -0.7024  0.1064  0.2694
 2939SOL    HW110268   6.319   8.987   2.726 -0.6441  2.1615 -1.2516
 2939SOL    HW210269   6.172   9.007   2.753 -0.6963  2.4650 -1.7342
 2940SOL     OW10270   3.077   3.374   3.472  0.2404  0.6772  0.0118
 2940SOL    HW110271   3.113   3.360   3.560  0.6943  0.5048 -0.1952
 2940SOL    HW210272   2.993   3.329   3.472 -0.3653  1.7592  0.7644
 2941SOL     OW10273   2.399   6.147   2.606 -0.8117  0.5102  0.1586
 2941SOL    HW110274   2.439   6.074   2.559 -1.2805 -0.0579  0.6323
 2941SOL    HW210275   2.473   6.202   2.633 -0.2342 -0.9878  1.8052
 2942SOL     OW10276   4.343   6.517   3.105 -0.0662  0.4157  0.3425
 2942SOL    HW110277   4.249   6.521   3.084  0.2387 -0.6591 -1.4629
 2942SOL    HW210278   4.352   6.439   3.159  0.2801 -2.2306 -3.1709
 2943SOL     OW10279   8.256   8.162   3.626  0.0402 -0.1517  0.0962
 2943SOL    HW110280   8.224   8.179   3.715 -0.5896 -0.2064 -0.1176
 2943SOL    HW210281   8.266   8.067   3.622  1.2176 -0.0673  0.4891
 2944SOL     OW10282   8.313   7.677   6.567 -0.0627 -0.1199  0.2311
 2944SOL    HW110283   8.268   7.753   6.532  1.2005  1.0612  1.0893
 2944SOL    HW210284   8.366   7.711   6.640  2.0749 -1.4411 -0.6084
 2945SOL     OW10285   2.029   4.126   7.130  0.0317  0.4144  0.6022
 2945SOL    HW110286   1.974   4.171   7.193  0.1434  0.9597  0.3218
 2945SOL    HW210287   2.004   4.163   7.045 -1.7499 -1.9234  0.0083
 2946SOL     OW10288   0.965   1.890   7.306  0.1442 -0.5534  0.5494
 2946SOL    HW110289   0.924   1.824   7.250  2.7992 -2.5692  0.7828
 2946SOL    HW210290   1.016   1.944   7.246  0.8776 -1.0444  0.7197
 2947SOL     OW10291   8.460   6.105   7.958  0.0244 -0.0873  0.2105
 2947SOL    HW110292   8.494   6.089   7.870 -0.0735 -1.3233  0.3891
 2947SOL    HW210293   8.464   6.020   8.001 -2.4014 -0.0903  0.5623
 2948SOL     OW10294   9.049   8.494   5.605 -0.0400  0.2362  0.0221
 2948SOL    HW110295   9.095   8.433   5.548  1.7332  0.5858  0.9903
 2948SOL    HW210296   9.118   8.532   5.659 -1.5626  0.4035  1.9492
 2949SOL     OW10297   8.603   4.270   3.818 -0.5971 -0.3228 -0.4729
 2949SOL    HW110298   8.613   4.247   3.910 -0.8578 -3.1781 -1.0549
 2949SOL    HW210299   8.516   4.310   3.812  0.0448  1.3772  0.6886
 2950SOL     OW10300   4.957   9.021   1.276  0.2977  0.2033  0.2408
 2950SOL    HW110301   5.012   8.964   1.222 -1.1555 -0.0927 -1.0030
 2950SOL    HW210302   4.939   8.969   1.355  0.1978 -0.4642 -0.2140
 2951SOL     OW10303   4.482   5.439   3.250 -0.4910 -0.4048 -0.8099
 2951SOL    HW110304   4.561   5.427   3.303 -0.6382 -0.1279 -0.5224
 2951SOL    HW210305   4.422   5.371   3.282 -1.3197  1.0054  0.8091
 2952SOL     OW10306   8.617   7.229   3.890  0.3890  0.7012  0.1014
 2952SOL    HW110307   8.525   7.206   3.899  0.6783 -0.3035  0.6492
 2952SOL    HW210308   8.654   7.220   3.978  1.0280  1.0096 -0.1250
 2953SOL     OW10309   7.966   3.155   4.635 -0.0677  0.1611  0.3623
 2953SOL    HW110310   8.001   3.194   4.555  0.9388  2.0841  1.6613
 2953SOL    HW210311   8.038   3.102   4.670  0.1308  0.7512  0.8760
 2954SOL     OW10312   8.198   0.635   6.545  0.2611  0.2704 -0.2668
 2954SOL    HW110313   8.154   0.637   6.629 -2.1343 -3.3330 -1.2337
 2954SOL    HW210314   8.291   0.627   6.567 -0.2021  0.5130  1.9847
 2955SOL     OW10315   7.178   5.341   6.316 -0.1497 -0.2974 -0.2156
 2955SOL    HW110316   7.157   5.399   6.244  1.4856 -0.4320 -0.8474
 2955SOL    HW210317   7.097   5.295   6.336 -1.7000  2.6282  0.7495
 2956SOL     OW10318   0.397   0.198   4.552  0.5298  0.3531  0.0366
 2956SOL    HW110319   0.315   0.225   4.593  0.6446 -1.0904  1.2856
 2956SOL    HW210320   0.372   0.126   4.494  0.7365  0.7627 -0.5681
 2957SOL     OW10321   6.357   3.075   4.791 -0.2699  0.0851  0.1243
 2957SOL    HW110322   6.400   3.090   4.876  0.9132  2.2659 -0.7839
 2957SOL    HW210323   6.332   3.162   4.761 -0.7979 -0.6532 -1.7237
 2958SOL     OW10324   3.300   4.085   4.001 -0.3598  0.6924 -0.1534
 2958SOL    HW110325   3.267   4.015   4.057  1.2707 -1.1815 -1.3755
 2958SOL    HW210326   3.382   4.113   4.043  0.6101 -0.3739 -1.2545
 2959SOL     OW10327   4.952   1.320   3.826 -0.6512 -0.0342  0.1636
 2959SOL    HW110328   4.908   1.282   3.750 -0.8443 -0.7151  0.6050
 2959SOL    HW210329   4.904   1.400   3.845 -0.5095  0.2144 -0.5221
 2960SOL     OW10330   1.258   0.923   2.892  0.1988  0.2231 -0.4433
 2960SOL    HW110331   1.353   0.930   2.902  0.3172 -0.9392 -0.5844
 2960SOL    HW210332   1.244   0.919   2.798  0.2067 -1.5556 -0.4075
 2961SOL     OW10333   8.170   6.663   7.361  0.6089 -0.6240  0.2490
 2961SOL    HW110334   8.076   6.668   7.342  0.7057  0.6106  0.0599
 2961SOL    HW210335   8.195   6.575   7.333 -0.8283 -1.6302  1.9070
 2962SOL     OW10336   4.842   0.490   2.187  0.1086  0.3446  0.2735
 2962SOL    HW110337   4.804   0.511   2.273 -0.6717  1.5881 -0.3503
 2962SOL    HW210338   4.891   0.409   2.202  1.2161  1.2895  2.2545
 2963SOL     OW10339   8.184   0.423   6.824 -0.0170  0.4117  0.1867
 2963SOL    HW110340   8.148   0.500   6.781 -0.1521  0.2459  0.0017
 2963SOL    HW210341   8.138   0.419   6.908  0.3551  0.8202  0.4140
 2964SOL     OW10342   6.250   1.334   8.012  0.1031  0.1792  0.1297
 2964SOL    HW110343   6.251   1.247   7.974  0.0444 -0.3515  1.3037
 2964SOL    HW210344   6.165   1.370   7.989  0.0669 -0.1288 -0.2216
 2965SOL     OW10345   2.077   0.237   7.379 -0.3797  0.6064  0.4874
 2965SOL    HW110346   2.027   0.303   7.426 -1.4301  0.1107  0.1034
 2965SOL    HW210347   2.013   0.168   7.359  0.6518 -0.4853  0.7922
 2966SOL     OW10348   2.024   0.118   1.715  0.2629 -0.1042 -0.0518
 2966SOL    HW110349   1.947   0.063   1.732  0.4424 -0.0345  1.0539
 2966SOL    HW210350   2.031   0.174   1.792  1.1132  0.2585 -0.3807
 2967SOL     OW10351   3.819   0.674   5.744 -0.4614 -0.2680 -0.0032
 2967SOL    HW110352   3.790   0.623   5.819 -0.4903 -1.0052 -0.5065
 2967SOL    HW210353   3.887   0.732   5.779 -1.7729  0.7313  0.9702
 2968SOL     OW10354   1.920   6.686   4.238 -0.1412 -0.3045 -0.1319
 2968SOL    HW110355   1.975   6.762   4.261 -1.3978  1.1781 -1.7520
 2968SOL    HW210356   1.870   6.668   4.317  0.5048  0.2631  0.4196
 2969SOL     OW10357   4.580   4.843   2.387 -0.5331 -0.2792  0.2890
 2969SOL    HW110358   4.661   4.809   2.350 -0.7172 -0.6993  0.2669
 2969SOL    HW210359   4.513   4.780   2.360 -0.5019 -1.2398  2.2807
 2970SOL     OW10360   1.545   1.207   1.536 -0.6679  0.4015 -0.0363
 2970SOL    HW110361   1.518   1.207   1.627  0.5212 -0.0203  0.3250
 2970SOL    HW210362   1.635   1.175   1.536 -0.2213  1.5262 -1.2303
 2971SOL     OW10363   7.337   6.547   3.726 -0.2802 -0.4912  0.4179
 2971SOL    HW110364   7.323   6.573   3.817  0.2532  1.6662 -0.0445
 2971SOL    HW210365   7.423   6.506   3.725 -0.3934 -0.7392  0.9289
 2972SOL     OW10366   4.590   4.033   4.656 -0.0496  0.1613 -0.2159
 2972SOL    HW110367   4.513   3.980   4.672  0.8792 -0.9648  0.6862
 2972SOL    HW210368   4.615   4.013   4.566 -0.3212 -0.0970 -0.2339
 2973SOL     OW10369   4.937   1.331   0.413  0.3905 -0.5419 -0.2282
 2973SOL    HW110370   4.920   1.348   0.320  0.2957 -4.2800 -1.0229
 2973SOL    HW210371   4.851   1.317   0.451  0.5830 -2.2920 -0.3731
 2974SOL     OW10372   4.447   7.586   6.889 -0.1306 -0.6773  0.2857
 2974SOL    HW110373   4.455   7.554   6.979  0.7264 -0.0608  0.4483
 2974SOL    HW210374   4.462   7.508   6.835  0.9160 -0.7628  0.6757
 2975SOL     OW10375   8.179   1.565   1.267 -0.7070 -0.2276  0.5840
 2975SOL    HW110376   8.197   1.613   1.348  0.6489  0.2674  0.0313
 2975SOL    HW210377   8.175   1.633   1.200 -1.0761 -0.6937  0.1295
 2976SOL     OW10378   6.685   1.878   1.811 -0.5964  0.9882  0.5901
 2976SOL    HW110379   6.673   1.943   1.880 -0.5914  1.7984 -0.1588
 2976SOL    HW210380   6.645   1.917   1.733 -0.7790  0.0040  0.1731
 2977SOL     OW10381   3.388   2.074   5.452 -0.1145 -0.4743 -0.6140
 2977SOL    HW110382   3.361   2.152   5.403  2.0908  0.7258 -0.0443
 2977SOL    HW210383   3.468   2.045   5.410 -0.7946 -2.3937 -0.6958
 2978SOL     OW10384   2.219   5.305   2.054  0.5123 -0.2831  0.2781
 2978SOL    HW110385   2.265   5.255   1.987 -2.9669  0.2269 -2.8387
 2978SOL    HW210386   2.143   5.251   2.077 -0.5986  1.3217  0.5884
 2979SOL     OW10387   3.454   6.888   8.043 -0.2339 -0.3070  0.8020
 2979SOL    HW110388   3.493   6.861   7.959 -1.0263  1.6827 -0.2636
 2979SOL    HW210389   3.374   6.835   8.051  0.1771 -0.9676  0.6507
 2980SOL     OW10390   8.744   5.386   6.039  0.4973  0.0742  0.3160
 2980SOL    HW110391   8.665   5.418   5.997  1.0158 -0.0669 -0.7850
 2980SOL    HW210392   8.729   5.402   6.133 -1.1257 -0.6241  0.2036
 2981SOL     OW10393   0.076   7.817   8.559 -0.3724 -0.3234  0.0662
 2981SOL    HW110394   0.105   7.897   8.514 -0.5614 -0.0399  0.4465
 2981SOL    HW210395  -0.015   7.806   8.531 -0.6399  0.1179  0.7444
 2982SOL     OW10396   8.061   0.453   7.072  0.2228  0.1502 -0.3391
 2982SOL    HW110397   7.987   0.490   7.121 -1.3551 -1.9911 -0.9345
 2982SOL    HW210398   8.130   0.519   7.079 -0.0167  0.2421  4.3237
 2983SOL     OW10399   0.105   0.771   5.973  0.1256 -0.1691 -1.0840
 2983SOL    HW110400   0.073   0.799   6.059  0.6581 -0.8218 -0.6620
 2983SOL    HW210401   0.101   0.850   5.919 -0.0960  0.2757 -0.4284
 2984SOL     OW10402   1.690   1.691   1.953  0.2699 -0.0700  0.3783
 2984SOL    HW110403   1.616   1.704   1.894  2.4676  0.3846 -2.5214
 2984SOL    HW210404   1.689   1.597   1.973 -0.9307 -0.0997  0.2495
 2985SOL     OW10405   2.927   6.765   6.198 -0.5336  0.2242 -0.0233
 2985SOL    HW110406   2.847   6.745   6.247 -0.2590 -0.8962 -0.0215
 2985SOL    HW210407   2.940   6.690   6.140  0.9717 -0.0237  0.5750
 2986SOL     OW10408   3.113   5.843   3.022  0.4691  0.1426 -0.2396
 2986SOL    HW110409   3.080   5.775   2.962 -0.3880 -0.4571  0.8643
 2986SOL    HW210410   3.183   5.886   2.973 -0.5220  0.0167 -1.8613
 2987SOL     OW10411   6.111   3.719   7.246  0.0648  0.3361  0.5148
 2987SOL    HW110412   6.181   3.765   7.200 -0.2041  0.5073  0.2809
 2987SOL    HW210413   6.083   3.779   7.315 -0.3419  0.5591  0.1591
 2988SOL     OW10414   0.114   4.749   4.902 -0.1504 -0.7015  0.0173
 2988SOL    HW110415   0.187   4.691   4.924 -0.0743 -0.8265 -0.5447
 2988SOL    HW210416   0.150   4.837   4.909 -0.1174 -0.7404  0.3449
 2989SOL     OW10417   1.181   2.716   1.089  0.3538 -0.0595 -0.4973
 2989SOL    HW110418   1.212   2.788   1.033  2.5365  0.9300  1.8124
 2989SOL    HW210419   1.117   2.757   1.147  0.7391 -0.2589  0.0673
 2990SOL     OW10420   6.643   1.988   8.721 -0.1194 -0.2162 -0.0827
 2990SOL    HW110421   6.646   2.084   8.728  1.2863 -0.3147  1.1681
 2990SOL    HW210422   6.596   1.960   8.799  0.0973 -0.5898 -0.0874
 2991SOL     OW10423   6.267   8.227   3.352 -0.7999  0.3923 -0.5818
 2991SOL    HW110424   6.282   8.144   3.307 -1.1266  0.4068 -0.7211
 2991SOL    HW210425   6.342   8.236   3.411  0.2954  0.9596 -1.9731
 2992SOL     OW10426   7.578   7.852   3.347 -0.1618 -0.2611 -0.9566
 2992SOL    HW110427   7.608   7.914   3.281  4.3312 -1.0391  0.0638
 2992SOL    HW210428   7.553   7.774   3.297 -0.8657  0.5551 -1.9192
 2993SOL     OW10429   4.873   6.019   0.460  0.1705 -0.3315 -0.2061
 2993SOL    HW110430   4.843   5.930   0.443  1.6701 -0.8298 -0.3256
 2993SOL    HW210431   4.923   6.013   0.541 -0.8142  0.6718  0.5135
 2994SOL     OW10432   4.199   7.857   0.045 -0.4281  0.1930 -0.1981
 2994SOL    HW110433   4.247   7.867   0.127 -1.9964  1.7107  0.6161
 2994SOL    HW210434   4.235   7.925  -0.012  0.3554 -0.5727 -0.6396
 2995SOL     OW10435   1.974   5.570   7.409 -0.0988 -0.1465 -0.8646
 2995SOL    HW110436   1.901   5.513   7.433  0.6767 -1.1611 -0.8758
 2995SOL    HW210437   1.941   5.621   7.335 -1.6854  1.3027  0.7463
 2996SOL     OW10438   3.802   3.099   7.656  0.3908  0.0352  0.1231
 2996SOL    HW110439   3.828   3.178   7.609  1.6767 -0.9282 -0.8694
 2996SOL    HW210440   3.882   3.047   7.660 -0.1130 -0.6613  1.9211
 2997SOL     OW10441   4.061   3.874   3.806 -0.3427 -0.2247 -0.1712
 2997SOL    HW110442   4.128   3.896   3.871  0.0973  0.8047 -0.9439
 2997SOL    HW210443   4.061   3.778   3.803  1.7650 -0.2441 -0.8182
 2998SOL     OW10444   5.070   1.757   7.543  0.0787  0.1106  0.3809
 2998SOL    HW110445   5.130   1.688   7.518 -1.0480  0.0305 -2.5137
 2998SOL    HW210446   4.985   1.713   7.550 -0.1486  0.7011  1.6006
 2999SOL     OW10447   7.774   0.275   3.688  0.5559  0.0443 -0.2526
 2999SOL    HW110448   7.863   0.306   3.700  0.6199 -0.1817 -0.1478
 2999SOL    HW210449   7.723   0.355   3.675  0.7857  0.1675 -0.4002
 3000SOL     OW10450   4.891   1.456   1.358  0.0679  0.4390  0.1944
 3000SOL    HW110451   4.917   1.392   1.292  0.9740  0.4595  0.5107
 3000SOL    HW210452   4.842   1.406   1.423  1.0257 -0.0152  0.5929
 3001SOL     OW10453   3.932   6.393   7.141 -0.1311 -0.2592  0.5965
 3001SOL    HW110454   3.920   6.482   7.109  2.0178 -0.1243  0.0098
 3001SOL    HW210455   3.898   6.395   7.231  0.3389  1.3021  0.7661
 3002SOL     OW10456   1.495   9.200   8.196  0.1232  0.3874  0.2908
 3002SOL    HW110457   1.451   9.115   8.196  0.4493  0.2105 -0.4565
 3002SOL    HW210458   1.437   9.257   8.146 -0.3063  0.7347  1.1534
 3003SOL     OW10459   5.053   4.651   6.634  0.1271  0.2414 -0.4356
 3003SOL    HW110460   5.105   4.731   6.644  2.3128 -1.0467 -0.8138
 3003SOL    HW210461   5.096   4.603   6.563 -0.2552 -1.8879  0.6748
 3004SOL     OW10462   0.125   8.337   8.782  0.0575  0.2268  0.2035
 3004SOL    HW110463   0.045   8.287   8.766  1.0043 -1.2947  0.0862
 3004SOL    HW210464   0.094   8.422   8.816 -1.6028 -0.1587 -0.2787
 3005SOL     OW10465   4.594   9.281   1.685  0.7168 -0.1585  0.0089
 3005SOL    HW110466   4.566   9.192   1.703  0.2465  0.2698  1.5122
 3005SOL    HW210467   4.526   9.317   1.628 -1.5714  0.6191  2.9772
 3006SOL     OW10468   3.052   3.142   5.197 -0.2522  0.4741 -0.2187
 3006SOL    HW110469   2.965   3.103   5.209 -0.6834  1.6580  0.7575
 3006SOL    HW210470   3.093   3.090   5.128 -2.1115  0.4620 -1.3896
 3007SOL     OW10471   2.847   4.162   0.863 -0.2924 -0.7280  0.4022
 3007SOL    HW110472   2.776   4.162   0.926  0.9259 -0.9333  1.8389
 3007SOL    HW210473   2.894   4.080   0.879  0.3954 -0.4917 -0.3353
 3008SOL     OW10474   1.739   3.290   8.417 -0.5735  0.3218  0.0740
 3008SOL    HW110475   1.770   3.361   8.360  0.2090  0.0508  0.1457
 3008SOL    HW210476   1.675   3.243   8.364  0.4189 -0.1492 -0.7285
 3009SOL     OW10477   5.253   0.029   3.634  0.4535  0.2465  0.5124
 3009SOL    HW110478   5.265  -0.005   3.723 -0.1619 -2.1244 -0.2142
 3009SOL    HW210479   5.339   0.019   3.593  0.1272 -1.2071  0.1091
 3010SOL     OW10480   8.886   0.262   4.365  0.1554  0.1488 -0.1912
 3010SOL    HW110481   8.933   0.181   4.346 -0.9646 -0.8723  1.1899
 3010SOL    HW210482   8.869   0.300   4.279 -0.7073 -1.9115 -1.0054
 3011SOL     OW10483   0.365   7.035   1.803  0.2203  0.3046  0.4663
 3011SOL    HW110484   0.371   7.126   1.774  1.7988  0.2409  0.4746
 3011SOL    HW210485   0.445   7.021   1.854  0.4686 -1.3183 -0.2908
 3012SOL     OW10486   2.142   8.814   0.674 -0.1197 -0.2738  0.1294
 3012SOL    HW110487   2.065   8.836   0.726  0.0006 -1.4545  0.8475
 3012SOL    HW210488   2.200   8.769   0.735  1.3743  1.0223 -0.2646
 3013SOL     OW10489   4.572   1.358   3.454  0.0096 -0.1069  0.0264
 3013SOL    HW110490   4.504   1.415   3.491  1.1937  2.0307 -0.9000
 3013SOL    HW210491   4.530   1.316   3.379 -0.5088  0.6677 -0.1310
 3014SOL     OW10492   5.959   6.714   0.479  0.3376 -0.2959  0.4054
 3014SOL    HW110493   5.971   6.718   0.574  1.7791 -0.4572  0.2506
 3014SOL    HW210494   6.041   6.678   0.446 -0.0515 -0.0113 -0.9310
 3015SOL     OW10495   7.178   8.702   5.247 -0.2488 -0.4264 -0.5159
 3015SOL    HW110496   7.249   8.639   5.236 -2.4596 -2.9905 -1.0995
 3015SOL    HW210497   7.110   8.654   5.293 -1.6317  1.9353  0.0786
 3016SOL     OW10498   7.374   4.450   9.179 -0.1367 -0.1763  0.3663
 3016SOL    HW110499   7.283   4.423   9.197 -0.0683 -0.9585 -0.4470
 3016SOL    HW210500   7.400   4.496   9.259 -0.6873 -1.4073  1.2982
 3017SOL     OW10501   6.358   2.128   3.233 -0.1476 -0.0580 -0.0928
 3017SOL    HW110502   6.400   2.060   3.286 -1.1642 -1.2176 -0.7315
 3017SOL    HW210503   6.278   2.088   3.201 -0.3809  1.1788 -1.1542
 3018SOL     OW10504   2.918   2.249   8.958 -0.4971  0.6494 -0.1065
 3018SOL    HW110505   2.822   2.253   8.968 -0.4972  1.4643 -0.3564
 3018SOL    HW210506   2.931   2.208   8.873 -0.6285  0.9652 -0.2786
 3019SOL     OW10507   2.742   1.082   0.038 -0.2055 -0.3457  0.5133
 3019SOL    HW110508   2.801   1.011   0.015  1.5935  1.7431 -1.8293
 3019SOL    HW210509   2.758   1.097   0.132 -0.0107 -2.3761  0.8520
 3020SOL     OW10510   4.629   5.215   7.387  0.2465  0.3815  0.2875
 3020SOL    HW110511   4.551   5.163   7.404  0.2329 -0.5113 -2.1188
 3020SOL    HW210512   4.595   5.300   7.358  0.0606 -0.2636 -1.5470
 3021SOL     OW10513   2.741   4.254   7.764  0.3678  0.3640  0.1401
 3021SOL    HW110514   2.675   4.250   7.833 -0.0854  1.3181 -0.2197
 3021SOL    HW210515   2.703   4.205   7.691 -0.2139  1.3664 -0.2611
 3022SOL     OW10516   1.008   2.483   2.277  0.2565  0.2493  0.1011
 3022SOL    HW110517   0.941   2.421   2.305  0.3837 -0.1225 -0.3963
 3022SOL    HW210518   1.000   2.556   2.338 -0.0353 -0.1630  0.5686
 3023SOL     OW10519   2.742   2.645   5.886 -0.6749  0.2611  0.4810
 3023SOL    HW110520   2.817   2.649   5.945 -0.8135 -0.0520  0.6838
 3023SOL    HW210521   2.767   2.697   5.811 -0.3077  0.2691  0.6080
 3024SOL     OW10522   4.092   6.540   3.978 -0.3363 -0.2432 -0.0349
 3024SOL    HW110523   4.033   6.517   4.050 -0.2796 -1.5964 -0.3956
 3024SOL    HW210524   4.055   6.496   3.902 -0.2003  0.8892 -0.7858
 3025SOL     OW10525   3.153   6.380   3.631  0.1279  0.7164  0.1730
 3025SOL    HW110526   3.085   6.442   3.655 -1.0169 -1.0629  1.8316
 3025SOL    HW210527   3.235   6.424   3.655 -0.4695  2.4804 -0.8888
 3026SOL     OW10528   7.225   1.811   9.020 -0.6075  0.5697  0.1559
 3026SOL    HW110529   7.218   1.852   9.106 -0.9017  2.1567 -0.5946
 3026SOL    HW210530   7.143   1.831   8.976 -0.8079 -0.9449 -0.2192
 3027SOL     OW10531   8.178   2.073   3.094 -0.2655 -0.2701  0.3789
 3027SOL    HW110532   8.179   1.998   3.035  1.8985 -0.1637  0.1746
 3027SOL    HW210533   8.119   2.136   3.053  0.5992 -0.5023 -1.3106
 3028SOL     OW10534   2.947   2.523   2.861  0.6599  0.0709 -0.1626
 3028SOL    HW110535   2.858   2.553   2.842  0.2620 -0.8813  0.1362
 3028SOL    HW210536   2.995   2.537   2.780  0.8290  2.5850  0.2789
 3029SOL     OW10537   3.298   7.698   2.361  0.3448  0.5006  0.3809
 3029SOL    HW110538   3.234   7.627   2.369  2.2585 -1.3741 -0.0380
 3029SOL    HW210539   3.376   7.665   2.407  1.5876  1.9479 -0.5974
 3030SOL     OW10540   5.772   8.008   7.552 -0.2768 -0.1243 -0.4614
 3030SOL    HW110541   5.736   7.920   7.539 -0.2028 -0.1245 -0.6745
 3030SOL    HW210542   5.705   8.055   7.601 -0.2829 -0.3256 -0.2786
 3031SOL     OW10543   4.969   2.050   5.459  0.2102 -0.0614 -0.4591
 3031SOL    HW110544   4.928   2.118   5.513 -0.4274 -1.2933  0.6648
 3031SOL    HW210545   4.997   2.096   5.380  1.3073  1.8456  0.9524
 3032SOL     OW10546   0.609   8.373   6.877 -0.6304  0.1524 -0.4251
 3032SOL    HW110547   0.518   8.372   6.906 -0.4259  0.1805  0.2377
 3032SOL    HW210548   0.618   8.454   6.827 -0.6068  0.8713  0.7225
 3033SOL     OW10549   4.826   7.208   4.952  0.1549 -0.5665  0.4284
 3033SOL    HW110550   4.777   7.151   4.894 -1.9557 -0.4518  1.9873
 3033SOL    HW210551   4.853   7.152   5.025 -0.3565  0.0252  1.0844
 3034SOL     OW10552   6.107   1.423   7.196  0.1362  0.3444 -0.2610
 3034SOL    HW110553   6.049   1.359   7.237 -0.6644  0.7310 -0.7671
 3034SOL    HW210554   6.195   1.396   7.223 -0.0852 -1.5675 -1.2871
 3035SOL     OW10555   9.050   7.365   4.847  0.2902  0.0655 -0.1385
 3035SOL    HW110556   9.000   7.435   4.889 -0.4926 -0.8682  0.5388
 3035SOL    HW210557   9.141   7.387   4.863  0.0327 -0.0571  1.7979
 3036SOL     OW10558   8.880   3.120   2.142  0.0107 -0.2566  0.1555
 3036SOL    HW110559   8.810   3.055   2.152 -0.8501  0.5272 -0.5537
 3036SOL    HW210560   8.947   3.076   2.090 -0.0890 -0.9264  0.5931
 3037SOL     OW10561   8.054   4.234   8.405  0.1399  0.3985  0.3482
 3037SOL    HW110562   8.013   4.224   8.319 -0.1161 -0.6702  0.5831
 3037SOL    HW210563   8.060   4.145   8.439  1.7198  0.6388  0.7657
 3038SOL     OW10564   4.176   3.290   3.105  0.0269 -0.5632 -0.5343
 3038SOL    HW110565   4.245   3.333   3.054 -0.3064  0.8064  0.1009
 3038SOL    HW210566   4.122   3.245   3.040 -1.3382  2.4389 -1.7066
 3039SOL     OW10567   4.695   7.524   3.547  0.6674 -0.7632 -0.3916
 3039SOL    HW110568   4.651   7.555   3.626  0.8248 -1.8417  0.1250
 3039SOL    HW210569   4.766   7.587   3.533  1.0598 -0.9566  0.7052
 3040SOL     OW10570   6.958   2.005   8.746  0.5028 -0.6067 -0.0507
 3040SOL    HW110571   6.970   1.937   8.812  1.0767 -0.7837 -0.3263
 3040SOL    HW210572   6.864   2.019   8.742  0.5578  2.3542  3.8020
 3041SOL     OW10573   0.437   2.271   1.506 -0.2004  0.3523 -0.2452
 3041SOL    HW110574   0.484   2.319   1.438  0.7705  1.7832  1.3531
 3041SOL    HW210575   0.409   2.338   1.568 -0.8138 -0.9213  0.9111
 3042SOL     OW10576   4.077   1.889   4.348 -0.3049 -0.2576  0.0786
 3042SOL    HW110577   4.051   1.808   4.303 -0.4155 -0.1147 -0.1176
 3042SOL    HW210578   4.018   1.956   4.312 -1.0389 -0.3092  1.1251
 3043SOL     OW10579   6.341   7.986   0.805 -0.7072  0.3315  0.2811
 3043SOL    HW110580   6.399   8.062   0.801 -1.8968  1.4505  2.4310
 3043SOL    HW210581   6.399   7.912   0.821  0.2805  1.1123  0.3574
 3044SOL     OW10582   0.195   4.762   0.033  0.4482 -0.3983 -0.2761
 3044SOL    HW110583   0.255   4.834   0.016  0.4235 -0.6391 -1.5165
 3044SOL    HW210584   0.173   4.770   0.126  0.7651  0.9353 -0.2930
 3045SOL     OW10585   0.929   5.130   5.560  0.2419  0.6077 -0.0075
 3045SOL    HW110586   1.008   5.181   5.579  0.2242  0.2150  1.1483
 3045SOL    HW210587   0.961   5.041   5.548 -0.0559  0.3797  0.8341
 3046SOL     OW10588   7.301   1.289   8.198 -0.0676  0.4134  0.1063
 3046SOL    HW110589   7.244   1.344   8.251 -1.6435 -0.2862 -0.7963
 3046SOL    HW210590   7.348   1.350   8.141  0.1175  1.0036  0.8781
 3047SOL     OW10591   6.052   4.806   0.188  0.1548  0.0702 -0.1076
 3047SOL    HW110592   6.050   4.795   0.283 -0.0078  0.7980 -0.0174
 3047SOL    HW210593   6.000   4.734   0.154  1.0541 -0.7872  0.2962
 3048SOL     OW10594   7.815   6.033   0.083  0.2685 -0.2188  0.5052
 3048SOL    HW110595   7.908   6.055   0.078 -0.0832  1.5245  1.0580
 3048SOL    HW210596   7.783   6.046  -0.007 -0.3355  3.8301  1.1158
 3049SOL     OW10597   2.503   8.237   0.238  0.2751  0.0697 -0.4678
 3049SOL    HW110598   2.492   8.220   0.331  0.4187 -0.5695 -0.5594
 3049SOL    HW210599   2.429   8.193   0.196  0.8492 -0.6484 -0.7427
 3050SOL     OW10600   6.795   8.244   5.409 -0.0700 -0.1433  0.1029
 3050SOL    HW110601   6.707   8.207   5.414 -0.2652  0.4992  2.0886
 3050SOL    HW210602   6.812   8.251   5.315 -1.3846 -1.9885 -0.3340
 3051SOL     OW10603   8.696   2.309   3.075  0.0498  0.1465  0.3745
 3051SOL    HW110604   8.600   2.307   3.076  0.0456 -0.7585  2.0299
 3051SOL    HW210605   8.721   2.299   3.167  1.7376  3.3033  0.3862
 3052SOL     OW10606   3.846   4.552   6.525 -0.1697 -0.5813  0.0459
 3052SOL    HW110607   3.865   4.472   6.573 -0.0127 -0.0932  0.8271
 3052SOL    HW210608   3.921   4.609   6.542 -0.1544 -0.3605 -0.7112
 3053SOL     OW10609   8.414   6.339   7.837  0.4813  0.0071  0.8010
 3053SOL    HW110610   8.405   6.256   7.882  1.8080  0.1535  1.3797
 3053SOL    HW210611   8.507   6.362   7.845  0.0929  1.7061  0.9662
 3054SOL     OW10612   7.681   4.946   3.982  0.1831 -0.3130 -0.1056
 3054SOL    HW110613   7.668   5.024   4.035 -0.0014 -1.3202  1.3718
 3054SOL    HW210614   7.759   4.905   4.019  0.3373 -0.7938 -0.9354
 3055SOL     OW10615   1.491   2.161   6.054  0.1522 -0.3013 -0.1899
 3055SOL    HW110616   1.585   2.150   6.061 -0.1093 -1.6269  2.1555
 3055SOL    HW210617   1.460   2.084   6.007  0.0063 -1.3333  1.5218
 3056SOL     OW10618   2.173   6.851   5.930 -0.4806  0.0066 -0.4803
 3056SOL    HW110619   2.079   6.853   5.912 -0.6388  0.2297  0.3632
 3056SOL    HW210620   2.206   6.781   5.873 -1.0199  0.4580 -1.3861
 3057SOL     OW10621   1.971   0.203   8.343  0.0991 -0.0330 -0.2484
 3057SOL    HW110622   2.025   0.260   8.398  1.3599 -2.0629  0.7243
 3057SOL    HW210623   1.894   0.183   8.396  0.4363 -0.5150  0.0682
 3058SOL     OW10624   5.494   4.707   7.039 -0.0540  0.4297  0.0893
 3058SOL    HW110625   5.471   4.619   7.010 -1.8727  1.3658 -1.6111
 3058SOL    HW210626   5.441   4.765   6.983  2.2532  2.6587  0.0129
 3059SOL     OW10627   5.105   5.261   5.243 -0.0363 -0.0074 -0.1508
 3059SOL    HW110628   5.180   5.210   5.275 -0.6566 -1.4372 -0.8486
 3059SOL    HW210629   5.128   5.352   5.261  2.2571 -0.3247 -1.1301
 3060SOL     OW10630   7.324   3.648   2.054  0.0733  0.5847  0.0793
 3060SOL    HW110631   7.246   3.703   2.050  0.3455  1.2921  2.6502
 3060SOL    HW210632   7.383   3.694   2.114  2.1044 -0.4126 -1.0212
 3061SOL     OW10633   6.387   3.519   7.475  0.8165 -0.0922  0.3688
 3061SOL    HW110634   6.406   3.552   7.387 -0.3229  1.1185  0.5437
 3061SOL    HW210635   6.334   3.441   7.461 -1.4897  1.4383 -0.0792
 3062SOL     OW10636   2.907   4.656   7.356  0.0457 -0.2891  0.1276
 3062SOL    HW110637   2.973   4.629   7.291  1.6768 -0.7147  1.8499
 3062SOL    HW210638   2.957   4.706   7.421 -2.0132  2.5696 -0.3188
 3063SOL     OW10639   8.841   5.940   0.801 -0.0774 -0.2748  0.1249
 3063SOL    HW110640   8.914   5.879   0.790 -0.3203 -0.2172 -2.1077
 3063SOL    HW210641   8.768   5.884   0.827  0.4983 -0.4381  1.5224
 3064SOL     OW10642   6.363   1.754   3.902  0.3888 -0.3742  0.1226
 3064SOL    HW110643   6.348   1.748   3.996  2.2987  2.0840  0.6878
 3064SOL    HW210644   6.289   1.805   3.869  0.0028 -0.7809  0.3387
 3065SOL     OW10645   1.588   5.467   5.937 -0.6280 -0.2134  0.0468
 3065SOL    HW110646   1.673   5.454   5.981 -0.0712 -0.3161 -1.0264
 3065SOL    HW210647   1.580   5.562   5.929 -1.3236 -0.1241  1.4543
 3066SOL     OW10648   1.827   6.449   7.040  0.1353  0.2983  0.1969
 3066SOL    HW110649   1.867   6.507   7.105 -0.9701  1.4277 -0.0896
 3066SOL    HW210650   1.734   6.471   7.042  0.1703  0.9718 -2.3387
 3067SOL     OW10651   9.057   6.924   7.760  0.3702  0.7517  0.3209
 3067SOL    HW110652   9.133   6.941   7.816  0.3153  2.1560  0.0057
 3067SOL    HW210653   9.025   6.839   7.788  0.2184  1.4993  2.5600
 3068SOL     OW10654   0.745   3.812   0.308 -0.6065 -0.1398 -0.2556
 3068SOL    HW110655   0.773   3.835   0.219 -0.5368 -0.1032 -0.2249
 3068SOL    HW210656   0.690   3.735   0.297 -0.9638  0.1339 -0.3721
 3069SOL     OW10657   0.506   4.051   2.687  0.0428  0.2603 -0.4789
 3069SOL    HW110658   0.414   4.027   2.696  0.2839  0.1597  2.6190
 3069SOL    HW210659   0.554   3.972   2.712  0.9572  0.7792 -0.5532
 3070SOL     OW10660   0.928   0.216   3.728 -0.5337  0.4283 -0.0613
 3070SOL    HW110661   0.869   0.208   3.653  0.5542  0.6547 -0.9733
 3070SOL    HW210662   0.886   0.281   3.785 -0.7186  1.2904 -1.1407
 3071SOL     OW10663   8.801   7.153   6.028 -0.1804 -0.8124  0.6369
 3071SOL    HW110664   8.724   7.203   6.000  0.8233  0.1563 -0.5345
 3071SOL    HW210665   8.765   7.078   6.076 -1.9377 -1.3748 -1.3923
 3072SOL     OW10666   2.664   8.725   2.712  0.0427 -0.1388 -0.0338
 3072SOL    HW110667   2.697   8.672   2.639  0.1049  0.0391 -0.1329
 3072SOL    HW210668   2.673   8.815   2.683  0.9134 -0.0271  0.5438
 3073SOL     OW10669   5.066   0.442   4.624 -0.5342  0.3038  0.3091
 3073SOL    HW110670   5.011   0.387   4.681  0.0889 -2.0496 -1.2329
 3073SOL    HW210671   5.130   0.381   4.587  0.5283  2.2090 -1.1221
 3074SOL     OW10672   9.213   5.387   4.224 -0.5379 -0.0892  0.7952
 3074SOL    HW110673   9.156   5.441   4.168 -0.8037 -0.1076  1.0448
 3074SOL    HW210674   9.161   5.309   4.241 -0.2637 -0.2993  0.6685
 3075SOL     OW10675   4.145   1.410   0.611 -0.5217 -0.3601  0.2704
 3075SOL    HW110676   4.110   1.322   0.619 -1.2414 -0.2403 -1.2192
 3075SOL    HW210677   4.179   1.415   0.521  0.5777  0.5112  0.6992
 3076SOL     OW10678   7.022   2.358   9.151 -0.5117  0.4530 -0.0767
 3076SOL    HW110679   6.965   2.308   9.093  1.1393 -2.6891  0.7824
 3076SOL    HW210680   6.971   2.366   9.232 -0.2412 -1.2929  0.2981
 3077SOL     OW10681   3.878   0.515   7.429  0.3737  0.8001 -0.3757
 3077SOL    HW110682   3.921   0.459   7.494 -0.5338 -0.4105 -0.7805
 3077SOL    HW210683   3.793   0.474   7.415 -0.1742  2.0949 -0.9691
 3078SOL     OW10684   5.903   5.194   9.016 -0.2332 -0.5895 -0.3508
 3078SOL    HW110685   5.838   5.196   8.947 -0.0735 -0.5613 -0.4995
 3078SOL    HW210686   5.969   5.132   8.985  0.6213  0.5680 -0.9295
 3079SOL     OW10687   7.908   2.940   8.319  0.5369  0.1331  0.6807
 3079SOL    HW110688   7.882   2.877   8.387  2.7354  1.0437  2.4917
 3079SOL    HW210689   7.945   2.886   8.249 -0.4758 -0.7365  0.7846
 3080SOL     OW10690   2.143   5.300   1.610  0.7722 -0.3893  0.7587
 3080SOL    HW110691   2.192   5.372   1.570  1.3114 -1.0026  0.2767
 3080SOL    HW210692   2.062   5.295   1.560  0.9732 -0.4567  0.4343
 3081SOL     OW10693   1.547   0.923   9.180 -0.4443 -0.0215 -0.1871
 3081SOL    HW110694   1.522   1.010   9.149  1.8286  0.1916 -1.6463
 3081SOL    HW210695   1.488   0.906   9.253 -0.0758  3.3589  1.1034
 3082SOL     OW10696   6.861   7.262   6.085 -0.5103 -0.6337  0.1905
 3082SOL    HW110697   6.934   7.202   6.100 -1.3666 -1.5289  0.8698
 3082SOL    HW210698   6.856   7.314   6.165  0.0765  0.2070 -0.3011
 3083SOL     OW10699   8.825   8.988   3.583 -0.6586  0.1576  0.1881
 3083SOL    HW110700   8.824   9.080   3.611 -0.8046  0.4903 -0.8816
 3083SOL    HW210701   8.915   8.959   3.598 -0.3964  0.7263 -0.2444
 3084SOL     OW10702   5.729   3.042   2.668  0.0506  0.3895  0.1943
 3084SOL    HW110703   5.719   2.970   2.730 -0.8651  0.2304 -0.1211
 3084SOL    HW210704   5.768   3.113   2.719  0.8028 -0.2646  0.5524
 3085SOL     OW10705   0.649   6.021   5.112 -0.3073  0.4430  0.3727
 3085SOL    HW110706   0.666   5.962   5.038 -2.7650 -2.0254  1.5760
 3085SOL    HW210707   0.649   6.109   5.073  1.3293 -0.4930 -1.9536
 3086SOL     OW10708   5.425   2.257   6.853  0.3430  0.0897  0.3100
 3086SOL    HW110709   5.367   2.325   6.817 -0.5512 -0.4260  0.7376
 3086SOL    HW210710   5.417   2.267   6.948  1.9613  0.8299  0.4039
 3087SOL     OW10711   0.031   4.753   6.953  0.1919 -0.0730  0.0505
 3087SOL    HW110712  -0.051   4.710   6.978  0.2785 -1.7267 -2.1592
 3087SOL    HW210713   0.089   4.739   7.028 -1.2661  0.4428  1.3395
 3088SOL     OW10714   0.064   2.312   3.822  0.4638 -0.2103  0.7241
 3088SOL    HW110715   0.079   2.382   3.885  1.4422 -0.2087  0.4999
 3088SOL    HW210716   0.039   2.357   3.741  0.5227 -0.1515  0.7388
 3089SOL     OW10717   8.974   5.758   5.470  0.5284  0.3708 -0.3329
 3089SOL    HW110718   8.990   5.803   5.387 -0.1671 -0.2816 -0.8281
 3089SOL    HW210719   8.888   5.789   5.498 -0.4951 -1.4716 -1.2593
 3090SOL     OW10720   0.941   7.674   4.411  0.6256 -0.4695 -0.4947
 3090SOL    HW110721   0.849   7.699   4.397  0.1692 -0.3218  2.2851
 3090SOL    HW210722   0.990   7.731   4.351 -1.0028  0.5423 -0.9343
 3091SOL     OW10723   7.790   6.520   7.957  0.7970  0.5080 -0.1554
 3091SOL    HW110724   7.813   6.481   7.873 -0.4492  0.7049 -0.6007
 3091SOL    HW210725   7.803   6.614   7.944 -0.5760  0.6599 -0.5344
 3092SOL     OW10726   8.559   0.538   2.666 -0.1230  0.0844  0.7533
 3092SOL    HW110727   8.548   0.549   2.572  1.1870 -0.1571  0.5573
 3092SOL    HW210728   8.561   0.627   2.701 -1.3647  0.1685  0.6713
 3093SOL     OW10729   8.285   5.125   5.738 -0.4093 -0.2867  0.1248
 3093SOL    HW110730   8.204   5.135   5.788  0.5558  0.5503  1.5732
 3093SOL    HW210731   8.295   5.030   5.729 -1.6667 -0.3978 -0.2901
 3094SOL     OW10732   2.904   8.959   8.513 -0.2176  0.6888  0.0661
 3094SOL    HW110733   2.856   8.944   8.431  0.7733 -0.9045 -0.2669
 3094SOL    HW210734   2.849   9.021   8.561 -3.0649 -1.5747  0.0657
 3095SOL     OW10735   7.611   7.815   6.118 -0.2622 -0.0513 -0.6686
 3095SOL    HW110736   7.645   7.882   6.177 -0.2775 -1.2600  0.7680
 3095SOL    HW210737   7.684   7.754   6.105 -0.6546 -0.4964 -0.8270
 3096SOL     OW10738   0.570   3.809   6.055 -0.0395 -0.7195  0.5066
 3096SOL    HW110739   0.610   3.892   6.028  2.5626 -2.0016  0.0487
 3096SOL    HW210740   0.637   3.767   6.109 -2.6436 -1.0514  3.7320
 3097SOL     OW10741   1.480   3.781   7.011 -0.0986  0.0102 -0.1414
 3097SOL    HW110742   1.406   3.781   7.072  1.2611  1.3258  1.6498
 3097SOL    HW210743   1.557   3.790   7.068  1.2708  1.1158 -2.0443
 3098SOL     OW10744   7.513   8.660   8.864 -0.3302 -0.2992 -0.5241
 3098SOL    HW110745   7.419   8.651   8.853 -0.4296 -0.2599  0.2091
 3098SOL    HW210746   7.550   8.637   8.779 -1.0779  1.2594 -1.3174
 3099SOL     OW10747   4.832   6.573   2.076 -0.2501  0.1836 -0.1497
 3099SOL    HW110748   4.795   6.609   2.157  1.4710  0.6192  0.4926
 3099SOL    HW210749   4.764   6.586   2.010 -1.7201 -0.2071  1.2133
 3100SOL     OW10750   4.588   6.164   7.324 -0.4960  0.3513  0.1667
 3100SOL    HW110751   4.568   6.072   7.306 -0.4418  0.3071  0.3292
 3100SOL    HW210752   4.683   6.170   7.317 -0.5456  0.5169 -0.4018
 3101SOL     OW10753   1.479   3.781   7.399  0.1666 -0.4848  0.3660
 3101SOL    HW110754   1.513   3.698   7.433  1.6322 -0.2032 -0.3431
 3101SOL    HW210755   1.402   3.757   7.349  0.7433 -1.4634 -0.0783
 3102SOL     OW10756   2.740   0.329   3.881 -0.5098 -0.1126 -0.0903
 3102SOL    HW110757   2.689   0.251   3.863 -2.1589  1.0030 -0.5129
 3102SOL    HW210758   2.676   0.400   3.880  0.8148  1.1578  1.0189
 3103SOL     OW10759   2.673   2.045   0.826  0.2101 -0.2199 -0.1028
 3103SOL    HW110760   2.631   2.108   0.885 -0.0021  0.3163 -0.8161
 3103SOL    HW210761   2.601   2.009   0.774  0.3266 -1.0817  0.3096
 3104SOL     OW10762   2.903   5.973   5.051  0.1048  0.2864 -0.5273
 3104SOL    HW110763   2.851   5.897   5.026 -0.8732  0.8755 -0.3130
 3104SOL    HW210764   2.841   6.033   5.091  1.1888  0.4114  1.0514
 3105SOL     OW10765   7.656   7.017   1.062 -0.5034  0.6869 -0.1597
 3105SOL    HW110766   7.696   7.097   1.029 -0.9143  1.2251  0.6033
 3105SOL    HW210767   7.660   7.026   1.157 -0.2801 -0.3429 -0.0608
 3106SOL     OW10768   7.169   4.722   1.194 -0.1589 -0.0983  0.0822
 3106SOL    HW110769   7.173   4.805   1.242 -1.2626 -0.5952  1.1025
 3106SOL    HW210770   7.117   4.665   1.251  2.0607 -2.0704  0.2754
 3107SOL     OW10771   6.781   1.543   7.882 -0.1602  0.4445  0.0110
 3107SOL    HW110772   6.690   1.519   7.867  0.1130 -0.2486 -0.5651
 3107SOL    HW210773   6.792   1.625   7.834 -0.3543  0.3003 -0.2794
 3108SOL     OW10774   1.932   7.416   6.315  0.2452 -0.6440 -0.4595
 3108SOL    HW110775   1.871   7.425   6.388  0.8319 -0.8003  0.0576
 3108SOL    HW210776   2.012   7.459   6.345  0.8726 -1.7106 -0.5618
 3109SOL     OW10777   4.558   8.533   1.822  0.2881  0.2926  0.2378
 3109SOL    HW110778   4.589   8.525   1.732 -0.1873 -0.0515  0.0956
 3109SOL    HW210779   4.596   8.614   1.854  1.2677 -0.0828  0.0511
 3110SOL     OW10780   5.475   8.718   1.285  0.0725  0.3662 -0.0246
 3110SOL    HW110781   5.565   8.701   1.313  0.0450  1.8210  1.0812
 3110SOL    HW210782   5.480   8.800   1.235 -0.4371 -0.3402 -1.3037
 3111SOL     OW10783   1.410   2.285   6.722  0.4871 -0.4514  0.2770
 3111SOL    HW110784   1.419   2.224   6.649 -1.3956 -0.5184  0.0666
 3111SOL    HW210785   1.347   2.243   6.781 -0.1608  0.8655  0.5649
 3112SOL     OW10786   6.348   1.276   3.681 -0.0683  0.0445  0.1216
 3112SOL    HW110787   6.313   1.316   3.760  1.7606  0.5526  0.7167
 3112SOL    HW210788   6.376   1.350   3.626  1.1457 -0.3260  0.1974
 3113SOL     OW10789   4.419   5.424   7.284  0.8278 -0.6321 -0.0069
 3113SOL    HW110790   4.414   5.439   7.189 -0.9012  0.8598  0.2760
 3113SOL    HW210791   4.338   5.377   7.304  0.7970 -0.2209  0.8493
 3114SOL     OW10792   9.048   5.550   3.999  0.4272  0.3871 -0.3128
 3114SOL    HW110793   8.969   5.500   4.020  0.8002 -0.1057 -0.0674
 3114SOL    HW210794   9.089   5.502   3.927  1.1445 -0.0501  0.3733
 3115SOL     OW10795   8.579   0.416   2.104  0.2249 -0.4451  0.4307
 3115SOL    HW110796   8.552   0.459   2.185 -1.2651  0.0585 -0.2944
 3115SOL    HW210797   8.501   0.366   2.077  1.5095 -2.6790  0.6153
 3116SOL     OW10798   0.128   7.433   0.452 -0.5310 -0.1362  0.6637
 3116SOL    HW110799   0.103   7.440   0.359  0.2315  0.9308  0.5143
 3116SOL    HW210800   0.072   7.364   0.487 -1.8051  0.3760 -0.2735
 3117SOL     OW10801   1.637   3.987   0.422 -0.0483  0.1001 -0.0023
 3117SOL    HW110802   1.722   4.031   0.417 -0.4376  1.0016  1.0347
 3117SOL    HW210803   1.615   3.967   0.330  2.0816 -1.7835 -0.1912
 3118SOL     OW10804   7.723   8.205   6.157  0.1012  0.3357 -0.1559
 3118SOL    HW110805   7.697   8.195   6.066 -1.0295 -0.7026  0.2495
 3118SOL    HW210806   7.706   8.119   6.196 -0.4130  1.0533  1.2587
 3119SOL     OW10807   3.153   0.883   8.012  0.7825  0.1165  0.6883
 3119SOL    HW110808   3.239   0.891   8.052  2.0456 -0.4815 -1.7012
 3119SOL    HW210809   3.171   0.853   7.923 -1.8254  1.3503 -0.3468
 3120SOL     OW10810   4.967   7.254   6.809 -0.2980 -0.4693  0.4513
 3120SOL    HW110811   4.967   7.213   6.896  0.2367  1.4488  1.4103
 3120SOL    HW210812   5.035   7.321   6.815 -0.6873  0.1096 -1.2637
 3121SOL     OW10813   7.283   3.729   6.328 -0.0950 -0.0996 -0.3361
 3121SOL    HW110814   7.298   3.634   6.318 -1.0254 -0.3482  0.4975
 3121SOL    HW210815   7.198   3.744   6.286  0.5880  0.6012 -1.5367
 3122SOL     OW10816   5.411   6.697   1.363  0.6000  0.3668  0.2787
 3122SOL    HW110817   5.409   6.623   1.424 -1.4849 -1.0638 -1.4020
 3122SOL    HW210818   5.340   6.755   1.393  0.6652  0.5013  0.1759
 3123SOL     OW10819   0.652   3.344   5.884  0.1608 -0.1181 -0.0728
 3123SOL    HW110820   0.723   3.345   5.947 -0.0514 -1.8488  0.2380
 3123SOL    HW210821   0.611   3.258   5.894 -1.3103  0.4252 -0.9813
 3124SOL     OW10822   8.587   3.173   1.752 -0.0193 -0.2344  0.1295
 3124SOL    HW110823   8.552   3.186   1.840 -2.4898 -1.2882 -0.5804
 3124SOL    HW210824   8.589   3.078   1.741 -0.1001 -0.1207 -1.0487
 3125SOL     OW10825   6.423   2.125   0.889  0.0398 -0.6745  0.5042
 3125SOL    HW110826   6.462   2.185   0.952  2.1644 -0.7359 -0.6748
 3125SOL    HW210827   6.332   2.154   0.881  0.2270  0.4941  2.1632
 3126SOL     OW10828   2.142   3.371   2.834  0.1690 -0.0011  0.7367
 3126SOL    HW110829   2.073   3.377   2.768  0.2306 -2.0586  0.3996
 3126SOL    HW210830   2.215   3.421   2.798 -0.2868  0.0849 -0.0934
 3127SOL     OW10831   9.094   5.873   4.491  0.2052  0.0721  0.2539
 3127SOL    HW110832   9.123   5.782   4.489  0.9667  0.3103 -0.5905
 3127SOL    HW210833   9.082   5.896   4.399  0.3786  0.9273  0.4336
 3128SOL     OW10834   3.502   8.731   4.205  0.2759 -0.2035 -0.4840
 3128SOL    HW110835   3.429   8.723   4.144  0.1262 -1.1276 -0.2011
 3128SOL    HW210836   3.462   8.725   4.292  0.5607  0.4405 -0.3030
 3129SOL     OW10837   6.264   3.714   5.075 -0.5816 -0.5307  0.0845
 3129SOL    HW110838   6.283   3.798   5.032  0.5419  0.8274  3.0033
 3129SOL    HW210839   6.322   3.652   5.030  0.4582  0.7794 -0.4763
 3130SOL     OW10840   3.436   8.956   2.423  0.2531  0.1155 -0.3152
 3130SOL    HW110841   3.504   8.997   2.371 -0.0822 -0.3533 -1.1324
 3130SOL    HW210842   3.406   8.881   2.371 -1.3088  0.6635 -0.2629
 3131SOL     OW10843   7.384   4.887   4.128  1.0526 -0.1401  0.0271
 3131SOL    HW110844   7.441   4.956   4.162 -1.0611  1.1699  1.1444
 3131SOL    HW210845   7.399   4.886   4.034 -1.4997  4.6431 -0.7361
 3132SOL     OW10846   2.451   0.513   4.118 -0.1685  0.5303  0.8271
 3132SOL    HW110847   2.436   0.543   4.029 -0.5943 -1.2942  0.2459
 3132SOL    HW210848   2.545   0.523   4.132  0.2526 -1.1232 -0.5979
 3133SOL     OW10849   0.197   6.761   5.999 -0.7059  0.2605  0.0140
 3133SOL    HW110850   0.284   6.723   6.008 -0.1906  1.6440  1.3566
 3133SOL    HW210851   0.136   6.691   6.024  0.1752  0.0693  1.7825
 3134SOL     OW10852   5.242   5.727   2.347  0.1345 -0.7054 -0.2487
 3134SOL    HW110853   5.285   5.782   2.413  0.8793 -1.5053 -0.0532
 3134SOL    HW210854   5.149   5.737   2.364  0.2738  0.1439  0.0675
 3135SOL     OW10855   4.522   4.836   8.018 -0.1124  0.2219 -0.1133
 3135SOL    HW110856   4.492   4.778   7.949  0.4183 -0.1886 -0.0097
 3135SOL    HW210857   4.610   4.803   8.040 -0.6482 -0.2657  1.4278
 3136SOL     OW10858   0.781   9.000   6.943  0.6770  0.5546 -0.4016
 3136SOL    HW110859   0.781   9.065   6.873  1.0035  0.1889 -0.7484
 3136SOL    HW210860   0.830   8.926   6.907  1.2967  0.5612  0.3986
 3137SOL     OW10861   6.317   2.360   5.415  0.3487 -0.3903 -0.3864
 3137SOL    HW110862   6.387   2.337   5.353  1.5247  0.8752  0.3890
 3137SOL    HW210863   6.361   2.415   5.480 -0.9759 -1.1813  1.2343
 3138SOL     OW10864   5.530   6.564   2.382 -0.4513  0.1459  0.1162
 3138SOL    HW110865   5.504   6.655   2.397 -0.7954 -0.0654  0.8156
 3138SOL    HW210866   5.561   6.533   2.467  0.0798 -0.2629 -0.2163
 3139SOL     OW10867   0.629   3.818   8.560  0.0179 -0.0885 -0.0245
 3139SOL    HW110868   0.558   3.825   8.623  0.1350 -0.7704  0.1895
 3139SOL    HW210869   0.702   3.866   8.600 -0.6944  1.7267 -0.8187
 3140SOL     OW10870   6.705   2.167   0.357  0.0885  0.0347  0.2345
 3140SOL    HW110871   6.700   2.100   0.426 -2.2095 -1.2244 -1.0400
 3140SOL    HW210872   6.683   2.120   0.276  0.1030  2.0100 -0.9766
 3141SOL     OW10873   5.990   8.860   8.123  0.1065 -0.6549 -0.9308
 3141SOL    HW110874   6.011   8.953   8.120  0.5928 -0.6664  0.9012
 3141SOL    HW210875   5.957   8.846   8.211 -1.5504 -1.9218 -1.6913
 3142SOL     OW10876   2.655   8.456   1.064 -0.2973 -0.0153  0.2161
 3142SOL    HW110877   2.748   8.456   1.043 -0.1732  1.9347  0.5160
 3142SOL    HW210878   2.635   8.365   1.086  1.7843 -0.3012  1.1825
 3143SOL     OW10879   7.988   4.949   1.135 -0.2467  0.1549  0.2154
 3143SOL    HW110880   8.065   4.976   1.184 -0.4757  0.7745  0.2485
 3143SOL    HW210881   8.023   4.910   1.054  0.1352 -0.9776  0.8996
 3144SOL     OW10882   2.102   7.379   0.144 -0.9407  0.0132  0.0891
 3144SOL    HW110883   2.018   7.397   0.101 -0.5420 -0.3389 -0.8420
 3144SOL    HW210884   2.167   7.387   0.075 -0.3494 -1.0998  0.4856
 3145SOL     OW10885   1.006   3.684   9.133 -0.3792  0.7970 -0.4684
 3145SOL    HW110886   1.001   3.659   9.225 -0.3951  0.3741 -0.5840
 3145SOL    HW210887   1.088   3.646   9.102 -1.5385 -1.1949 -1.2565
 3146SOL     OW10888   2.854   2.379   7.430  0.4693  0.1986  0.1534
 3146SOL    HW110889   2.844   2.307   7.492 -0.0784 -0.2176 -0.4109
 3146SOL    HW210890   2.813   2.347   7.349  0.9315  0.8343 -0.3415
 3147SOL     OW10891   7.462   1.874   2.699  0.2067  0.1037 -0.3363
 3147SOL    HW110892   7.538   1.859   2.755  0.7332 -1.3234 -1.3760
 3147SOL    HW210893   7.397   1.914   2.756  1.6322  1.1250  0.6405
 3148SOL     OW10894   1.155   3.881   0.252 -0.0013  0.1911 -0.2444
 3148SOL    HW110895   1.118   3.961   0.290 -0.4635 -1.4790  3.2655
 3148SOL    HW210896   1.225   3.856   0.312  0.5352 -1.7452 -1.5632
 3149SOL     OW10897   0.282   2.719   8.552  1.0748 -0.3765  0.2296
 3149SOL    HW110898   0.248   2.808   8.562  1.1613 -0.2215 -0.8123
 3149SOL    HW210899   0.375   2.730   8.533  1.0383 -0.6773 -0.1317
 3150SOL     OW10900   0.391   2.511   6.563 -0.1595 -0.0041 -0.0841
 3150SOL    HW110901   0.407   2.605   6.558  0.3011 -0.0167  1.0341
 3150SOL    HW210902   0.307   2.503   6.609 -0.5688 -0.1314 -0.8283
 3151SOL     OW10903   1.255   9.241   2.173 -0.6553  0.5703  0.2139
 3151SOL    HW110904   1.264   9.245   2.268  1.4020  1.4830  0.0375
 3151SOL    HW210905   1.265   9.332   2.144  1.1684  0.0322 -1.0072
 3152SOL     OW10906   0.863   1.050   0.660  0.3215  0.7715  0.2401
 3152SOL    HW110907   0.895   1.129   0.617  1.2048 -0.3900 -1.3426
 3152SOL    HW210908   0.940   0.993   0.667 -1.0884 -2.0001 -3.4140
 3153SOL     OW10909   3.299   7.492   6.000  0.0233  0.0506  0.6236
 3153SOL    HW110910   3.216   7.539   6.012  0.4805  0.6634  1.5308
 3153SOL    HW210911   3.276   7.415   5.948 -1.3073 -0.3111  1.6889
 3154SOL     OW10912   1.361   3.196   7.696  0.0608 -0.2144 -0.3734
 3154SOL    HW110913   1.448   3.183   7.731 -0.3302 -1.0354  0.3184
 3154SOL    HW210914   1.305   3.211   7.772 -0.3840  0.4628 -0.8135
 3155SOL     OW10915   4.252   1.125   4.393 -0.6435  0.1065 -0.2752
 3155SOL    HW110916   4.319   1.192   4.391 -0.5838  0.0329 -1.2105
 3155SOL    HW210917   4.271   1.074   4.472  1.1592 -0.6721 -1.1678
 3156SOL     OW10918   3.570   5.798   2.982 -0.2804  0.3110  0.1753
 3156SOL    HW110919   3.551   5.713   2.942  0.1224  0.2137  0.1840
 3156SOL    HW210920   3.619   5.776   3.062  1.2800  0.6137 -0.6714
 3157SOL     OW10921   4.378   6.042   4.697  0.2946 -0.0384 -1.2798
 3157SOL    HW110922   4.462   6.062   4.737  0.7723  0.3535 -2.4243
 3157SOL    HW210923   4.321   6.018   4.770  1.1536  0.5334 -0.4007
 3158SOL     OW10924   0.282   6.832   6.691 -0.6052  0.4350 -0.1034
 3158SOL    HW110925   0.286   6.892   6.617 -0.3518 -1.2042 -1.4784
 3158SOL    HW210926   0.373   6.813   6.713 -0.6694 -0.1958 -0.3417
 3159SOL     OW10927   6.259   6.310   3.755  0.5274  0.5914 -0.6947
 3159SOL    HW110928   6.249   6.216   3.764 -0.4539  0.9015  3.0357
 3159SOL    HW210929   6.175   6.341   3.722  0.2091  0.3226 -0.1364
 3160SOL     OW10930   4.244   2.123   4.293 -0.1981 -0.0491  0.1822
 3160SOL    HW110931   4.243   2.195   4.356 -0.9464  0.1110 -0.0038
 3160SOL    HW210932   4.207   2.049   4.341 -1.3681  0.2402 -0.2534
 3161SOL     OW10933   1.900   2.363   1.482  0.3693  0.2268  0.2736
 3161SOL    HW110934   1.970   2.378   1.418 -0.0733  0.2230 -0.2156
 3161SOL    HW210935   1.879   2.270   1.473 -0.4372  0.4662 -0.3386
 3162SOL     OW10936   3.783   7.858   0.654  0.8002 -0.4788  0.2517
 3162SOL    HW110937   3.747   7.779   0.615 -1.4577  0.6552 -0.1432
 3162SOL    HW210938   3.706   7.910   0.679  2.1639  1.9165 -0.1646
 3163SOL     OW10939   4.218   7.791   5.531 -0.2627 -0.5083 -1.0087
 3163SOL    HW110940   4.267   7.832   5.461  0.5523 -0.6642 -0.5391
 3163SOL    HW210941   4.207   7.859   5.597 -1.7018 -0.1321 -1.5945
 3164SOL     OW10942   6.367   5.166   5.609  0.4758 -0.2611  0.0748
 3164SOL    HW110943   6.403   5.203   5.529  0.1404 -1.0790 -0.4689
 3164SOL    HW210944   6.292   5.114   5.580 -0.5061  0.5598  1.0707
 3165SOL     OW10945   8.066   9.012   4.492  0.0277  0.5379  0.3295
 3165SOL    HW110946   8.115   8.947   4.542  1.4468  1.3189  0.0210
 3165SOL    HW210947   8.109   9.014   4.407 -2.8408 -1.3697 -1.3412
 3166SOL     OW10948   8.083   9.014   6.146  0.3668 -0.4218  0.1111
 3166SOL    HW110949   8.152   8.948   6.144 -0.7726 -1.6811  0.9308
 3166SOL    HW210950   8.002   8.965   6.134 -0.3478  1.1873 -2.6512
 3167SOL     OW10951   6.664   8.938   5.012  0.0258 -0.0075 -0.6310
 3167SOL    HW110952   6.739   8.981   4.971 -0.5887  1.4774 -0.2637
 3167SOL    HW210953   6.695   8.850   5.032  1.7555  0.6427 -0.2527
 3168SOL     OW10954   6.255   1.312   1.174  0.2194 -0.1222  0.9178
 3168SOL    HW110955   6.203   1.235   1.154  0.5913 -0.2968  0.6269
 3168SOL    HW210956   6.339   1.296   1.132 -0.5933  1.6923 -1.6737
 3169SOL     OW10957   3.510   0.208   1.579  0.7124 -0.3708 -0.1912
 3169SOL    HW110958   3.552   0.152   1.644 -0.5432 -0.4733  0.5505
 3169SOL    HW210959   3.467   0.147   1.519 -0.8424 -0.2496  0.7415
 3170SOL     OW10960   9.262   7.736   3.547  0.1112 -0.0902  0.6535
 3170SOL    HW110961   9.285   7.825   3.575 -1.4574  0.3064  0.7665
 3170SOL    HW210962   9.168   7.731   3.560 -0.1632 -1.0526 -1.3598
 3171SOL     OW10963   6.825   5.994   0.992 -0.3377  0.2702  0.3452
 3171SOL    HW110964   6.758   5.955   0.937 -0.8551 -0.5266  1.4935
 3171SOL    HW210965   6.904   5.996   0.937 -0.7812 -0.6676 -0.3474
 3172SOL     OW10966   3.673   2.075   4.412  0.2991  0.0874 -0.2343
 3172SOL    HW110967   3.605   2.091   4.347  0.7401  1.6235 -0.3365
 3172SOL    HW210968   3.626   2.031   4.484 -0.9634  1.6342 -0.0397
 3173SOL     OW10969   8.208   5.943   6.957  0.2802 -0.2870  0.3475
 3173SOL    HW110970   8.191   6.020   6.905 -0.9855 -1.4671 -1.0741
 3173SOL    HW210971   8.145   5.948   7.029  2.5073  1.7161  2.3465
 3174SOL     OW10972   3.102   2.388   0.948 -0.4129  0.8474  0.2457
 3174SOL    HW110973   3.118   2.438   1.028  3.7993  0.4028 -0.1167
 3174SOL    HW210974   3.103   2.297   0.976 -0.7297  0.7359 -0.0930
 3175SOL     OW10975   2.151   5.880   2.341 -0.1417 -0.3257  0.1943
 3175SOL    HW110976   2.219   5.851   2.402 -1.4765 -0.3877  1.7506
 3175SOL    HW210977   2.148   5.812   2.273  0.0367 -1.3579  1.1828
 3176SOL     OW10978   8.045   1.052   4.555 -0.1878 -0.0415 -0.2644
 3176SOL    HW110979   8.123   1.059   4.499 -0.8677  1.7700 -1.0425
 3176SOL    HW210980   7.978   1.014   4.498 -0.5042  0.5353 -0.2796
 3177SOL     OW10981   5.493   5.259   0.642 -0.3644  0.3621  0.0659
 3177SOL    HW110982   5.523   5.171   0.666 -1.1080  0.2451  0.6144
 3177SOL    HW210983   5.560   5.292   0.583  0.8669  0.1460  1.3065
 3178SOL     OW10984   2.558   2.803   7.744 -0.0193 -0.3308 -0.0013
 3178SOL    HW110985   2.554   2.844   7.658  4.4171  1.9588  0.5998
 3178SOL    HW210986   2.598   2.717   7.728 -0.0668 -0.3017 -0.2739
 3179SOL     OW10987   7.237   0.337   3.487 -0.1481 -0.7197  0.0583
 3179SOL    HW110988   7.165   0.364   3.430 -0.0520 -2.3035 -0.9031
 3179SOL    HW210989   7.228   0.391   3.565 -1.6185 -0.0077 -0.5561
 3180SOL     OW10990   5.194   8.458   3.752  0.5451  0.3002  0.0665
 3180SOL    HW110991   5.139   8.405   3.694  0.5709  0.8499 -0.4793
 3180SOL    HW210992   5.172   8.430   3.840  1.7136 -1.7752 -0.2332
 3181SOL     OW10993   8.966   5.069   5.649 -0.7508 -0.1084  0.1708
 3181SOL    HW110994   8.947   5.158   5.679 -0.1822  0.2933 -0.6258
 3181SOL    HW210995   9.000   5.024   5.726 -0.0958  0.6556  0.3400
 3182SOL     OW10996   4.477   3.547   3.545 -0.5922 -0.1485  0.0213
 3182SOL    HW110997   4.477   3.643   3.545 -2.4070 -0.0888  1.0422
 3182SOL    HW210998   4.568   3.523   3.556 -0.3996  1.5588  3.5651
 3183SOL     OW10999   3.816   8.015   5.958  0.1107 -0.1703  0.1874
 3183SOL    HW111000   3.726   7.983   5.962  0.1799 -0.4698 -0.6132
 3183SOL    HW211001   3.827   8.046   5.868  0.4768  0.8521  0.5698
 3184SOL     OW11002   7.100   7.356   5.505  0.1418  0.7382 -0.0216
 3184SOL    HW111003   7.135   7.341   5.593  0.5597 -1.9975 -0.5671
 3184SOL    HW211004   7.019   7.405   5.519 -0.6644 -1.0492  2.0488
 3185SOL     OW11005   8.653   0.169   0.971  0.1912 -0.1100  0.0358
 3185SOL    HW111006   8.615   0.132   0.892  1.3606 -0.2604 -0.4743
 3185SOL    HW211007   8.735   0.209   0.943  0.0453  0.9118  0.9670
 3186SOL     OW11008   4.748   6.254   0.325 -0.6584 -0.4366  0.8847
 3186SOL    HW111009   4.663   6.219   0.352 -0.9694  1.9440  3.3283
 3186SOL    HW211010   4.812   6.197   0.368 -0.8555 -2.6841 -1.5337
 3187SOL     OW11011   1.072   2.333   7.963 -0.1415  0.6679  0.6243
 3187SOL    HW111012   1.007   2.317   7.893  0.1660  1.7685  0.0650
 3187SOL    HW211013   1.078   2.428   7.968  0.7796  0.5811  1.2953
 3188SOL     OW11014   8.608   2.818   1.486  0.5267 -0.3614  0.3424
 3188SOL    HW111015   8.531   2.777   1.445  1.5590 -1.0488 -0.9740
 3188SOL    HW211016   8.682   2.765   1.457  1.9980  2.6012 -1.8276
 3189SOL     OW11017   7.257   3.477   2.488  0.2798  0.5341  0.5951
 3189SOL    HW111018   7.247   3.390   2.448 -1.9556  0.0661  1.9812
 3189SOL    HW211019   7.351   3.488   2.498  0.7528 -0.7320 -1.6834
 3190SOL     OW11020   0.928   2.084   5.970 -0.1785  0.4707 -0.1807
 3190SOL    HW111021   0.935   2.172   6.007 -2.1809  1.6329 -2.3126
 3190SOL    HW211022   1.014   2.065   5.935  0.0989  1.8917 -0.3121
 3191SOL     OW11023   3.202   7.634   4.588  0.5464  0.3252  0.4185
 3191SOL    HW111024   3.156   7.607   4.509  1.7516  1.5429 -0.7363
 3191SOL    HW211025   3.294   7.618   4.570  0.7788 -0.5150  2.0745
 3192SOL     OW11026   6.021   8.953   2.684 -0.1034  0.5904  0.0372
 3192SOL    HW111027   5.962   9.023   2.713 -1.2744 -0.4541  0.2754
 3192SOL    HW211028   6.007   8.949   2.589  0.9429  1.5222 -0.1763
 3193SOL     OW11029   0.450   2.734   3.582 -0.2363 -0.0484  0.0860
 3193SOL    HW111030   0.384   2.797   3.553  0.6440 -0.4001 -3.0270
 3193SOL    HW211031   0.408   2.648   3.569 -0.2340 -0.2184  1.0985
 3194SOL     OW11032   5.739   3.947   9.252  0.4822 -0.6776  0.4244
 3194SOL    HW111033   5.813   3.947   9.314 -0.2259  0.3194  1.3095
 3194SOL    HW211034   5.735   3.857   9.221  1.5357 -0.9568  1.0147
 3195SOL     OW11035   1.630   3.308   7.683  0.6584 -0.1370  0.4620
 3195SOL    HW111036   1.689   3.240   7.716  0.3467  0.1076  1.5607
 3195SOL    HW211037   1.639   3.380   7.746  0.5883  0.6363 -0.3940
 3196SOL     OW11038   3.890   2.838   1.739 -0.2961  0.1741 -0.0285
 3196SOL    HW111039   3.846   2.771   1.792  0.4937  0.0904  0.5581
 3196SOL    HW211040   3.950   2.788   1.683 -0.5323  0.3181 -0.4099
 3197SOL     OW11041   5.396   4.409   3.603 -0.3586  0.2531  0.0373
 3197SOL    HW111042   5.402   4.362   3.520  1.5334 -0.0837  0.3221
 3197SOL    HW211043   5.345   4.352   3.660  0.0368 -0.4468 -0.2949
 3198SOL     OW11044   7.120   6.237   0.698  0.2981 -0.7276  0.3629
 3198SOL    HW111045   7.105   6.147   0.667  0.0808 -0.3881 -0.5455
 3198SOL    HW211046   7.140   6.227   0.791 -0.8014 -1.6141  0.5184
 3199SOL     OW11047   7.785   0.378   1.603 -0.1281  0.1504 -0.1163
 3199SOL    HW111048   7.773   0.408   1.693  2.8094  0.9006  0.1251
 3199SOL    HW211049   7.805   0.458   1.554 -1.0685 -0.3313 -1.3393
 3200SOL     OW11050   3.611   0.379   3.227 -0.0105 -0.1108 -0.0885
 3200SOL    HW111051   3.516   0.373   3.217 -0.0414  0.5901 -0.3056
 3200SOL    HW211052   3.637   0.296   3.268 -0.6118 -0.6542 -0.7740
 3201SOL     OW11053   6.468   3.289   2.946  0.2868  0.0290  0.2307
 3201SOL    HW111054   6.465   3.368   3.000  0.3153  0.0097  0.2610
 3201SOL    HW211055   6.409   3.228   2.990 -1.4921  0.7807 -1.0070
 3202SOL     OW11056   8.578   6.459   6.997 -0.3932  0.0524 -0.5624
 3202SOL    HW111057   8.595   6.482   6.906 -1.5236  1.6678 -0.4250
 3202SOL    HW211058   8.660   6.422   7.029 -0.0008 -0.5804 -2.2415
 3203SOL     OW11059   7.232   4.010   8.532 -0.6454  0.4703 -0.1320
 3203SOL    HW111060   7.136   4.008   8.527 -0.6839  1.3324  0.0432
 3203SOL    HW211061   7.251   4.073   8.602  0.0394 -0.4772  0.5500
 3204SOL     OW11062   7.909   2.500   2.641  0.2198  0.1906  0.3617
 3204SOL    HW111063   7.906   2.404   2.643  1.5781  0.1237  0.0410
 3204SOL    HW211064   7.940   2.525   2.728  0.0942  0.3295  0.3669
 3205SOL     OW11065   0.088   2.451   4.357  0.2722 -0.0846 -0.4248
 3205SOL    HW111066   0.129   2.523   4.310 -0.1128  0.0640 -0.5419
 3205SOL    HW211067   0.086   2.379   4.293 -2.0578  0.7159 -1.3643
 3206SOL     OW11068   8.184   7.698   8.554 -0.0575 -0.2438 -0.0233
 3206SOL    HW111069   8.158   7.633   8.620  1.2029 -1.3856 -0.5984
 3206SOL    HW211070   8.240   7.649   8.494  1.0283  1.4229 -0.4151
 3207SOL     OW11071   4.207   2.821   8.102  0.5763 -0.1871 -0.0688
 3207SOL    HW111072   4.141   2.834   8.034  0.7588  0.1460 -0.1832
 3207SOL    HW211073   4.240   2.733   8.088  2.3631  0.7215 -1.9388
 3208SOL     OW11074   4.000   5.589   1.359 -0.2390 -0.0696  0.2587
 3208SOL    HW111075   3.968   5.499   1.365  0.8048 -0.4003  1.3467
 3208SOL    HW211076   4.093   5.582   1.379  0.4276  0.9251 -2.2068
 3209SOL     OW11077   1.232   6.846   8.975  0.3930 -0.0128  0.1175
 3209SOL    HW111078   1.245   6.933   9.011 -0.4085  1.4243 -2.7703
 3209SOL    HW211079   1.266   6.787   9.042  2.2812  2.5448  1.5951
 3210SOL     OW11080   2.379   4.806   3.141 -0.3216  0.7963 -0.8644
 3210SOL    HW111081   2.469   4.818   3.173 -0.0424 -0.9798 -0.8566
 3210SOL    HW211082   2.327   4.796   3.221 -0.1494 -0.3364 -0.8702
 3211SOL     OW11083   7.442   4.023   2.612 -0.1807 -0.6378 -0.1796
 3211SOL    HW111084   7.388   4.059   2.683 -0.6701  0.8206 -1.2565
 3211SOL    HW211085   7.509   4.089   2.597  1.7015 -2.2059  0.8044
 3212SOL     OW11086   2.110   8.111   2.458  0.3760  0.2521  0.4413
 3212SOL    HW111087   2.140   8.032   2.413 -0.2768  0.6514 -0.7338
 3212SOL    HW211088   2.132   8.096   2.550 -2.3356 -2.5862  0.7846
 3213SOL     OW11089   7.384   6.044   4.875 -0.0250  0.3569  0.1343
 3213SOL    HW111090   7.437   5.999   4.809 -0.7218  0.2774 -0.3733
 3213SOL    HW211091   7.301   6.061   4.832 -1.0264 -0.9859  1.4419
 3214SOL     OW11092   4.353   5.042   0.990  0.3562 -0.4681  0.2863
 3214SOL    HW111093   4.429   5.100   0.998  0.7845 -1.0089  0.1448
 3214SOL    HW211094   4.291   5.076   1.055  0.2963  0.6081 -0.3080
 3215SOL     OW11095   6.041   3.315   8.930 -0.3701 -0.4148  0.4283
 3215SOL    HW111096   5.960   3.300   8.883 -0.9961 -0.0787  1.3754
 3215SOL    HW211097   6.053   3.410   8.929  0.3722 -0.4964 -0.2699
 3216SOL     OW11098   1.756   1.283   4.593 -0.5273 -0.0638 -1.1648
 3216SOL    HW111099   1.696   1.212   4.570 -0.6292 -0.0243 -1.0236
 3216SOL    HW211100   1.842   1.242   4.594 -0.7324 -0.5077  0.2616
 3217SOL     OW11101   9.031   1.569   6.432 -0.2372 -0.3255 -0.9052
 3217SOL    HW111102   9.088   1.637   6.394 -0.1864  0.2663  0.1965
 3217SOL    HW211103   9.041   1.579   6.526 -1.6146 -0.6919 -0.6973
 3218SOL     OW11104   2.097   5.779   8.661 -0.3541 -0.1319  0.0568
 3218SOL    HW111105   2.072   5.737   8.579 -2.0349  1.2798 -0.2232
 3218SOL    HW211106   2.042   5.858   8.665  1.6290  1.2818  1.2241
 3219SOL     OW11107   4.368   1.314   8.668  0.1812 -0.0346 -0.7357
 3219SOL    HW111108   4.272   1.316   8.662  0.1192  0.7049  0.2455
 3219SOL    HW211109   4.398   1.322   8.578 -0.6707  0.9669 -0.9505
 3220SOL     OW11110   5.417   4.602   1.332  0.1063 -0.0450 -0.0882
 3220SOL    HW111111   5.407   4.689   1.293  0.5450 -1.0433 -2.6288
 3220SOL    HW211112   5.331   4.583   1.369 -0.6685  0.6388 -1.4216
 3221SOL     OW11113   3.593   1.066   4.481 -0.5013  0.2062 -0.4198
 3221SOL    HW111114   3.580   1.054   4.387 -1.6937  3.2678 -0.7728
 3221SOL    HW211115   3.608   1.160   4.492  0.3210 -0.1440  2.4056
 3222SOL     OW11116   8.800   8.269   4.389  0.5738  0.3227 -0.1172
 3222SOL    HW111117   8.834   8.359   4.395  1.8208 -0.1669  0.6126
 3222SOL    HW211118   8.875   8.218   4.357  0.0464 -0.5435  0.0102
 3223SOL     OW11119   1.786   2.461   8.962  0.3844  0.2758  0.8728
 3223SOL    HW111120   1.704   2.455   8.913  0.6677  0.5044  0.3755
 3223SOL    HW211121   1.847   2.405   8.915  1.0312  1.5011  0.2038
 3224SOL     OW11122   6.725   4.556   5.531 -0.2061  0.5507  0.1290
 3224SOL    HW111123   6.681   4.551   5.616 -0.3714 -0.6033 -0.0107
 3224SOL    HW211124   6.702   4.643   5.497 -1.5874  0.3482  0.4936
 3225SOL     OW11125   3.103   5.301   2.955  0.5309 -0.1582 -0.1449
 3225SOL    HW111126   3.190   5.331   2.983  0.9545 -0.3322 -1.2251
 3225SOL    HW211127   3.096   5.213   2.991  1.2816 -0.5764 -0.9688
 3226SOL     OW11128   5.649   1.946   0.300  0.4619 -0.4557  0.0451
 3226SOL    HW111129   5.594   1.867   0.300  0.5829 -0.5428  0.8768
 3226SOL    HW211130   5.718   1.927   0.363  1.9718 -0.6866 -1.5895
 3227SOL     OW11131   0.384   2.606   1.629  0.1123 -0.5822 -0.0143
 3227SOL    HW111132   0.461   2.550   1.624  0.5173 -0.1676  1.2337
 3227SOL    HW211133   0.411   2.679   1.685 -0.0789  1.3737 -2.2942
 3228SOL     OW11134   4.319   7.137   5.592 -0.0186 -0.3920  0.3458
 3228SOL    HW111135   4.275   7.216   5.623  0.4204  0.4535 -1.0955
 3228SOL    HW211136   4.276   7.066   5.639 -1.5263  0.5724  0.5055
 3229SOL     OW11137   9.072   7.454   0.260  0.1696  0.1480 -0.0148
 3229SOL    HW111138   8.986   7.425   0.232  0.4164 -0.4867 -0.1117
 3229SOL    HW211139   9.071   7.549   0.247 -1.1066  0.3868  1.5526
 3230SOL     OW11140   0.875   8.463   7.341 -0.2786  0.2504  0.2029
 3230SOL    HW111141   0.794   8.444   7.389  0.0786  1.0951  1.1602
 3230SOL    HW211142   0.853   8.537   7.285 -0.1525  0.5207  0.5100
 3231SOL     OW11143   8.112   7.394   5.106 -0.1206 -0.0519  0.0888
 3231SOL    HW111144   8.177   7.392   5.036  1.7033 -1.1222  1.7118
 3231SOL    HW211145   8.093   7.302   5.125 -1.5025  0.2335  0.2083
 3232SOL     OW11146   7.188   5.244   7.716 -0.0446 -0.0656 -0.2677
 3232SOL    HW111147   7.132   5.317   7.690  1.4899  1.0210 -0.6829
 3232SOL    HW211148   7.272   5.285   7.737  1.3437 -1.8276 -1.9640
 3233SOL     OW11149   9.031   0.082   3.511 -0.6088 -0.0022  0.3227
 3233SOL    HW111150   9.123   0.057   3.523 -0.2344  0.1672 -1.7706
 3233SOL    HW211151   9.030   0.177   3.523 -0.5523 -0.0291  0.5453
 3234SOL     OW11152   1.156   2.207   8.711 -0.3250  0.6054  0.2091
 3234SOL    HW111153   1.094   2.139   8.739 -1.2386  1.4322  0.2459
 3234SOL    HW211154   1.185   2.178   8.625 -0.2207 -0.1517  0.4944
 3235SOL     OW11155   7.066   3.679   5.552 -0.0551 -0.2064 -0.8814
 3235SOL    HW111156   7.089   3.642   5.467  0.6219 -0.3537 -0.6399
 3235SOL    HW211157   7.037   3.768   5.532 -0.7413 -0.5265 -1.3553
 3236SOL     OW11158   1.388   5.420   4.976 -0.5082  0.2989  0.6987
 3236SOL    HW111159   1.402   5.372   4.894  4.1854  1.1837  0.6774
 3236SOL    HW211160   1.389   5.352   5.043 -0.6583 -0.1431  0.2658
 3237SOL     OW11161   8.131   1.827   7.744  0.1807 -0.0726  0.4364
 3237SOL    HW111162   8.225   1.836   7.759  0.0549  2.5991  0.0294
 3237SOL    HW211163   8.095   1.803   7.830  1.0966  0.1795  0.9023
 3238SOL     OW11164   4.087   5.375   9.264  0.9321 -0.0078 -0.0801
 3238SOL    HW111165   4.022   5.437   9.231 -1.1386 -0.7960  2.2389
 3238SOL    HW211166   4.082   5.300   9.204 -0.4631 -0.1371  0.1735
 3239SOL     OW11167   5.758   9.241   0.105 -0.1546 -1.0290  0.5028
 3239SOL    HW111168   5.749   9.156   0.149 -0.9220 -1.0785  0.2554
 3239SOL    HW211169   5.673   9.257   0.065  0.5587 -1.0659 -1.1167
 3240SOL     OW11170   6.660   2.363   2.221 -0.0724 -0.0502 -0.1156
 3240SOL    HW111171   6.591   2.376   2.285  1.9066  1.7406  1.8318
 3240SOL    HW211172   6.656   2.441   2.165 -0.6454 -0.7345 -1.0419
 3241SOL     OW11173   1.890   5.736   7.666 -0.5395  0.3374  0.6202
 3241SOL    HW111174   1.972   5.703   7.629 -0.9887 -2.1631  1.6369
 3241SOL    HW211175   1.853   5.791   7.597  0.6523 -0.7371 -0.9643
 3242SOL     OW11176   8.603   8.971   4.388 -0.3611 -0.0649  0.0699
 3242SOL    HW111177   8.534   8.947   4.327  0.1061  0.0635 -0.5161
 3242SOL    HW211178   8.649   8.889   4.408  0.6036  0.1438 -1.1526
 3243SOL     OW11179   2.999   5.002   0.040  0.4687 -0.3524  0.2483
 3243SOL    HW111180   3.073   4.958  -0.000  0.7400 -0.6641  1.0722
 3243SOL    HW211181   2.922   4.959   0.003  0.6953 -0.2654 -0.3391
 3244SOL     OW11182   4.578   1.042   5.930 -0.2299  0.1163 -0.2367
 3244SOL    HW111183   4.586   1.020   6.022  0.6002  0.8285 -0.1187
 3244SOL    HW211184   4.582   0.958   5.884  1.9693 -0.1017  0.2385
 3245SOL     OW11185   1.069   8.362   2.744 -0.0109  0.5012  0.5997
 3245SOL    HW111186   0.981   8.381   2.777  0.4177  2.2726  0.7705
 3245SOL    HW211187   1.122   8.347   2.822  0.0126  0.1946  0.5260
 3246SOL     OW11188   8.564   7.509   1.067 -0.1082  0.2561 -0.7349
 3246SOL    HW111189   8.588   7.601   1.082 -1.4619  0.7596 -1.4892
 3246SOL    HW211190   8.475   7.513   1.033 -0.6489 -1.4405  0.3912
 3247SOL     OW11191   8.277   3.415   8.095  0.0049 -0.1612  0.9237
 3247SOL    HW111192   8.201   3.375   8.052 -0.1170  0.4530  0.5607
 3247SOL    HW211193   8.294   3.495   8.045  1.7740 -0.9873  0.0948
 3248SOL     OW11194   5.163   7.270   5.967  0.0262 -0.1953  0.5170
 3248SOL    HW111195   5.149   7.195   6.025 -1.6532 -0.4357 -0.1504
 3248SOL    HW211196   5.094   7.264   5.901  1.5278  0.3828 -1.2216
 3249SOL     OW11197   9.179   3.649   6.356  0.0458 -0.6029 -0.1855
 3249SOL    HW111198   9.193   3.735   6.316 -0.1225 -0.5299 -0.0917
 3249SOL    HW211199   9.188   3.665   6.450 -2.7839 -0.0798  0.0981
 3250SOL     OW11200   8.857   0.233   4.907 -0.3133 -0.5979  0.3027
 3250SOL    HW111201   8.825   0.241   4.817 -1.8505 -0.7866  0.7969
 3250SOL    HW211202   8.818   0.307   4.953  0.2019 -0.6808  0.8857
 3251SOL     OW11203   4.200   2.471   2.874 -0.2067  0.4845  0.2858
 3251SOL    HW111204   4.115   2.432   2.853  0.5943 -1.6408  0.7838
 3251SOL    HW211205   4.179   2.543   2.934 -1.5302 -1.6018  2.5163
 3252SOL     OW11206   8.737   8.510   0.424  0.0953 -0.0860 -0.2280
 3252SOL    HW111207   8.683   8.465   0.489 -0.2364 -0.6437 -0.8733
 3252SOL    HW211208   8.747   8.446   0.353 -0.1117  0.7342 -1.0193
 3253SOL     OW11209   8.837   7.088   7.769 -0.5250  0.0238 -0.8096
 3253SOL    HW111210   8.891   7.010   7.755  0.1347  0.3532 -0.1751
 3253SOL    HW211211   8.846   7.137   7.687 -2.5234 -1.4442 -2.0129
 3254SOL     OW11212   6.374   5.958   7.564 -0.0973 -0.3278 -0.1540
 3254SOL    HW111213   6.343   5.927   7.649 -0.8445  0.1263 -0.2564
 3254SOL    HW211214   6.416   6.042   7.584 -1.7329  0.5973 -0.4408
 3255SOL     OW11215   7.743   2.420   5.869  0.5298 -0.4417 -0.0964
 3255SOL    HW111216   7.662   2.466   5.850 -0.5806 -0.6546  3.4247
 3255SOL    HW211217   7.807   2.489   5.887 -0.0434 -0.2113  1.1755
 3256SOL     OW11218   0.894   5.550   2.720 -0.2041  0.3520 -0.1137
 3256SOL    HW111219   0.925   5.467   2.684  1.8559  1.1138 -0.1992
 3256SOL    HW211220   0.885   5.608   2.644 -0.7069  0.4929  0.0483
 3257SOL     OW11221   3.449   4.290   1.754  0.5721 -0.0255 -0.4569
 3257SOL    HW111222   3.365   4.247   1.739  1.4098 -2.1542  0.4916
 3257SOL    HW211223   3.426   4.380   1.775 -1.4503 -0.4730 -0.5100
 3258SOL     OW11224   5.919   1.857   4.453 -0.4503  0.4922  0.1816
 3258SOL    HW111225   5.856   1.860   4.526 -1.5595  1.3938 -0.7637
 3258SOL    HW211226   5.998   1.820   4.491 -0.8366  1.3980  1.9844
 3259SOL     OW11227   0.377   1.038   5.260  0.1123  0.4171 -0.0750
 3259SOL    HW111228   0.389   0.964   5.202 -2.5399  0.1375 -0.3898
 3259SOL    HW211229   0.321   1.098   5.212  0.8192  1.8759  0.8291
 3260SOL     OW11230   6.071   7.483   3.104  0.2166 -0.3155  0.8770
 3260SOL    HW111231   6.036   7.444   3.023 -1.7222  1.2635  0.8839
 3260SOL    HW211232   6.166   7.479   3.093  0.0286 -1.4324 -0.8336
 3261SOL     OW11233   4.144   7.379   7.977 -0.2388 -0.1583 -0.3615
 3261SOL    HW111234   4.152   7.474   7.967  1.8840 -0.3452 -1.0469
 3261SOL    HW211235   4.134   7.346   7.888  1.1679 -0.6813 -0.3613
 3262SOL     OW11236   4.381   7.835   1.064  0.2767  0.4341 -0.0989
 3262SOL    HW111237   4.394   7.789   1.147  2.2325  3.0988  1.2398
 3262SOL    HW211238   4.413   7.775   0.997 -0.7540 -1.5400  1.0967
 3263SOL     OW11239   6.805   3.128   7.342  0.2343  0.1219 -0.0889
 3263SOL    HW111240   6.802   3.223   7.340  1.1139  0.1528 -0.2905
 3263SOL    HW211241   6.804   3.103   7.249  2.0022  0.0211 -0.1032
 3264SOL     OW11242   3.326   0.381   2.689 -0.5036 -0.4816  0.1629
 3264SOL    HW111243   3.404   0.325   2.688 -0.0597  0.0983 -1.7989
 3264SOL    HW211244   3.284   0.362   2.773  0.4339 -2.6102  0.2183
 3265SOL     OW11245   0.448   2.955   6.683  0.4520 -0.6162 -0.0715
 3265SOL    HW111246   0.366   2.927   6.723 -0.6695 -0.3896 -2.0891
 3265SOL    HW211247   0.511   2.887   6.706 -0.6526 -1.5243  0.3476
 3266SOL     OW11248   4.577   2.631   4.306 -0.2631 -0.1795  0.1919
 3266SOL    HW111249   4.670   2.615   4.322 -0.5486 -1.5509  0.6085
 3266SOL    HW211250   4.573   2.666   4.217  0.4432 -2.6833 -0.8871
 3267SOL     OW11251   5.191   3.932   2.687 -0.5361 -0.6466  0.2934
 3267SOL    HW111252   5.152   3.897   2.606  0.4404  0.2360 -0.5900
 3267SOL    HW211253   5.189   3.858   2.748 -1.1611 -1.3805 -0.5793
 3268SOL     OW11254   0.367   8.058   3.285  0.0150  0.0090  0.0232
 3268SOL    HW111255   0.306   8.083   3.216 -0.9637 -0.9287  0.5215
 3268SOL    HW211256   0.343   8.113   3.360 -0.4677 -0.6048  0.3286
 3269SOL     OW11257   5.128   7.786   3.271 -0.1312  0.1634  0.1952
 3269SOL    HW111258   5.068   7.820   3.205  0.4426  0.2658 -0.2799
 3269SOL    HW211259   5.215   7.794   3.231  0.0934 -1.0897  0.3860
 3270SOL     OW11260   1.475   0.045   7.052 -0.1325 -0.5720  0.3141
 3270SOL    HW111261   1.436  -0.020   6.993  0.6234 -0.7742  0.0374
 3270SOL    HW211262   1.488   0.122   6.997  1.9151 -1.2197 -0.1935
 3271SOL     OW11263   4.354   5.575   3.059  0.0084 -0.6889  0.9714
 3271SOL    HW111264   4.394   5.528   3.132  0.6889 -1.0936  0.3473
 3271SOL    HW211265   4.418   5.642   3.035  0.2688 -1.2497  0.0544
 3272SOL     OW11266   3.846   4.693   2.459  0.2110 -0.5533 -0.2289
 3272SOL    HW111267   3.873   4.602   2.474 -0.0649 -0.8772 -1.5702
 3272SOL    HW211268   3.802   4.691   2.374 -1.1400  0.5680  0.4060
 3273SOL     OW11269   2.050   8.334   1.447 -0.0619 -0.1201  0.1745
 3273SOL    HW111270   2.130   8.338   1.501  0.5492 -0.4166 -0.6970
 3273SOL    HW211271   1.994   8.401   1.485  0.5819  0.0769  0.8269
 3274SOL     OW11272   4.918   7.769   0.016 -0.2099  0.0160 -0.3999
 3274SOL    HW111273   4.893   7.821  -0.060  0.3315  0.1090 -0.5178
 3274SOL    HW211274   4.933   7.681  -0.020  2.1564  0.5187 -0.8119
 3275SOL     OW11275   5.661   5.661   3.045  0.5404 -0.5024  0.0702
 3275SOL    HW111276   5.570   5.631   3.048  1.0501 -2.0226  1.2692
 3275SOL    HW211277   5.674   5.705   3.130  1.6718 -2.7114  1.1119
 3276SOL     OW11278   3.061   4.947   1.706 -0.2347  0.3377  0.7109
 3276SOL    HW111279   3.006   4.870   1.693 -0.4125  0.5649  0.0426
 3276SOL    HW211280   3.035   5.007   1.635  0.2252  0.8199  0.9405
 3277SOL     OW11281   7.506   5.520   5.751  0.6910  0.1954 -0.2360
 3277SOL    HW111282   7.445   5.539   5.679 -0.3556 -0.1927  0.5220
 3277SOL    HW211283   7.572   5.589   5.744 -0.1048  0.9366 -0.7859
 3278SOL     OW11284   6.875   3.217   4.227  0.2550 -0.3951  0.0662
 3278SOL    HW111285   6.849   3.149   4.290  0.2973  0.2657  0.8095
 3278SOL    HW211286   6.953   3.257   4.266  0.7175 -0.4695 -0.7765
 3279SOL     OW11287   4.200   0.725   6.393  0.1556  0.3917  0.7809
 3279SOL    HW111288   4.206   0.630   6.392  2.5747  0.4742 -1.1054
 3279SOL    HW211289   4.229   0.750   6.481  0.8696 -0.5767  0.8344
 3280SOL     OW11290   8.319   9.060   8.067 -0.3968  0.1511 -0.5297
 3280SOL    HW111291   8.339   9.153   8.081 -0.7975  0.5336 -2.2742
 3280SOL    HW211292   8.379   9.013   8.125 -0.4325  1.4993  0.6424
 3281SOL     OW11293   2.276   7.164   9.164  0.4155 -0.3218 -0.3283
 3281SOL    HW111294   2.354   7.148   9.111 -0.1899 -2.2871 -0.7231
 3281SOL    HW211295   2.295   7.120   9.247 -0.1415 -0.5540 -0.3200
 3282SOL     OW11296   6.840   3.800   4.475  0.2687 -0.4386 -0.1771
 3282SOL    HW111297   6.922   3.837   4.442 -0.0622  0.6795  0.1948
 3282SOL    HW211298   6.780   3.875   4.481 -0.7644 -1.2200 -0.3797
 3283SOL     OW11299   4.183   1.072   1.494 -0.4096 -0.1228 -0.7393
 3283SOL    HW111300   4.192   1.140   1.427 -3.5436 -0.2809 -1.4784
 3283SOL    HW211301   4.185   0.990   1.446  2.0778 -0.5899  0.0108
 3284SOL     OW11302   0.089   7.945   6.285 -0.0847 -0.2561 -0.1749
 3284SOL    HW111303   0.079   7.915   6.195 -2.2986 -3.1254  0.8510
 3284SOL    HW211304   0.156   7.889   6.322 -0.2836 -0.1397  0.3673
 3285SOL     OW11305   7.953   3.456   9.118 -0.4007  0.1491  0.5853
 3285SOL    HW111306   8.015   3.516   9.159  1.5266 -1.7501  0.6665
 3285SOL    HW211307   7.892   3.512   9.070  0.8923  2.1547  1.1881
 3286SOL     OW11308   5.935   8.299   8.480 -0.0267 -0.3702 -0.1040
 3286SOL    HW111309   5.863   8.358   8.458 -0.9603 -1.3258  0.3022
 3286SOL    HW211310   6.005   8.322   8.418 -0.6921  0.5385 -0.5382
 3287SOL     OW11311   0.573   7.618   1.582  0.1078  0.3337  0.2520
 3287SOL    HW111312   0.536   7.574   1.506  1.1350 -0.8120  0.3851
 3287SOL    HW211313   0.497   7.643   1.635 -0.5511 -0.2311 -0.4117
 3288SOL     OW11314   3.607   7.327   6.267 -0.4862  0.7710 -0.2355
 3288SOL    HW111315   3.698   7.323   6.239 -0.0677 -0.0835  1.1634
 3288SOL    HW211316   3.562   7.262   6.211  0.5424 -1.7358  1.6595
 3289SOL     OW11317   5.755   0.058   1.630  0.1879 -0.8862 -0.4207
 3289SOL    HW111318   5.752  -0.015   1.569 -2.5003 -0.5356 -0.8162
 3289SOL    HW211319   5.738   0.018   1.716  0.6302 -0.9432 -0.3552
 3290SOL     OW11320   0.420   4.715   5.740 -0.1593  0.1521 -0.4501
 3290SOL    HW111321   0.432   4.689   5.649  0.1281 -2.1828  0.1639
 3290SOL    HW211322   0.507   4.704   5.779 -0.5725 -0.2610  0.3819
 3291SOL     OW11323   1.432   6.616   6.227 -0.2613  0.2617 -0.1506
 3291SOL    HW111324   1.370   6.674   6.184 -2.7327 -1.5295  0.7721
 3291SOL    HW211325   1.495   6.593   6.158 -1.4854  0.9805 -1.5659
 3292SOL     OW11326   5.027   8.317   0.580  0.1645 -0.6624  0.5648
 3292SOL    HW111327   5.050   8.241   0.527  1.4686 -0.1865  0.4130
 3292SOL    HW211328   5.110   8.362   0.594 -0.8437  1.8548 -1.0516
 3293SOL     OW11329   1.805   6.493   4.802 -0.2836 -0.3763  0.0742
 3293SOL    HW111330   1.826   6.580   4.834 -2.4868  0.2123  0.0927
 3293SOL    HW211331   1.879   6.468   4.747 -0.0779  1.9613 -0.8031
 3294SOL     OW11332   4.219   6.547   6.021  0.8143  0.0332  0.0202
 3294SOL    HW111333   4.179   6.583   6.100  0.5697 -1.3213  0.5345
 3294SOL    HW211334   4.172   6.466   6.005  1.8851 -0.4879 -0.6241
 3295SOL     OW11335   6.873   8.747   7.353  0.1523 -0.2807  0.7756
 3295SOL    HW111336   6.822   8.689   7.297 -0.2204 -0.2570  1.0883
 3295SOL    HW211337   6.886   8.697   7.434 -2.0250  0.8569  1.8935
 3296SOL     OW11338   5.133   7.020   3.720  0.2755 -0.1019  0.1705
 3296SOL    HW111339   5.074   7.011   3.645 -0.4067  1.3779  0.4759
 3296SOL    HW211340   5.215   6.980   3.692 -0.1206 -0.0057 -1.1845
 3297SOL     OW11341   3.796   2.268   7.626 -0.5291 -0.5947 -0.0849
 3297SOL    HW111342   3.823   2.186   7.668 -1.8201 -1.1719 -0.3377
 3297SOL    HW211343   3.719   2.244   7.574 -1.4900  0.9367  0.5532
 3298SOL     OW11344   5.926   8.335   0.398  0.5694 -0.0369 -0.4325
 3298SOL    HW111345   5.994   8.341   0.332 -0.2786  2.2391 -1.2096
 3298SOL    HW211346   5.972   8.346   0.481  1.2293  0.8548 -0.9052
 3299SOL     OW11347   9.121   0.750   2.278  0.2517 -0.1640 -0.4672
 3299SOL    HW111348   9.208   0.791   2.281 -0.0937  0.5969 -0.7585
 3299SOL    HW211349   9.061   0.822   2.262 -0.2950 -0.8842 -1.7889
 3300SOL     OW11350   4.898   0.221   6.652 -0.5392  0.0432  0.1341
 3300SOL    HW111351   4.951   0.220   6.732 -0.5277 -0.5198  0.1238
 3300SOL    HW211352   4.812   0.190   6.680  0.3887 -3.7727 -0.6739
 3301SOL     OW11353   7.167   5.165   4.609  0.2490  0.0288  0.0912
 3301SOL    HW111354   7.101   5.106   4.572 -0.6210  0.4313  0.9540
 3301SOL    HW211355   7.178   5.234   4.543  0.7364 -0.6941 -0.6004
 3302SOL     OW11356   4.682   4.776   4.353  0.5325  0.1917  0.2701
 3302SOL    HW111357   4.745   4.810   4.290  2.0608 -0.0459  1.6071
 3302SOL    HW211358   4.673   4.683   4.331  2.2754 -0.2662  1.3125
 3303SOL     OW11359   0.997   8.899   1.775 -0.5138 -0.4940 -0.4873
 3303SOL    HW111360   1.076   8.951   1.789 -1.9759  2.0144 -0.9595
 3303SOL    HW211361   0.953   8.899   1.860 -0.4164 -1.1799 -0.4320
 3304SOL     OW11362   8.714   5.072   6.910  0.5986  0.5370  0.4266
 3304SOL    HW111363   8.704   5.071   6.815  0.8515  1.2006  0.3893
 3304SOL    HW211364   8.649   5.135   6.941  0.4053  0.2004  0.7071
 3305SOL     OW11365   1.073   3.046   1.514 -0.2105  0.0815  0.7366
 3305SOL    HW111366   1.136   3.108   1.477 -1.8684 -0.1172 -2.7402
 3305SOL    HW211367   0.992   3.096   1.522 -0.6787 -0.7444  1.2373
 3306SOL     OW11368   6.321   6.204   1.037  0.2180 -0.3047  0.1744
 3306SOL    HW111369   6.318   6.244   1.124  1.0679  1.6307 -0.6270
 3306SOL    HW211370   6.308   6.277   0.977  0.9021 -1.3974 -1.3563
 3307SOL     OW11371   6.072   2.377   6.756  0.0393 -0.1181 -0.1244
 3307SOL    HW111372   6.016   2.343   6.826 -0.4616 -1.0522 -0.9459
 3307SOL    HW211373   6.064   2.312   6.686  1.1963  0.3629 -0.7243
 3308SOL     OW11374   5.256   3.065   0.122 -0.5778  0.2817  0.5687
 3308SOL    HW111375   5.233   2.989   0.070  4.0802 -0.4547 -0.7858
 3308SOL    HW211376   5.231   3.140   0.068 -1.2998 -0.3359  0.0307
 3309SOL     OW11377   7.294   7.948   3.584 -0.1418  0.2280  0.1749
 3309SOL    HW111378   7.232   7.938   3.511  0.6816  1.3991 -0.7417
 3309SOL    HW211379   7.253   8.014   3.641  0.7279  1.9221 -1.0529
 3310SOL     OW11380   1.196   0.347   7.149  0.8031  0.0018  0.3836
 3310SOL    HW111381   1.131   0.391   7.204 -1.4146 -1.6598 -0.7261
 3310SOL    HW211382   1.242   0.417   7.104 -0.7910  1.2558  0.6177
 3311SOL     OW11383   6.757   8.934   1.355 -0.4809 -0.3974  0.3153
 3311SOL    HW111384   6.798   9.002   1.301 -0.1727 -1.1245 -0.3745
 3311SOL    HW211385   6.825   8.909   1.417 -0.8436  0.4579  1.0785
 3312SOL     OW11386   7.758   1.661   7.111  0.1270 -0.1283 -0.3380
 3312SOL    HW111387   7.689   1.708   7.063 -0.1894 -1.2568 -1.0215
 3312SOL    HW211388   7.737   1.676   7.203 -1.2393 -0.7235 -0.5311
 3313SOL     OW11389   2.163   5.974   9.224 -0.8153 -0.1233 -0.4548
 3313SOL    HW111390   2.180   5.931   9.140 -4.8498 -0.2406 -1.3704
 3313SOL    HW211391   2.194   5.911   9.290  1.5118 -0.4426 -1.7265
 3314SOL     OW11392   8.107   1.598   9.127 -0.0964 -0.3891  0.3878
 3314SOL    HW111393   8.105   1.691   9.149  1.4454 -0.6043  1.6307
 3314SOL    HW211394   8.019   1.579   9.095 -1.0372  1.0769  1.9118
 3315SOL     OW11395   7.657   6.267   6.880 -0.2620 -0.0933 -0.0160
 3315SOL    HW111396   7.702   6.239   6.960  1.4440  0.2482 -0.8003
 3315SOL    HW211397   7.667   6.193   6.820 -1.1188 -0.1617 -0.0841
 3316SOL     OW11398   4.013   9.260   9.054 -0.4084 -0.0262  0.2744
 3316SOL    HW111399   4.073   9.207   9.107 -1.5003  0.8141  2.5170
 3316SOL    HW211400   4.024   9.349   9.088 -0.2841  0.8015 -1.8190
 3317SOL     OW11401   1.528   4.230   0.229 -0.0790  0.0077  0.7332
 3317SOL    HW111402   1.520   4.138   0.201  0.7061 -0.8728  3.1736
 3317SOL    HW211403   1.443   4.250   0.268 -0.0005  0.1057  0.8506
 3318SOL     OW11404   3.149   0.326   4.622  0.3924 -0.0689  0.1395
 3318SOL    HW111405   3.087   0.264   4.662 -2.9550  2.1003 -1.2548
 3318SOL    HW211406   3.162   0.293   4.533  0.8192 -0.1963  0.2451
 3319SOL     OW11407   4.774   2.758   7.536 -0.1947  0.0259 -0.1925
 3319SOL    HW111408   4.802   2.750   7.627  0.2138 -0.0806 -0.3254
 3319SOL    HW211409   4.725   2.840   7.533 -1.1955 -0.5262  0.3694
 3320SOL     OW11410   7.344   9.221   4.144 -0.2686 -0.2341 -0.2354
 3320SOL    HW111411   7.256   9.239   4.111 -1.4200  1.8862  3.4289
 3320SOL    HW211412   7.330   9.163   4.219  1.2074  1.5300  1.5018
 3321SOL     OW11413   5.335   2.672   1.198 -0.9782  0.0283  0.2467
 3321SOL    HW111414   5.382   2.714   1.126 -0.9786 -0.1692  0.1311
 3321SOL    HW211415   5.372   2.584   1.203  1.4482  1.0444  2.6640
 3322SOL     OW11416   0.238   1.356   6.403 -0.0202  0.0427 -0.1065
 3322SOL    HW111417   0.328   1.338   6.376 -0.2635 -0.7837 -0.4081
 3322SOL    HW211418   0.203   1.411   6.333  0.1507  0.0928 -0.1535
 3323SOL     OW11419   5.390   6.213   1.839 -0.3708  0.1991  0.0302
 3323SOL    HW111420   5.395   6.236   1.747 -2.5721 -0.6997 -0.3702
 3323SOL    HW211421   5.438   6.282   1.884 -1.0109  1.7936 -1.6313
 3324SOL     OW11422   7.067   6.076   7.049 -0.1846 -0.1748 -0.2062
 3324SOL    HW111423   6.996   6.023   7.085 -0.4089 -0.2198 -0.7201
 3324SOL    HW211424   7.078   6.044   6.960 -0.6777  1.0026 -0.7008
 3325SOL     OW11425   2.596   9.153   0.344  0.1618 -0.0993  0.0843
 3325SOL    HW111426   2.634   9.118   0.264 -0.9020 -0.7820 -0.1510
 3325SOL    HW211427   2.519   9.098   0.360 -1.6609  2.1708 -0.3669
 3326SOL     OW11428   1.032   2.501   6.871  0.1545 -0.3401  0.3257
 3326SOL    HW111429   0.944   2.537   6.881  1.3445  3.4517 -0.8485
 3326SOL    HW211430   1.084   2.543   6.940  1.8593  1.2146 -1.7430
 3327SOL     OW11431   7.582   8.874   6.960  0.5951 -0.6123  0.0366
 3327SOL    HW111432   7.636   8.951   6.973 -0.6783  0.6543 -1.7549
 3327SOL    HW211433   7.510   8.883   7.022 -0.7084  0.8382 -1.5775
 3328SOL     OW11434   2.574   7.645   6.135 -0.5334  0.4487  0.3724
 3328SOL    HW111435   2.559   7.572   6.195  2.2519 -1.6657 -1.2714
 3328SOL    HW211436   2.649   7.692   6.172 -0.0747  0.3270 -0.3861
 3329SOL     OW11437   1.152   5.279   5.579 -0.4005 -0.2104 -0.1930
 3329SOL    HW111438   1.204   5.342   5.629 -0.8221  0.2637 -0.3408
 3329SOL    HW211439   1.148   5.317   5.491 -1.2177 -0.0978 -0.1141
 3330SOL     OW11440   5.182   1.187   7.292 -0.0821 -0.1677 -0.5031
 3330SOL    HW111441   5.178   1.163   7.199  0.6705  0.8808 -0.8232
 3330SOL    HW211442   5.175   1.282   7.292 -0.8867 -0.2085  0.5844
 3331SOL     OW11443   3.623   8.680   2.845 -0.3822  0.2994 -0.2481
 3331SOL    HW111444   3.616   8.754   2.906  0.9226 -1.0694  1.6741
 3331SOL    HW211445   3.551   8.622   2.870  1.0973 -1.0315  1.2098
 3332SOL     OW11446   8.057   0.406   0.050  0.2437  0.0839  0.2689
 3332SOL    HW111447   8.077   0.495   0.020  0.5025 -0.8974 -2.8861
 3332SOL    HW211448   7.961   0.402   0.047  0.1420  0.5902  1.7473
 3333SOL     OW11449   1.209   7.201   6.947  0.1170 -0.3263 -0.6089
 3333SOL    HW111450   1.302   7.211   6.928 -0.3586  1.2519 -2.3519
 3333SOL    HW211451   1.196   7.253   7.027  0.8081 -1.0726  0.0128
 3334SOL     OW11452   7.165   4.486   7.207  0.2884 -0.0116  0.4243
 3334SOL    HW111453   7.222   4.543   7.259 -0.2920  0.7494  0.2493
 3334SOL    HW211454   7.080   4.528   7.210 -0.0631 -0.6637 -0.0540
 3335SOL     OW11455   1.262   5.932   2.545  0.1368  0.1888  0.2425
 3335SOL    HW111456   1.209   5.923   2.625  0.3491  0.3533  0.4021
 3335SOL    HW211457   1.274   5.842   2.515  0.1376  0.1171  0.4533
 3336SOL     OW11458   3.218   0.680   6.279 -0.6608  0.7657 -0.3562
 3336SOL    HW111459   3.235   0.617   6.209  0.0798  0.2045  0.3042
 3336SOL    HW211460   3.187   0.759   6.234  0.0121  0.4908 -1.3345
 3337SOL     OW11461   3.003   2.172   2.796 -0.1544 -0.2275 -0.3841
 3337SOL    HW111462   3.040   2.203   2.879  0.2855  0.6589 -0.8967
 3337SOL    HW211463   2.911   2.200   2.799 -0.3130 -0.7715  0.0732
 3338SOL     OW11464   5.407   1.374   2.562 -0.0324 -0.2202  0.1911
 3338SOL    HW111465   5.423   1.339   2.475 -1.8832 -0.2521 -0.1759
 3338SOL    HW211466   5.456   1.316   2.620 -0.7776 -1.7631 -0.6424
 3339SOL     OW11467   8.846   6.183   7.846 -0.0389 -0.3394 -0.0328
 3339SOL    HW111468   8.925   6.142   7.881  0.0947 -1.2578 -1.3442
 3339SOL    HW211469   8.836   6.146   7.759 -0.2648  1.9846 -1.0718
 3340SOL     OW11470   4.397   0.709   8.162 -0.3317 -0.2222 -0.0561
 3340SOL    HW111471   4.326   0.681   8.219 -0.6938 -0.7548 -0.7534
 3340SOL    HW211472   4.383   0.802   8.148 -0.6345 -0.2360  0.1635
 3341SOL     OW11473   2.976   1.845   7.122 -1.2353  0.4839 -0.8451
 3341SOL    HW111474   3.025   1.926   7.134 -1.5804  0.9602 -2.3940
 3341SOL    HW211475   3.041   1.783   7.089 -1.3086  0.6221 -1.2574
 3342SOL     OW11476   1.997   7.056   5.231  0.1680 -0.1956 -0.3294
 3342SOL    HW111477   1.996   7.091   5.320  0.9304 -1.1504  0.0667
 3342SOL    HW211478   2.028   6.966   5.240  0.6459 -0.1891 -1.6078
 3343SOL     OW11479   8.643   7.218   6.869  0.4939 -0.6978  0.6268
 3343SOL    HW111480   8.580   7.255   6.808  1.6117  0.5330  0.1615
 3343SOL    HW211481   8.675   7.294   6.918  2.5638 -1.0613 -0.0743
 3344SOL     OW11482   1.322   4.772   8.498  0.2377 -0.1161  0.4894
 3344SOL    HW111483   1.385   4.842   8.482  1.7613 -1.4641  0.2421
 3344SOL    HW211484   1.262   4.776   8.424 -0.0292  1.2447  0.7619
 3345SOL     OW11485   3.027   4.567   5.970 -0.2171 -0.1201 -0.1921
 3345SOL    HW111486   2.943   4.559   5.925 -0.1871 -0.4241 -0.1942
 3345SOL    HW211487   3.092   4.543   5.905 -0.3112 -3.6819  0.7735
 3346SOL     OW11488   7.594   7.553   4.624 -0.3340  0.4666 -0.5497
 3346SOL    HW111489   7.656   7.520   4.689 -0.8101 -2.1548 -1.3110
 3346SOL    HW211490   7.649   7.591   4.555  0.2812  0.6444  0.0264
 3347SOL     OW11491   6.001   7.683   8.460 -0.3850 -0.5183  0.3915
 3347SOL    HW111492   5.996   7.632   8.379  2.2486  0.4735 -0.4901
 3347SOL    HW211493   6.005   7.774   8.431 -2.8385  0.1605  1.8590
 3348SOL     OW11494   8.635   6.687   0.962  0.4213  0.1311  0.6906
 3348SOL    HW111495   8.627   6.714   1.053 -2.7494 -1.2280  0.9616
 3348SOL    HW211496   8.705   6.621   0.961  1.2308  0.9537  1.8971
 3349SOL     OW11497   3.529   1.693   4.905  0.0467  0.3270 -0.4655
 3349SOL    HW111498   3.452   1.738   4.936  0.0688 -0.3109  0.5670
 3349SOL    HW211499   3.535   1.614   4.959  1.0893  0.0685 -0.9137
 3350SOL     OW11500   2.711   4.594   3.016  0.0281 -0.0690  0.4308
 3350SOL    HW111501   2.636   4.650   2.997 -0.8452 -0.8883  1.3488
 3350SOL    HW211502   2.723   4.541   2.936  0.0138  0.4700  0.0672
 3351SOL     OW11503   3.814   8.728   7.055  0.0067  0.0645  0.3263
 3351SOL    HW111504   3.871   8.700   7.126 -0.8118  1.3370  1.5492
 3351SOL    HW211505   3.848   8.684   6.977  3.0524  1.2556  0.8526
 3352SOL     OW11506   8.981   5.503   2.617 -0.4609 -0.0251  0.5046
 3352SOL    HW111507   8.955   5.482   2.527  0.8303  2.1298 -0.4645
 3352SOL    HW211508   8.899   5.512   2.665 -1.2740  0.8196 -0.9794
 3353SOL     OW11509   1.856   8.046   4.029 -0.6220  0.5230 -0.5118
 3353SOL    HW111510   1.825   7.976   4.086  1.2728 -0.6717 -0.8477
 3353SOL    HW211511   1.862   8.005   3.942 -0.0424  1.2703 -0.8388
 3354SOL     OW11512   9.025   7.011   2.195  0.3425 -0.4829  0.0599
 3354SOL    HW111513   9.043   6.925   2.157  1.7105  0.8441 -2.5742
 3354SOL    HW211514   8.930   7.021   2.187  0.0297 -2.0544  1.2567
 3355SOL     OW11515   7.727   8.399   1.047 -0.8505  0.4578 -0.2053
 3355SOL    HW111516   7.657   8.387   1.112 -0.0406  2.4080  1.1304
 3355SOL    HW211517   7.686   8.377   0.963 -2.2542 -1.0574  0.8256
 3356SOL     OW11518   4.231   2.761   7.713 -0.0193 -0.6107 -0.2269
 3356SOL    HW111519   4.268   2.673   7.722 -0.5631 -0.9189 -0.9441
 3356SOL    HW211520   4.305   2.820   7.727  0.4806 -1.1972 -0.3840
 3357SOL     OW11521   4.780   5.491   5.907  0.2659 -0.1518  0.2246
 3357SOL    HW111522   4.718   5.537   5.964 -0.6589 -0.3533 -0.5945
 3357SOL    HW211523   4.766   5.398   5.925 -0.3180 -0.2345 -0.5994
 3358SOL     OW11524   7.282   4.124   2.807  0.5633 -0.3338 -0.4704
 3358SOL    HW111525   7.245   4.045   2.845  2.5458 -1.8488 -1.4973
 3358SOL    HW211526   7.328   4.167   2.880  1.9198 -1.7112 -0.4469
 3359SOL     OW11527   3.882   6.562   3.751 -0.0281  0.4388 -0.0189
 3359SOL    HW111528   3.828   6.506   3.695 -0.1585  1.0751 -0.5419
 3359SOL    HW211529   3.958   6.584   3.697 -0.1720  1.0885  0.0357
 3360SOL     OW11530   7.358   7.373   8.293  0.0151 -0.1374  0.1440
 3360SOL    HW111531   7.390   7.403   8.378  0.3214 -2.1232  0.7767
 3360SOL    HW211532   7.282   7.428   8.276 -1.2977 -1.0138  2.6915
 3361SOL     OW11533   6.078   7.283   4.915  0.0058 -0.1188 -0.0455
 3361SOL    HW111534   6.110   7.218   4.852  1.3532  0.3492  0.1208
 3361SOL    HW211535   6.157   7.329   4.943 -0.5864 -0.2018  1.8607
 3362SOL     OW11536   9.147   0.867   3.281 -0.3886  0.1023  0.1523
 3362SOL    HW111537   9.177   0.776   3.275 -0.5035  0.0117  0.8533
 3362SOL    HW211538   9.225   0.917   3.305 -0.3748  0.1589 -0.0062
 3363SOL     OW11539   8.260   9.184   4.972  0.2761  0.6277  0.2118
 3363SOL    HW111540   8.180   9.133   4.960 -0.0791  0.8234  1.5932
 3363SOL    HW211541   8.259   9.247   4.900  0.6077 -1.0950 -1.4087
 3364SOL     OW11542   7.093   5.572   7.135 -0.2447 -0.1670 -0.6892
 3364SOL    HW111543   7.021   5.609   7.084 -1.8361 -1.1213  0.7770
 3364SOL    HW211544   7.125   5.645   7.188 -1.0803 -0.0647 -0.3136
 3365SOL     OW11545   3.575   5.618   5.650  1.1598 -0.2996 -0.0905
 3365SOL    HW111546   3.561   5.527   5.674 -0.3221 -0.1254 -0.1902
 3365SOL    HW211547   3.577   5.617   5.554 -0.3185 -0.0625 -0.1427
 3366SOL     OW11548   7.174   0.928   2.100 -0.0676 -0.8011 -0.3151
 3366SOL    HW111549   7.128   1.011   2.115  2.5019  0.8200 -0.7751
 3366SOL    HW211550   7.162   0.879   2.181 -0.3237  0.7145  0.6168
 3367SOL     OW11551   2.459   1.129   9.260 -0.3775 -0.2323 -0.7209
 3367SOL    HW111552   2.451   1.200   9.196  1.7832  0.3375 -0.4314
 3367SOL    HW211553   2.551   1.132   9.287 -0.3201 -2.9023 -0.4084
 3368SOL     OW11554   0.687   2.160   4.610  0.0208  0.4570  0.5028
 3368SOL    HW111555   0.687   2.216   4.688 -0.6310  0.9095  0.1874
 3368SOL    HW211556   0.761   2.101   4.623  1.1207  1.7840  0.5718
 3369SOL     OW11557   2.952   8.261   1.351  0.4413  0.1254 -0.1409
 3369SOL    HW111558   2.910   8.290   1.431  0.2679  0.2110 -0.2622
 3369SOL    HW211559   2.919   8.172   1.338 -0.2561  0.4477 -0.6152
 3370SOL     OW11560   4.736   0.562   9.029  0.0734 -0.5210  0.3413
 3370SOL    HW111561   4.657   0.611   9.050  0.6022  0.6320 -0.2816
 3370SOL    HW211562   4.767   0.529   9.114 -0.4937 -0.0980  0.7218
 3371SOL     OW11563   0.608   9.014   8.747  0.5129 -0.5523  0.2572
 3371SOL    HW111564   0.620   8.960   8.825  0.1944 -1.0241 -0.0099
 3371SOL    HW211565   0.673   9.084   8.755 -0.2962  0.0731  1.5152
 3372SOL     OW11566   1.800   8.536   3.089  0.1024  0.0667 -0.9289
 3372SOL    HW111567   1.790   8.630   3.074 -0.9791  0.3428  1.1616
 3372SOL    HW211568   1.868   8.528   3.155  0.0235 -0.6019 -0.9118
 3373SOL     OW11569   6.969   9.276   7.351 -0.5887 -0.3323 -0.3326
 3373SOL    HW111570   6.954   9.296   7.443 -1.7934 -1.7978 -0.1752
 3373SOL    HW211571   7.063   9.255   7.346 -0.4098  0.2388  0.4504
 3374SOL     OW11572   6.310   4.815   0.087  0.6185  0.6803  0.2412
 3374SOL    HW111573   6.352   4.894   0.121  0.5596  1.1453 -0.7510
 3374SOL    HW211574   6.220   4.820   0.119  0.4626  1.3027 -0.2771
 3375SOL     OW11575   6.780   1.853   9.240  0.2868 -0.4467  0.4112
 3375SOL    HW111576   6.713   1.794   9.273  0.7497 -1.8967 -1.1211
 3375SOL    HW211577   6.833   1.874   9.317 -0.8610 -0.6886  1.2932
 3376SOL     OW11578   7.358   8.810   3.177  0.0784 -0.2172  0.7947
 3376SOL    HW111579   7.349   8.715   3.182 -2.0620 -0.2845 -2.1107
 3376SOL    HW211580   7.376   8.828   3.085  4.0510  2.0837  1.7738
 3377SOL     OW11581   1.512   8.350   0.877 -0.3880 -0.1743 -0.5979
 3377SOL    HW111582   1.498   8.362   0.783 -0.6477 -0.0031 -0.5365
 3377SOL    HW211583   1.525   8.255   0.887  0.1501 -0.1334 -0.8733
 3378SOL     OW11584   6.492   1.792   7.412  0.1524  0.2351  0.1257
 3378SOL    HW111585   6.581   1.824   7.402  0.6367 -1.0619  0.0093
 3378SOL    HW211586   6.461   1.782   7.322 -0.8017  2.3940  0.1532
 3379SOL     OW11587   5.803   5.656   3.756 -0.6898  0.5501 -0.2991
 3379SOL    HW111588   5.887   5.648   3.711  0.9187 -1.7664  2.7732
 3379SOL    HW211589   5.809   5.740   3.802  0.9070 -0.5123  1.5413
 3380SOL     OW11590   1.785   4.556   5.568  0.1526  0.1128 -0.7656
 3380SOL    HW111591   1.771   4.643   5.530  0.1484  0.1955 -0.5760
 3380SOL    HW211592   1.851   4.515   5.511 -0.9257 -0.3281 -1.7284
 3381SOL     OW11593   1.628   9.233   4.225  0.2516  0.1706  0.0843
 3381SOL    HW111594   1.675   9.163   4.271 -0.4380  0.4960  1.3228
 3381SOL    HW211595   1.595   9.191   4.146 -0.1574 -0.9177  0.8102
 3382SOL     OW11596   4.965   5.348   4.147  0.0793  0.2592 -0.0581
 3382SOL    HW111597   4.964   5.433   4.191 -1.3302  1.2207 -1.7606
 3382SOL    HW211598   5.022   5.293   4.200 -0.8055  1.5602  2.4035
 3383SOL     OW11599   9.007   7.145   2.466 -0.5994  0.1372 -0.5386
 3383SOL    HW111600   9.023   7.092   2.388 -1.1637 -0.6398 -0.1478
 3383SOL    HW211601   9.037   7.090   2.538 -0.2849  0.7562 -0.1940
 3384SOL     OW11602   9.081   0.509   6.119 -0.1179  0.1402 -0.0010
 3384SOL    HW111603   9.112   0.572   6.053  1.1485  2.0655  2.2853
 3384SOL    HW211604   9.004   0.551   6.158  0.0829 -0.2315  0.8180
 3385SOL     OW11605   4.119   7.304   3.709 -1.1212  0.2735 -0.4644
 3385SOL    HW111606   4.172   7.369   3.663  0.4341 -1.0398 -0.6067
 3385SOL    HW211607   4.111   7.339   3.798  2.3029 -0.6792  0.3506
 3386SOL     OW11608   5.081   0.639   6.284 -0.4593 -0.3407 -0.0006
 3386SOL    HW111609   4.991   0.668   6.296 -0.6964  0.5085 -3.0887
 3386SOL    HW211610   5.074   0.548   6.255 -0.3812 -0.1244 -0.7223
 3387SOL     OW11611   9.253   0.276   6.962  0.2192  0.0319  0.3117
 3387SOL    HW111612   9.339   0.316   6.969 -0.2175  0.8255  1.4568
 3387SOL    HW211613   9.199   0.343   6.918 -0.0877  0.0005  0.6381
 3388SOL     OW11614   1.622   9.039   5.556  0.2325  0.1633 -0.0672
 3388SOL    HW111615   1.651   8.957   5.517  1.3237  0.1286  0.7917
 3388SOL    HW211616   1.616   9.021   5.649 -2.0055  0.3527 -0.1088
 3389SOL     OW11617   5.730   6.745   8.138  0.1869 -0.0113 -0.0949
 3389SOL    HW111618   5.754   6.748   8.230 -1.5633 -0.3657  0.4090
 3389SOL    HW211619   5.740   6.654   8.113  0.3042  0.0185 -0.1568
 3390SOL     OW11620   4.988   6.277   9.179 -0.0398  0.1820 -0.2050
 3390SOL    HW111621   4.968   6.341   9.111 -0.4043 -0.0455 -0.3157
 3390SOL    HW211622   4.903   6.245   9.207  0.1600 -0.8849 -0.7584
 3391SOL     OW11623   6.499   2.753   9.254  0.4274  0.5115 -0.3979
 3391SOL    HW111624   6.452   2.836   9.249 -2.5292 -0.9124  1.2512
 3391SOL    HW211625   6.524   2.734   9.163 -3.4629  0.7842 -1.6970
 3392SOL     OW11626   1.770   7.149   7.905 -0.0091  0.1232  0.2877
 3392SOL    HW111627   1.777   7.114   7.993 -0.9055 -0.2004  0.2407
 3392SOL    HW211628   1.678   7.171   7.895 -0.0052 -0.2848 -0.7338
 3393SOL     OW11629   2.262   5.839   8.201 -0.1811 -0.8267 -0.1769
 3393SOL    HW111630   2.326   5.881   8.144  0.8040  0.4158  1.7249
 3393SOL    HW211631   2.314   5.784   8.259 -0.3680  1.9866  2.9716
 3394SOL     OW11632   6.952   1.680   3.030  0.1286 -0.1159 -1.1810
 3394SOL    HW111633   6.986   1.704   2.943 -0.9954  2.6423 -0.9330
 3394SOL    HW211634   6.989   1.746   3.089  0.0594 -1.3651  0.3091
 3395SOL     OW11635   7.700   5.130   6.755  0.3785  0.2805 -0.1205
 3395SOL    HW111636   7.781   5.145   6.805 -0.8727 -2.5550  3.1601
 3395SOL    HW211637   7.643   5.202   6.780  0.8569  0.6303 -0.0167
 3396SOL     OW11638   1.667   7.061   0.271 -0.2602  0.8742  0.1612
 3396SOL    HW111639   1.691   7.021   0.187 -0.0656 -0.4848  0.8353
 3396SOL    HW211640   1.736   7.034   0.331 -2.9377 -2.6897  2.0394
 3397SOL     OW11641   1.796   5.926   4.701 -0.7162 -0.0011 -0.6220
 3397SOL    HW111642   1.892   5.919   4.697 -0.6317  0.2833  0.5386
 3397SOL    HW211643   1.777   6.007   4.653 -0.0384  1.8220  1.9965
 3398SOL     OW11644   3.689   4.062   7.758 -0.0794 -0.4054 -0.1477
 3398SOL    HW111645   3.662   3.983   7.711 -0.6718  0.9055 -2.1107
 3398SOL    HW211646   3.647   4.134   7.711  1.4950  1.2070  0.7926
 3399SOL     OW11647   7.958   7.610   3.862  0.3640 -0.0514  0.2805
 3399SOL    HW111648   8.018   7.603   3.936 -0.4046  0.1308  0.9392
 3399SOL    HW211649   7.878   7.648   3.900  0.5381  1.6552 -0.9713
 3400SOL     OW11650   8.823   0.019   8.209  0.2438  0.7049  0.4109
 3400SOL    HW111651   8.748  -0.040   8.204  0.5879 -0.0274  2.5877
 3400SOL    HW211652   8.857   0.023   8.120 -0.4940 -1.4548 -0.0267
 3401SOL     OW11653   5.460   8.280   1.488 -0.3132  0.3178 -0.3121
 3401SOL    HW111654   5.445   8.289   1.394 -2.2827 -0.9642 -0.1709
 3401SOL    HW211655   5.381   8.315   1.528 -0.3822 -1.0013  0.7738
 3402SOL     OW11656   8.294   6.223   1.265 -0.3433 -0.5136 -0.1208
 3402SOL    HW111657   8.246   6.163   1.322 -0.6273  0.1806  0.3987
 3402SOL    HW211658   8.322   6.293   1.324  2.1546 -1.3546 -0.2220
 3403SOL     OW11659   2.999   1.893   3.925  0.7181 -0.3447 -0.2704
 3403SOL    HW111660   3.077   1.947   3.937 -0.2152  0.5080  2.8892
 3403SOL    HW211661   3.001   1.831   3.998 -1.8249  0.0975  0.2553
 3404SOL     OW11662   3.854   0.942   5.514  0.2851  0.6524 -0.2604
 3404SOL    HW111663   3.833   0.851   5.495  0.2758  0.2556  1.4761
 3404SOL    HW211664   3.938   0.938   5.561  0.8955  1.6573 -1.2110
 3405SOL     OW11665   2.881   5.548   3.385 -0.1937  0.6064  0.0391
 3405SOL    HW111666   2.939   5.616   3.353 -0.8887  0.8955 -0.6398
 3405SOL    HW211667   2.875   5.563   3.479 -0.4694  1.5947 -0.1301
 3406SOL     OW11668   8.767   8.384   5.693 -0.2293  0.5560  0.3194
 3406SOL    HW111669   8.846   8.399   5.642  0.4406 -0.6843  0.9585
 3406SOL    HW211670   8.772   8.448   5.765 -0.4143  1.2713 -0.2928
 3407SOL     OW11671   7.856   3.308   2.332  0.1677 -0.3733  0.8139
 3407SOL    HW111672   7.772   3.280   2.370 -0.1760  0.4816  0.7072
 3407SOL    HW211673   7.919   3.245   2.365 -0.3791 -0.5303  1.5977
 3408SOL     OW11674   1.485   6.525   8.250  0.3183 -0.2861  0.1185
 3408SOL    HW111675   1.423   6.499   8.318 -0.0649 -0.4937 -0.3046
 3408SOL    HW211676   1.541   6.448   8.238 -1.2441 -1.2466 -1.6184
 3409SOL     OW11677   7.630   2.635   2.304  0.1048 -0.1886 -0.5388
 3409SOL    HW111678   7.673   2.693   2.366 -1.4105  1.9034 -1.3203
 3409SOL    HW211679   7.578   2.693   2.248 -1.4063 -2.2891 -1.4846
 3410SOL     OW11680   7.134   5.926   8.160  0.3239  0.0579  0.1521
 3410SOL    HW111681   7.062   5.920   8.223  1.3177  1.3311  1.4949
 3410SOL    HW211682   7.166   5.837   8.151 -1.3254 -0.5206 -0.3953
 3411SOL     OW11683   1.516   4.880   0.360  0.2490 -0.0424 -0.4767
 3411SOL    HW111684   1.561   4.886   0.275 -0.2184 -1.0490 -0.8112
 3411SOL    HW211685   1.549   4.799   0.399 -0.9339 -0.5737 -0.5354
 3412SOL     OW11686   4.155   0.142   8.770 -0.1283 -0.0300 -0.5659
 3412SOL    HW111687   4.113   0.056   8.773  0.1510 -0.2865 -2.8371
 3412SOL    HW211688   4.088   0.201   8.805 -0.0335 -1.2034  1.8144
 3413SOL     OW11689   6.251   0.862   3.098  0.5022 -0.6460  0.0728
 3413SOL    HW111690   6.309   0.920   3.048  0.6255  0.1441  1.1185
 3413SOL    HW211691   6.248   0.900   3.185 -0.5872 -1.4013  0.3797
 3414SOL     OW11692   1.204   8.117   3.891  0.7866 -0.1489 -0.1287
 3414SOL    HW111693   1.123   8.117   3.942  0.4601 -1.4702 -0.6230
 3414SOL    HW211694   1.251   8.195   3.921 -0.3165  0.2116  0.7139
 3415SOL     OW11695   7.294   8.777   2.503  0.3334 -0.0020 -0.1145
 3415SOL    HW111696   7.379   8.736   2.521  0.8753  0.9791 -0.3500
 3415SOL    HW211697   7.278   8.759   2.410  0.2189 -0.2867 -0.0421
 3416SOL     OW11698   9.250   7.921   6.512 -0.6552 -0.1499  0.1576
 3416SOL    HW111699   9.260   7.923   6.417 -2.1552  0.8478 -0.0276
 3416SOL    HW211700   9.268   8.011   6.540  1.8412 -0.8698  1.1261
 3417SOL     OW11701   4.324   2.545   2.647 -0.3388  0.4468  0.4520
 3417SOL    HW111702   4.299   2.475   2.708 -0.7167  0.4384  0.2898
 3417SOL    HW211703   4.248   2.603   2.645 -1.1761 -0.6125 -1.5666
 3418SOL     OW11704   8.527   4.624   0.317 -0.0289  0.7917  0.0355
 3418SOL    HW111705   8.521   4.714   0.349 -0.2846 -0.1725  2.9476
 3418SOL    HW211706   8.621   4.607   0.313  0.0717  1.5350 -1.7875
 3419SOL     OW11707   5.808   0.454   7.794 -0.3717 -0.0880  0.7651
 3419SOL    HW111708   5.819   0.360   7.813 -1.3261 -0.3304  0.1647
 3419SOL    HW211709   5.730   0.479   7.842 -1.1323 -0.0241 -0.4776
 3420SOL     OW11710   5.496   7.505   1.185 -0.0061  0.1022 -0.5089
 3420SOL    HW111711   5.517   7.563   1.258 -0.1357  0.5342 -0.8095
 3420SOL    HW211712   5.401   7.492   1.190  0.2259 -1.5275  0.6104
 3421SOL     OW11713   4.803   2.999   2.176 -0.1994  0.1302  0.0263
 3421SOL    HW111714   4.708   3.009   2.171 -0.2651 -0.6617 -0.5944
 3421SOL    HW211715   4.816   2.927   2.238  0.0839  1.2861  1.3744
 3422SOL     OW11716   2.125   1.568   8.456  0.2768  0.2131  0.1458
 3422SOL    HW111717   2.113   1.510   8.381  0.2077  0.6496 -0.1849
 3422SOL    HW211718   2.057   1.635   8.446  1.2157  1.1415 -0.2363
 3423SOL     OW11719   4.680   6.107   4.481 -0.9386 -0.6042 -0.2944
 3423SOL    HW111720   4.650   6.137   4.567 -1.0270  1.1998 -0.9247
 3423SOL    HW211721   4.740   6.175   4.451 -0.8000 -1.2771 -1.6209
 3424SOL     OW11722   3.191   5.071   2.743  0.0863  0.0348  0.1876
 3424SOL    HW111723   3.155   5.151   2.783 -0.0451 -0.6591  1.5016
 3424SOL    HW211724   3.121   5.039   2.686 -0.9691 -0.6716  1.8285
 3425SOL     OW11725   7.231   8.606   8.301  0.1595  0.0166 -0.1703
 3425SOL    HW111726   7.316   8.646   8.280  1.4617 -1.9929  0.8496
 3425SOL    HW211727   7.203   8.566   8.219  0.3390  0.4542 -0.4498
 3426SOL     OW11728   1.957   0.245   3.729 -0.5302  0.1187 -0.2193
 3426SOL    HW111729   1.992   0.329   3.758 -0.2221  1.1201 -3.0871
 3426SOL    HW211730   1.936   0.198   3.809 -1.4863  3.2438  1.5364
 3427SOL     OW11731   2.463   8.946   3.447 -0.3929 -0.2144 -0.7845
 3427SOL    HW111732   2.460   9.036   3.480 -1.2419  0.4838 -2.5814
 3427SOL    HW211733   2.377   8.910   3.469 -0.8181  0.1251 -1.8416
 3428SOL     OW11734   8.311   3.898   4.210  0.1073  0.5745 -0.1602
 3428SOL    HW111735   8.257   3.898   4.289  1.5514 -1.1117  0.8856
 3428SOL    HW211736   8.397   3.868   4.239  1.2573  1.8635 -2.0275
 3429SOL     OW11737   1.659   8.430   6.245 -0.7376  0.0033  0.3814
 3429SOL    HW111738   1.749   8.434   6.212 -1.5696 -0.7540 -2.2141
 3429SOL    HW211739   1.636   8.521   6.265 -0.0665  0.4748 -0.9211
 3430SOL     OW11740   0.841   8.350   7.760 -0.6562 -0.7091 -0.1204
 3430SOL    HW111741   0.813   8.342   7.851 -1.0497  2.4195  0.1209
 3430SOL    HW211742   0.778   8.409   7.720  0.5990 -0.5122 -1.9121
 3431SOL     OW11743   1.464   8.679   3.697 -0.2139  0.2883  0.5603
 3431SOL    HW111744   1.483   8.625   3.620  1.1020 -1.7245  2.2026
 3431SOL    HW211745   1.371   8.699   3.690 -0.2086 -0.1215 -1.3525
 3432SOL     OW11746   3.442   8.890   7.519  0.0736  0.2613  0.6108
 3432SOL    HW111747   3.357   8.851   7.539 -0.4947  1.3371  0.3690
 3432SOL    HW211748   3.504   8.818   7.525 -0.9438 -0.6675  0.2164
 3433SOL     OW11749   6.612   5.570   1.216  0.5088 -0.1740  0.2032
 3433SOL    HW111750   6.610   5.561   1.121 -0.4655  0.6187  0.1374
 3433SOL    HW211751   6.682   5.634   1.232 -0.5581  1.1169 -0.1252
 3434SOL     OW11752   0.888   6.551   5.701  0.0017  0.0736 -0.1002
 3434SOL    HW111753   0.917   6.588   5.617  0.1206 -1.1992 -0.6344
 3434SOL    HW211754   0.807   6.598   5.721 -0.5283 -0.2575 -1.4033
 3435SOL     OW11755   8.211   7.272   9.213 -0.1690  0.1767 -0.5126
 3435SOL    HW111756   8.151   7.344   9.231  1.0417  1.0844  0.0903
 3435SOL    HW211757   8.189   7.205   9.278 -0.1861  0.7151  0.0450
 3436SOL     OW11758   8.743   7.938   7.550  0.0749  0.0618 -0.0330
 3436SOL    HW111759   8.835   7.931   7.524  0.5146  0.4825  1.3107
 3436SOL    HW211760   8.727   7.857   7.600 -0.1779  0.1502  0.0284
 3437SOL     OW11761   3.068   2.454   1.789  0.1932  0.0780  0.3157
 3437SOL    HW111762   3.021   2.382   1.830 -3.3978  1.5759 -0.8404
 3437SOL    HW211763   3.029   2.533   1.825  3.4907  1.6077  0.9748
 3438SOL     OW11764   8.131   6.208   7.956 -0.8985  0.1897 -0.2692
 3438SOL    HW111765   8.135   6.299   7.986 -2.0010  0.2737 -0.3601
 3438SOL    HW211766   8.194   6.205   7.884  1.1466  0.1976  1.3995
 3439SOL     OW11767   1.040   3.543   7.400  0.0495  0.0765  0.2322
 3439SOL    HW111768   0.961   3.595   7.381  0.2012  0.8641  1.5914
 3439SOL    HW211769   1.006   3.462   7.438 -0.1320  0.0508  0.0190
 3440SOL     OW11770   7.705   1.334   4.681 -0.2806 -0.1476 -0.5234
 3440SOL    HW111771   7.609   1.343   4.685 -0.4044 -1.6094  0.5065
 3440SOL    HW211772   7.729   1.293   4.764  1.0191 -1.5852 -1.5549
 3441SOL     OW11773   5.117   3.415   0.977 -0.8899 -0.8489 -0.0406
 3441SOL    HW111774   5.153   3.382   0.894 -1.0528 -1.9848  0.3275
 3441SOL    HW211775   5.087   3.504   0.956  2.5764  0.4335 -0.2513
 3442SOL     OW11776   0.730   8.521   4.003  0.3378 -0.3777 -0.3389
 3442SOL    HW111777   0.712   8.521   4.097 -0.1815  2.4358 -0.3299
 3442SOL    HW211778   0.823   8.497   3.997  0.4600 -0.3174  0.9222
 3443SOL     OW11779   8.508   2.500   0.745 -0.2332  0.5521 -0.2932
 3443SOL    HW111780   8.518   2.413   0.782  0.5823 -0.0888 -1.8979
 3443SOL    HW211781   8.591   2.544   0.765  0.6631 -0.1751 -2.2071
 3444SOL     OW11782   0.531   1.249   2.217  0.4215 -0.0661 -0.3711
 3444SOL    HW111783   0.486   1.190   2.156  1.6341 -1.8218  0.3452
 3444SOL    HW211784   0.623   1.242   2.193  0.5001  2.9526 -1.3830
 3445SOL     OW11785   4.969   8.636   4.063 -0.1611 -0.5161 -0.2397
 3445SOL    HW111786   5.029   8.708   4.084  0.6059 -0.6737 -1.7177
 3445SOL    HW211787   4.905   8.675   4.003 -0.6030 -0.7316  0.0892
 3446SOL     OW11788   8.591   4.688   9.190  0.1300  0.3020  0.2998
 3446SOL    HW111789   8.510   4.725   9.154 -0.6233 -1.5349  0.0083
 3446SOL    HW211790   8.656   4.704   9.121 -0.7859 -1.1733 -0.9767
 3447SOL     OW11791   4.974   2.905   6.664  0.3026 -0.1925  0.6819
 3447SOL    HW111792   4.947   2.984   6.711 -1.0834 -0.7263  0.8155
 3447SOL    HW211793   4.996   2.842   6.732  1.6636  0.1336  0.5746
 3448SOL     OW11794   5.198   6.513   8.446 -0.3136 -0.6676 -0.9957
 3448SOL    HW111795   5.238   6.548   8.526 -0.8295  1.7484 -1.7181
 3448SOL    HW211796   5.105   6.507   8.468 -0.1091 -2.9260 -0.4799
 3449SOL     OW11797   7.273   6.208   8.287  0.1827 -0.3548 -0.3584
 3449SOL    HW111798   7.356   6.220   8.241 -0.3539 -1.7358 -1.7893
 3449SOL    HW211799   7.290   6.239   8.376  1.5528  1.4874 -1.1964
 3450SOL     OW11800   1.230   2.745   3.126  0.2442  0.3480 -0.2440
 3450SOL    HW111801   1.181   2.827   3.117 -0.4304 -0.0732 -0.4823
 3450SOL    HW211802   1.321   2.772   3.137 -0.1813  1.2132  1.6794
 3451SOL     OW11803   3.370   0.762   3.824  0.3257 -0.3017  0.1526
 3451SOL    HW111804   3.405   0.811   3.750  1.0609  1.4495  1.5719
 3451SOL    HW211805   3.382   0.821   3.899  0.5309 -2.3894  1.8374
 3452SOL     OW11806   4.068   6.478   3.036 -0.6305  0.0767 -0.6523
 3452SOL    HW111807   3.981   6.513   3.055 -1.2647 -0.1278 -2.9399
 3452SOL    HW211808   4.070   6.395   3.083 -0.9665  0.8799  0.8482
 3453SOL     OW11809   7.166   6.141   6.771  0.4423  0.0805 -0.3505
 3453SOL    HW111810   7.098   6.166   6.709  0.0987 -0.4338 -0.1893
 3453SOL    HW211811   7.235   6.103   6.717 -0.4048 -1.5703 -0.3367
 3454SOL     OW11812   7.075   2.073   4.600 -0.8685  0.5555  0.1433
 3454SOL    HW111813   7.056   2.132   4.527 -0.0899  0.1636 -0.3924
 3454SOL    HW211814   7.099   2.132   4.672 -0.0523  0.9190 -0.4007
 3455SOL     OW11815   7.416   5.430   8.415 -0.1013  0.1780 -0.0036
 3455SOL    HW111816   7.407   5.337   8.396  2.0507 -0.2172  0.6821
 3455SOL    HW211817   7.459   5.466   8.337  0.3825  0.3059  0.3177
 3456SOL     OW11818   3.359   1.279   5.359  0.0171  0.1433 -0.6024
 3456SOL    HW111819   3.290   1.226   5.399  2.3264 -1.2850  1.7992
 3456SOL    HW211820   3.393   1.225   5.288 -0.2084  0.1165 -0.6907
 3457SOL     OW11821   5.372   8.807   0.261 -0.3562 -0.5186 -0.1478
 3457SOL    HW111822   5.314   8.863   0.209 -2.9310 -1.4754  1.5068
 3457SOL    HW211823   5.407   8.866   0.328 -1.6569 -0.4485  0.5087
 3458SOL     OW11824   6.617   7.471   5.026  0.2884 -0.0285  0.3522
 3458SOL    HW111825   6.696   7.507   5.066  0.8682 -0.3419 -0.4924
 3458SOL    HW211826   6.640   7.457   4.934 -0.1567 -1.7944  0.4766
 3459SOL     OW11827   9.137   2.296   6.868  0.1686  0.6549  0.1918
 3459SOL    HW111828   9.051   2.265   6.840 -0.1577  0.6629  1.1316
 3459SOL    HW211829   9.146   2.262   6.958  2.0059 -1.0948 -0.5772
 3460SOL     OW11830   0.124   2.158   6.972  0.2177 -0.3261  0.2121
 3460SOL    HW111831   0.111   2.176   6.879 -0.0735 -2.3266 -0.1784
 3460SOL    HW211832   0.207   2.200   6.994  1.0465 -1.0564 -1.3470
 3461SOL     OW11833   5.580   8.384   4.611 -0.1927  0.0991 -0.1801
 3461SOL    HW111834   5.579   8.379   4.707  1.0758  1.3098 -0.0616
 3461SOL    HW211835   5.567   8.294   4.582  0.6703 -0.4864  1.1544
 3462SOL     OW11836   5.251   6.475   0.169 -0.0768  0.7998 -1.1621
 3462SOL    HW111837   5.293   6.427   0.097 -0.2794 -0.4321 -0.4706
 3462SOL    HW211838   5.323   6.499   0.227 -0.1415  0.0594 -0.7729
 3463SOL     OW11839   8.347   7.199   2.139 -0.3921 -0.0888  0.6030
 3463SOL    HW111840   8.391   7.115   2.125  1.2257  0.6610  0.9866
 3463SOL    HW211841   8.333   7.234   2.050 -1.7219 -1.0369  0.3993
 3464SOL     OW11842   1.046   6.173   6.797 -0.0227  0.0991  0.2917
 3464SOL    HW111843   0.959   6.211   6.808 -1.0502 -2.0408  0.0603
 3464SOL    HW211844   1.072   6.197   6.708 -0.8677 -0.1562 -0.0311
 3465SOL     OW11845   3.383   7.853   3.201 -0.0059 -0.6081  0.1452
 3465SOL    HW111846   3.391   7.781   3.139 -1.1361 -0.7864  0.1807
 3465SOL    HW211847   3.289   7.873   3.203 -0.2528 -1.5171  2.8036
 3466SOL     OW11848   6.064   3.199   6.908  0.3329  0.0453 -0.0801
 3466SOL    HW111849   5.999   3.145   6.952 -0.9898  1.5112 -0.1536
 3466SOL    HW211850   6.076   3.157   6.823 -1.0675  0.1446 -0.3489
 3467SOL     OW11851   6.029   2.628   6.000  0.3631 -0.0717 -0.4415
 3467SOL    HW111852   6.085   2.552   5.989 -2.4175 -2.0988 -1.8691
 3467SOL    HW211853   5.941   2.597   5.979 -1.2441  3.0718  0.8731
 3468SOL     OW11854   8.611   9.059   1.257 -0.0283  0.0284 -0.0415
 3468SOL    HW111855   8.657   8.976   1.243  0.9214  0.8937 -2.5784
 3468SOL    HW211856   8.524   9.046   1.221  0.2986  0.2519 -0.9518
 3469SOL     OW11857   3.637   0.475   2.598 -0.1532 -0.1810 -0.1059
 3469SOL    HW111858   3.620   0.420   2.522  2.3593  0.9624 -1.6242
 3469SOL    HW211859   3.605   0.424   2.673 -1.1584 -2.0781 -1.7547
 3470SOL     OW11860   1.800   1.549   8.173 -0.1635 -0.2822  0.3736
 3470SOL    HW111861   1.812   1.548   8.268  0.6912 -0.0695  0.2851
 3470SOL    HW211862   1.873   1.496   8.139 -0.1723  0.0509 -0.1840
 3471SOL     OW11863   1.188   5.068   8.039  0.4628 -0.3850 -0.0018
 3471SOL    HW111864   1.219   5.158   8.053  1.2831 -0.6288 -0.2008
 3471SOL    HW211865   1.260   5.024   7.994  1.3980 -2.0020  2.8084
 3472SOL     OW11866   2.677   0.680   3.712 -0.1788  0.1698 -0.0361
 3472SOL    HW111867   2.613   0.629   3.760 -1.0377  0.7727 -0.5101
 3472SOL    HW211868   2.661   0.658   3.620  0.2267  0.3981 -0.1634
 3473SOL     OW11869   8.058   7.613   1.304 -0.1157  0.5361  0.0218
 3473SOL    HW111870   8.044   7.627   1.210 -0.4406  0.0174 -0.0105
 3473SOL    HW211871   8.144   7.572   1.309 -0.9571 -1.4184 -0.2494
 3474SOL     OW11872   8.150   0.704   3.562 -0.1899  0.1419  0.4123
 3474SOL    HW111873   8.218   0.690   3.627  0.3016  1.1933  0.1549
 3474SOL    HW211874   8.195   0.699   3.478 -0.5922  0.0110  0.2001
 3475SOL     OW11875   6.319   2.406   7.973 -0.2483  0.3351  0.0689
 3475SOL    HW111876   6.273   2.357   7.905 -0.0738  0.4758 -0.1509
 3475SOL    HW211877   6.300   2.358   8.054  0.0778 -0.1973 -0.1683
 3476SOL     OW11878   7.706   3.741   4.750 -0.3007  0.3097  0.1959
 3476SOL    HW111879   7.643   3.705   4.688  1.8128 -1.8959 -0.8422
 3476SOL    HW211880   7.718   3.831   4.721  0.8345 -0.6979 -2.9350
 3477SOL     OW11881   4.423   7.054   8.278  1.3405  0.0146  0.3856
 3477SOL    HW111882   4.469   7.135   8.297 -0.2817  0.9980  0.2894
 3477SOL    HW211883   4.345   7.081   8.230  0.4558 -1.5398  0.8740
 3478SOL     OW11884   8.955   1.406   3.420  0.4340 -0.4881 -0.2224
 3478SOL    HW111885   9.041   1.439   3.392  0.4451 -0.2086  0.1354
 3478SOL    HW211886   8.914   1.481   3.463  0.8722 -1.2049  1.5261
 3479SOL     OW11887   2.539   4.779   5.868  0.2407 -0.0369 -0.1896
 3479SOL    HW111888   2.483   4.722   5.817  0.1181 -0.8252  0.7942
 3479SOL    HW211889   2.627   4.742   5.859  0.2130 -0.2000  0.1936
 3480SOL     OW11890   8.153   5.324   0.432  0.0805 -0.3315  0.2663
 3480SOL    HW111891   8.146   5.364   0.519 -0.7041  1.4765 -0.5881
 3480SOL    HW211892   8.230   5.363   0.393  0.0556 -0.6463 -0.1041
 3481SOL     OW11893   7.194   2.427   6.190  0.6249 -0.3704 -0.0423
 3481SOL    HW111894   7.156   2.342   6.211 -0.4583 -0.1384 -0.9644
 3481SOL    HW211895   7.121   2.478   6.155  0.9607  1.3680  1.5961
 3482SOL     OW11896   0.401   7.241   7.206  0.0728  0.4617 -0.6748
 3482SOL    HW111897   0.439   7.312   7.259  2.2613 -0.1550 -1.3161
 3482SOL    HW211898   0.393   7.168   7.267  1.4383  0.1263 -0.8685
 3483SOL     OW11899   5.053   8.916   8.728 -0.2001 -0.2643 -0.3487
 3483SOL    HW111900   5.013   8.829   8.741  1.2998 -1.0127 -0.5371
 3483SOL    HW211901   5.145   8.898   8.713  0.0639  1.3578 -0.8721
 3484SOL     OW11902   1.182   2.319   7.435  0.0519 -0.3454  0.2175
 3484SOL    HW111903   1.272   2.312   7.403 -0.6144 -0.9195 -1.6960
 3484SOL    HW211904   1.175   2.254   7.505  1.3493  0.3684  1.0459
 3485SOL     OW11905   3.670   8.824   7.292 -0.3538 -0.6337  0.0875
 3485SOL    HW111906   3.576   8.831   7.279 -0.6136 -0.2049  1.9226
 3485SOL    HW211907   3.688   8.730   7.284 -1.0566 -0.8003  0.3823
 3486SOL     OW11908   1.654   0.037   2.284  0.1943  0.3137  0.0029
 3486SOL    HW111909   1.641  -0.053   2.313 -1.4159 -0.6196 -3.1674
 3486SOL    HW211910   1.622   0.091   2.355 -3.2126 -1.7446  0.2100
 3487SOL     OW11911   3.179   2.469   2.991  0.3400 -0.3145  0.5490
 3487SOL    HW111912   3.169   2.420   3.072  0.4822 -0.5975  0.3942
 3487SOL    HW211913   3.090   2.480   2.959  0.2745 -0.1096  0.7975
 3488SOL     OW11914   5.460   2.877   0.223 -0.0653 -0.5084 -0.0771
 3488SOL    HW111915   5.419   2.807   0.274  2.1097 -0.2457  2.2086
 3488SOL    HW211916   5.390   2.942   0.211 -2.1515 -2.9496 -2.3075
 3489SOL     OW11917   0.906   2.027   8.791 -0.0045  0.3673  0.0382
 3489SOL    HW111918   0.828   2.073   8.821 -0.6349  0.1135 -1.1352
 3489SOL    HW211919   0.905   1.944   8.839 -1.5322 -0.4497 -1.3187
 3490SOL     OW11920   4.923   1.370   6.160  0.4467  0.4398 -0.2704
 3490SOL    HW111921   4.858   1.387   6.092  0.7132  2.9916  0.0433
 3490SOL    HW211922   4.996   1.330   6.113 -0.0858  0.4537 -1.1461
 3491SOL     OW11923   1.651   2.923   2.962 -0.0012 -0.3241 -0.0469
 3491SOL    HW111924   1.606   2.853   3.009 -1.5187 -0.2391 -1.2865
 3491SOL    HW211925   1.583   2.962   2.907  0.8791  1.9581  0.3994
 3492SOL     OW11926   0.202   6.223   8.650  0.3357  0.5251  0.0972
 3492SOL    HW111927   0.201   6.127   8.654  2.6647  0.4944  1.6085
 3492SOL    HW211928   0.238   6.243   8.564  1.1660 -0.0108  0.3114
 3493SOL     OW11929   7.852   6.319   6.422 -0.5197 -0.1780 -0.3756
 3493SOL    HW111930   7.911   6.265   6.369 -0.5425  0.3626 -0.9587
 3493SOL    HW211931   7.766   6.279   6.410 -0.1330 -1.7116  1.4367
 3494SOL     OW11932   4.670   7.251   2.584 -0.4836 -0.6084 -0.3508
 3494SOL    HW111933   4.701   7.341   2.589 -1.2235 -0.4164  1.1439
 3494SOL    HW211934   4.713   7.207   2.658  1.1535 -1.9229 -1.9923
 3495SOL     OW11935   3.436   2.781   4.008  0.4633  0.0389  0.0027
 3495SOL    HW111936   3.477   2.844   3.949 -1.2155  0.2497 -0.9956
 3495SOL    HW211937   3.510   2.736   4.049  1.7108  0.1605 -1.9658
 3496SOL     OW11938   5.524   3.137   8.841 -0.0978  0.0487  0.1306
 3496SOL    HW111939   5.575   3.130   8.922 -1.7752  1.1027  1.3410
 3496SOL    HW211940   5.470   3.058   8.840 -1.2247  0.7710  0.9254
 3497SOL     OW11941   2.459   3.601   2.130 -0.4409 -0.7499  0.3341
 3497SOL    HW111942   2.551   3.574   2.134 -0.2566 -0.1031  0.5873
 3497SOL    HW211943   2.457   3.686   2.175 -0.5554  0.9519 -2.6363
 3498SOL     OW11944   9.009   3.067   8.759 -0.1096  0.2041  0.2316
 3498SOL    HW111945   8.987   3.156   8.734  0.5047 -0.1705 -1.7840
 3498SOL    HW211946   9.016   3.070   8.855 -1.7393  1.9115  0.3546
 3499SOL     OW11947   6.358   7.908   6.688  0.3448 -1.0497  0.4224
 3499SOL    HW111948   6.337   7.815   6.686 -1.0754 -0.7983  2.0101
 3499SOL    HW211949   6.353   7.935   6.596 -2.4634 -1.8928  0.2396
 3500SOL     OW11950   0.759   6.468   4.809  0.2051 -0.0780 -0.4035
 3500SOL    HW111951   0.761   6.558   4.776 -0.0438 -0.0664 -0.3867
 3500SOL    HW211952   0.672   6.436   4.788  0.2283 -0.2523 -0.2403
 3501SOL     OW11953   2.774   3.005   5.938 -0.0887  0.0392  0.3258
 3501SOL    HW111954   2.799   3.097   5.950  0.3171 -0.2556  2.0718
 3501SOL    HW211955   2.858   2.958   5.939 -0.4124 -0.5616  1.9861
 3502SOL     OW11956   7.144   4.481   3.866 -0.2848  0.0797  0.3701
 3502SOL    HW111957   7.050   4.486   3.884 -0.1530  0.4566  0.9780
 3502SOL    HW211958   7.186   4.512   3.947  0.3930 -1.2786  0.5693
 3503SOL     OW11959   7.709   0.035   6.332  0.3020  0.0663 -0.4255
 3503SOL    HW111960   7.642   0.093   6.369  1.1577  0.7184  0.1304
 3503SOL    HW211961   7.769   0.018   6.405  2.4044  1.9163 -1.6237
 3504SOL     OW11962   2.445   1.493   3.447 -0.0139  0.1747  0.0859
 3504SOL    HW111963   2.350   1.509   3.448  0.3096  2.5332  1.3236
 3504SOL    HW211964   2.480   1.554   3.513  2.3638 -0.7195 -0.2539
 3505SOL     OW11965   9.012   0.857   6.711 -0.2519  0.2590  0.0207
 3505SOL    HW111966   9.079   0.790   6.695  0.4979  1.2577 -1.1816
 3505SOL    HW211967   9.056   0.940   6.692 -1.9620  0.9207 -1.2911
 3506SOL     OW11968   3.967   0.643   4.342  0.4138 -0.3138  0.0122
 3506SOL    HW111969   3.878   0.676   4.334  0.7936  0.9932  0.9320
 3506SOL    HW211970   3.966   0.589   4.421  0.3398 -0.7100 -0.2516
 3507SOL     OW11971   4.467   5.563   2.538  0.4955 -0.5951  0.1232
 3507SOL    HW111972   4.466   5.519   2.624 -2.0962 -0.5117  0.2352
 3507SOL    HW211973   4.428   5.499   2.478 -1.8142  0.8384 -0.0368
 3508SOL     OW11974   1.672   6.593   6.753 -0.2847  0.2226  0.3939
 3508SOL    HW111975   1.725   6.517   6.776 -1.2642 -0.3889  0.6764
 3508SOL    HW211976   1.697   6.614   6.663 -0.6985 -1.0379 -0.0340
 3509SOL     OW11977   5.022   2.330   5.821  0.1229  0.1393  1.2320
 3509SOL    HW111978   5.103   2.380   5.832  2.0287 -2.8927  2.1106
 3509SOL    HW211979   4.993   2.312   5.910 -1.2145  0.5895  0.9234
 3510SOL     OW11980   6.401   2.296   3.428 -0.0136  0.1767  0.2129
 3510SOL    HW111981   6.407   2.221   3.487  0.8136  0.1050  0.0477
 3510SOL    HW211982   6.383   2.258   3.342 -0.7275  0.2497  0.3228
 3511SOL     OW11983   7.708   7.731   4.230  0.2932 -0.4151  0.2869
 3511SOL    HW111984   7.724   7.707   4.321  1.9896  0.8447  0.3844
 3511SOL    HW211985   7.665   7.817   4.234  1.6860  0.3330 -0.0668
 3512SOL     OW11986   5.559   2.531   8.021  0.1489  0.1127 -0.0466
 3512SOL    HW111987   5.578   2.456   8.078  0.9231 -0.2188 -0.7043
 3512SOL    HW211988   5.645   2.555   7.985 -0.0329  1.5682  0.4458
 3513SOL     OW11989   8.471   4.105   9.135 -0.0415  0.2081  0.4622
 3513SOL    HW111990   8.484   4.153   9.053 -0.9487 -1.7008 -0.9094
 3513SOL    HW211991   8.376   4.094   9.141  0.1365 -3.5528 -0.7764
 3514SOL     OW11992   3.135   6.859   5.194  0.3820 -0.1818  0.5422
 3514SOL    HW111993   3.169   6.881   5.281  0.8656  2.0013 -0.1254
 3514SOL    HW211994   3.209   6.817   5.150  0.1407 -1.2802  1.1446
 3515SOL     OW11995   8.021   9.203   0.346 -0.4547 -0.0547 -0.5897
 3515SOL    HW111996   7.955   9.154   0.296  1.2734 -3.7495  0.4199
 3515SOL    HW211997   8.105   9.168   0.316  0.9285  1.9717  0.6806
 3516SOL     OW11998   2.889   0.414   3.675 -0.3405  0.6298  0.2265
 3516SOL    HW111999   2.839   0.475   3.620 -1.6056 -1.4590 -1.0833
 3516SOL    HW212000   2.837   0.405   3.754  0.2879  1.8363  0.8115
 3517SOL     OW12001   7.286   7.256   3.208 -0.0098  0.4493  0.1533
 3517SOL    HW112002   7.263   7.275   3.299  0.5066 -0.7554  0.5514
 3517SOL    HW212003   7.381   7.244   3.210  0.0335  0.6476 -0.5934
 3518SOL     OW12004   6.046   4.893   7.075  0.3938  0.3105 -0.0315
 3518SOL    HW112005   6.053   4.797   7.075  0.2941  0.2903  1.0950
 3518SOL    HW212006   6.136   4.924   7.072  0.6766  0.1213  2.9488
 3519SOL     OW12007   2.000   4.385   3.818  0.3150  0.1859  0.2019
 3519SOL    HW112008   1.955   4.442   3.755  1.3088  1.4292  0.5891
 3519SOL    HW212009   1.932   4.360   3.880 -0.1205  1.0208  0.0709
 3520SOL     OW12010   1.791   7.746   6.557  0.5947 -0.1476 -0.0528
 3520SOL    HW112011   1.734   7.815   6.522  1.7830  1.1268  0.4118
 3520SOL    HW212012   1.879   7.772   6.529  1.0180 -1.8091 -0.3482
 3521SOL     OW12013   4.943   8.157   7.075 -0.0829 -0.3009  0.1753
 3521SOL    HW112014   4.933   8.078   7.021 -0.6560 -1.5038  1.9419
 3521SOL    HW212015   4.901   8.226   7.024  0.9897 -0.9494 -1.7147
 3522SOL     OW12016   7.497   5.939   4.107 -0.6335 -0.2093  0.7172
 3522SOL    HW112017   7.493   5.916   4.200 -1.7918  0.5432  0.8628
 3522SOL    HW212018   7.492   6.034   4.106  0.8623 -0.1107 -0.0551
 3523SOL     OW12019   4.934   1.017   3.248  0.2549  0.4289  0.0319
 3523SOL    HW112020   4.842   1.032   3.269  0.2459  0.1919  0.1635
 3523SOL    HW212021   4.978   1.015   3.333  0.1552 -0.9712  0.0808
 3524SOL     OW12022   6.311   8.637   6.968 -0.4098 -0.4234 -0.2853
 3524SOL    HW112023   6.260   8.556   6.969 -1.0054 -0.0739 -1.0058
 3524SOL    HW212024   6.266   8.692   6.903 -1.1423  1.1858  1.4883
 3525SOL     OW12025   8.469   6.968   2.057  0.3916 -0.1128  0.3401
 3525SOL    HW112026   8.469   6.946   1.964  1.6150  0.6860  0.1238
 3525SOL    HW212027   8.457   6.884   2.102 -1.7121 -0.3477 -0.5233
 3526SOL     OW12028   1.881   5.685   4.022 -0.0993 -0.6692  0.1756
 3526SOL    HW112029   1.789   5.698   4.047  0.6154  2.8020  1.6932
 3526SOL    HW212030   1.922   5.646   4.099 -0.0314 -0.8702  0.0388
 3527SOL     OW12031   6.904   4.330   2.767  0.0699 -0.3999 -0.9617
 3527SOL    HW112032   6.927   4.380   2.688  0.6050  0.3721 -0.3328
 3527SOL    HW212033   6.980   4.338   2.824 -0.9540  0.5121  0.3436
 3528SOL     OW12034   5.250   4.865   1.469 -0.1006  0.2634 -0.0337
 3528SOL    HW112035   5.182   4.813   1.426  1.7329 -0.2216 -2.6108
 3528SOL    HW212036   5.255   4.945   1.416 -1.0170  1.9432  2.2497
 3529SOL     OW12037   3.515   3.659   8.062 -0.0987  0.0880  0.5926
 3529SOL    HW112038   3.541   3.749   8.078 -0.0320 -0.1081  1.7089
 3529SOL    HW212039   3.597   3.609   8.062 -0.2282 -0.1353  1.2295
 3530SOL     OW12040   5.869   3.207   1.381 -0.0914  0.3809  0.0653
 3530SOL    HW112041   5.853   3.204   1.475  0.0493  0.4947  0.0931
 3530SOL    HW212042   5.862   3.300   1.358  3.7212  0.9651  0.6509
 3531SOL     OW12043   3.729   0.180   5.897  0.2095  0.3539 -0.4072
 3531SOL    HW112044   3.710   0.086   5.887 -0.5834  0.1853  1.9429
 3531SOL    HW212045   3.818   0.190   5.863  0.5271 -1.3646 -0.2033
 3532SOL     OW12046   2.770   1.204   4.190 -0.7615  0.0555  0.0559
 3532SOL    HW112047   2.755   1.131   4.130  1.8611 -1.4439  1.0334
 3532SOL    HW212048   2.823   1.266   4.139 -1.9803  0.7598 -0.3959
 3533SOL     OW12049   5.508   8.929   2.039 -0.0443 -0.1365 -0.1008
 3533SOL    HW112050   5.439   8.979   2.083  0.6756  0.7410  0.0723
 3533SOL    HW212051   5.532   8.862   2.102 -1.1917 -0.8908 -0.4304
 3534SOL     OW12052   1.834   7.011   6.876 -0.3832  0.0500 -0.0715
 3534SOL    HW112053   1.765   6.946   6.890 -0.3518 -0.6408 -2.6023
 3534SOL    HW212054   1.914   6.959   6.863  0.0424  0.7017 -0.0945
 3535SOL     OW12055   1.916   4.108   6.310 -0.1338 -0.5263 -0.3520
 3535SOL    HW112056   1.911   4.198   6.277 -0.0313 -0.0817  0.7691
 3535SOL    HW212057   1.827   4.073   6.299 -0.2121 -0.2286 -0.6605
 3536SOL     OW12058   0.574   7.134   8.503  0.7002 -0.7250 -0.1194
 3536SOL    HW112059   0.611   7.220   8.524  1.3346 -0.8907 -0.5292
 3536SOL    HW212060   0.483   7.152   8.481  0.7390 -0.2005  0.1361
 3537SOL     OW12061   7.043   5.926   5.213 -0.2575 -0.5567 -0.3185
 3537SOL    HW112062   7.032   6.007   5.163  0.9710 -1.6040 -2.4767
 3537SOL    HW212063   7.066   5.955   5.301 -0.3963  1.4266 -0.8770
 3538SOL     OW12064   8.258   4.584   8.365 -0.1730  0.3733  0.0508
 3538SOL    HW112065   8.345   4.623   8.353 -0.7276  1.6863  0.1183
 3538SOL    HW212066   8.217   4.592   8.279 -0.3359  0.0013  0.0930
 3539SOL     OW12067   6.974   3.969   8.508  0.5828  0.2271 -0.5752
 3539SOL    HW112068   6.970   3.878   8.480  0.5037 -0.5385  1.6966
 3539SOL    HW212069   6.893   4.008   8.474  1.3489 -0.0601 -2.9064
 3540SOL     OW12070   1.617   2.471   8.728  0.2386 -0.3352 -0.7678
 3540SOL    HW112071   1.612   2.377   8.739 -0.6545 -0.2840 -0.7071
 3540SOL    HW212072   1.602   2.485   8.634 -2.2332 -0.0986 -0.3923
 3541SOL     OW12073   3.292   2.806   0.954 -0.3702  0.3910  0.5652
 3541SOL    HW112074   3.214   2.752   0.940 -0.8185  1.1412  0.1003
 3541SOL    HW212075   3.309   2.800   1.048 -1.0385  0.2865  0.6808
 3542SOL     OW12076   5.562   4.442   8.948  0.1129  0.2599 -0.5164
 3542SOL    HW112077   5.621   4.396   8.888 -1.0344 -1.4028 -0.4547
 3542SOL    HW212078   5.506   4.373   8.983 -2.1485  1.7990 -0.8912
 3543SOL     OW12079   7.750   5.088   2.553  0.4194 -0.5737  0.3894
 3543SOL    HW112080   7.742   5.066   2.461 -0.2606  0.0906  0.2851
 3543SOL    HW212081   7.779   5.179   2.554 -0.5015 -0.2739  0.8276
 3544SOL     OW12082   6.819   1.028   2.029  0.1872 -0.1688  0.6230
 3544SOL    HW112083   6.788   1.080   2.103 -2.3854  1.0322 -1.1396
 3544SOL    HW212084   6.811   0.937   2.059 -2.1514  0.2313  1.4173
 3545SOL     OW12085   5.527   6.753   2.041 -0.6374 -0.0316 -0.0582
 3545SOL    HW112086   5.609   6.777   1.999 -0.7586 -0.6209 -0.6493
 3545SOL    HW212087   5.536   6.660   2.060  1.0748  0.8695  5.0015
 3546SOL     OW12088   5.516   2.367   0.535 -0.3035 -0.3051 -0.0729
 3546SOL    HW112089   5.511   2.278   0.501 -0.4039 -0.5157  0.4936
 3546SOL    HW212090   5.429   2.385   0.571 -0.4502  0.2174 -0.6442
 3547SOL     OW12091   9.060   3.177   6.489 -0.1959 -0.4741 -0.2882
 3547SOL    HW112092   9.091   3.201   6.402  0.4482 -1.0272 -0.2149
 3547SOL    HW212093   9.004   3.101   6.475  0.9749 -1.3991 -0.0887
 3548SOL     OW12094   8.368   6.966   1.791  0.2503  0.4571  0.0203
 3548SOL    HW112095   8.352   6.968   1.697  0.0506  0.9203  0.0645
 3548SOL    HW212096   8.291   7.008   1.830 -0.1587 -0.6408  0.4595
 3549SOL     OW12097   0.127   0.368   8.112  0.2995  0.5490 -0.0799
 3549SOL    HW112098   0.059   0.304   8.090  0.5000  0.4516 -0.4346
 3549SOL    HW212099   0.205   0.314   8.128  0.9180  0.7707 -2.0509
 3550SOL     OW12100   0.200   9.268   8.901 -0.5116  0.5202  0.2644
 3550SOL    HW112101   0.285   9.235   8.928 -0.4570  0.2452 -0.2497
 3550SOL    HW212102   0.151   9.277   8.983 -1.0092 -2.1360  0.3441
 3551SOL     OW12103   8.402   6.507   6.340  0.2635 -0.4016 -1.4200
 3551SOL    HW112104   8.446   6.532   6.258  1.0808 -0.9542 -1.1572
 3551SOL    HW212105   8.470   6.467   6.393 -0.3762 -0.5092 -0.6576
 3552SOL     OW12106   9.173   3.287   5.738 -0.0815  0.1992 -0.0160
 3552SOL    HW112107   9.119   3.309   5.662  0.2858  0.9432 -0.0613
 3552SOL    HW212108   9.126   3.326   5.812  0.6961  1.3811 -0.1262
 3553SOL     OW12109   9.198   3.037   1.737  0.0472 -0.2656 -0.1663
 3553SOL    HW112110   9.286   3.006   1.713  0.2638  0.9539 -1.0540
 3553SOL    HW212111   9.204   3.132   1.730 -1.2734 -0.1553  0.0549
 3554SOL     OW12112   6.262   1.642   4.166  0.2479 -0.1861  0.4618
 3554SOL    HW112113   6.322   1.570   4.186  1.1426  0.7420  1.2187
 3554SOL    HW212114   6.269   1.701   4.241 -0.8220  0.4637  0.0734
 3555SOL     OW12115   8.230   1.616   2.145 -0.2651 -0.5094  0.3195
 3555SOL    HW112116   8.259   1.694   2.191  1.9645 -0.5893 -0.8170
 3555SOL    HW212117   8.297   1.601   2.078 -2.4266 -1.4070 -1.7954
 3556SOL     OW12118   0.074   5.171   9.224  0.6805 -0.0306 -0.0771
 3556SOL    HW112119  -0.004   5.117   9.235  0.5492  0.0058 -0.8015
 3556SOL    HW212120   0.117   5.136   9.146  0.5410  0.9797 -0.6177
 3557SOL     OW12121   8.398   2.526   5.081 -0.0218 -0.2986  0.3160
 3557SOL    HW112122   8.336   2.598   5.093  0.4507  0.1562  0.0816
 3557SOL    HW212123   8.484   2.569   5.077  0.3081 -0.9163  0.6284
 3558SOL     OW12124   8.508   4.174   1.820 -0.1244 -0.6291  0.5100
 3558SOL    HW112125   8.519   4.098   1.878  0.0452 -0.7993  0.2563
 3558SOL    HW212126   8.576   4.163   1.753 -0.8713 -0.9010 -0.2226
 3559SOL     OW12127   7.464   3.506   1.864 -0.2689  0.7383  0.8887
 3559SOL    HW112128   7.423   3.569   1.924 -0.8186  1.2660 -0.0174
 3559SOL    HW212129   7.393   3.478   1.806 -0.1336 -1.0688  1.5357
 3560SOL     OW12130   3.060   5.533   6.795  0.0442  0.6456  0.5664
 3560SOL    HW112131   3.123   5.603   6.812 -0.3135  1.3250 -0.7631
 3560SOL    HW212132   3.091   5.459   6.848  2.9460  0.3691 -1.3081
 3561SOL     OW12133   4.011   7.701   0.408  0.4447  0.1523 -0.7107
 3561SOL    HW112134   4.050   7.694   0.321  1.7128  0.6253 -0.1981
 3561SOL    HW212135   4.058   7.774   0.449 -0.7791  0.5442  0.0440
 3562SOL     OW12136   8.196   2.160   8.330 -0.5476  0.5740 -0.2241
 3562SOL    HW112137   8.191   2.070   8.361 -0.4943  1.0459  1.1951
 3562SOL    HW212138   8.118   2.203   8.364  0.3539  1.5303  0.6971
 3563SOL     OW12139   8.124   5.428   3.865  0.0126  0.6578  0.1905
 3563SOL    HW112140   8.038   5.392   3.887  0.1624 -0.3826 -0.7949
 3563SOL    HW212141   8.174   5.423   3.946 -0.6614  0.6872  0.6156
 3564SOL     OW12142   4.852   0.294   2.881 -0.3956 -0.2094 -0.0329
 3564SOL    HW112143   4.874   0.369   2.936  0.4494  0.0376 -0.6826
 3564SOL    HW212144   4.781   0.324   2.826 -0.1999  0.0478 -0.1451
 3565SOL     OW12145   4.608   7.522   5.511 -0.6063 -0.0669 -0.5050
 3565SOL    HW112146   4.550   7.563   5.575 -1.4244  2.3486 -2.6424
 3565SOL    HW212147   4.558   7.449   5.476 -1.8810  1.1235 -1.2914
 3566SOL     OW12148   7.434   0.069   6.519  0.8810 -0.2573 -0.2857
 3566SOL    HW112149   7.387   0.152   6.516  0.6484 -0.2748  1.5971
 3566SOL    HW212150   7.401   0.020   6.444 -1.0332  0.3164  0.1249
 3567SOL     OW12151   0.926   8.601   2.368 -0.1855 -0.6074  0.0611
 3567SOL    HW112152   0.875   8.520   2.375 -0.6157 -0.4250 -0.8518
 3567SOL    HW212153   0.874   8.658   2.313  0.7210 -0.1819 -0.3803
 3568SOL     OW12154   7.667   0.436   2.968 -0.4097 -0.0787  0.4858
 3568SOL    HW112155   7.698   0.524   2.946  2.0834 -0.7004  1.1284
 3568SOL    HW212156   7.675   0.387   2.887 -1.3283  0.1382  0.2512
 3569SOL     OW12157   6.472   3.470   8.326  0.0764  0.4095  0.1634
 3569SOL    HW112158   6.538   3.431   8.383  1.3201  3.1978  0.8369
 3569SOL    HW212159   6.396   3.483   8.383 -0.5350 -1.3902 -0.2016
 3570SOL     OW12160   5.661   6.167   2.066 -0.4567 -0.3421 -0.0253
 3570SOL    HW112161   5.615   6.250   2.054 -0.7131 -0.4920 -0.0698
 3570SOL    HW212162   5.754   6.192   2.070 -0.4629 -0.1562 -0.9682
 3571SOL     OW12163   1.265   3.807   6.349  0.2362 -0.0322  0.3374
 3571SOL    HW112164   1.281   3.853   6.432 -0.6124 -0.9891  1.0701
 3571SOL    HW212165   1.348   3.764   6.330  0.2354 -0.4108  1.1155
 3572SOL     OW12166   9.165   6.685   5.886 -0.3485  0.2311  0.0877
 3572SOL    HW112167   9.078   6.662   5.920 -1.0927  1.4795 -0.8925
 3572SOL    HW212168   9.159   6.777   5.864  1.0143  0.1642 -0.6808
 3573SOL     OW12169   6.554   1.338   4.526 -0.0189 -0.2816  0.4247
 3573SOL    HW112170   6.518   1.427   4.531 -0.7339 -0.5779  0.7596
 3573SOL    HW212171   6.534   1.300   4.612  3.0678  0.2562  1.4928
 3574SOL     OW12172   3.190   5.847   5.866  0.4730  0.4154 -0.3398
 3574SOL    HW112173   3.141   5.804   5.936 -2.6091  1.3770 -1.7132
 3574SOL    HW212174   3.182   5.788   5.791  0.9621  0.8650 -0.7584
 3575SOL     OW12175   3.865   1.833   4.053 -0.4158  0.4187  0.6664
 3575SOL    HW112176   3.867   1.872   3.966  1.8598  0.6151  0.7484
 3575SOL    HW212177   3.877   1.906   4.113 -2.9107  0.4141  1.2568
 3576SOL     OW12178   4.646   2.468   5.259 -0.0774 -0.2917  0.0696
 3576SOL    HW112179   4.671   2.405   5.191 -0.4781 -0.1553 -0.2104
 3576SOL    HW212180   4.586   2.419   5.316 -1.0277  0.0505 -0.6030
 3577SOL     OW12181   8.091   4.929   5.497  0.3387  0.6186  0.0566
 3577SOL    HW112182   8.150   4.989   5.452  1.2010  0.8676  1.4615
 3577SOL    HW212183   8.034   4.986   5.549 -0.1764  0.3008 -0.1454
 3578SOL     OW12184   8.735   0.059   4.186 -0.0742  0.0274  0.1783
 3578SOL    HW112185   8.686  -0.018   4.155 -1.1074  0.1101  1.5216
 3578SOL    HW212186   8.792   0.082   4.113  0.6342 -2.3080 -0.1212
 3579SOL     OW12187   8.673   9.209   3.284 -0.0919 -0.1630 -0.0547
 3579SOL    HW112188   8.661   9.303   3.271 -0.8728 -0.2132  0.2297
 3579SOL    HW212189   8.586   9.171   3.268  0.6585 -1.0904 -2.2513
 3580SOL     OW12190   6.113   7.746   3.763  0.8440  0.1349 -0.4831
 3580SOL    HW112191   6.049   7.779   3.826  1.3186 -0.8795  0.5673
 3580SOL    HW212192   6.142   7.824   3.716 -0.1609  0.7928 -0.0518
 3581SOL     OW12193   1.283   7.562   0.588  0.3082  1.0241 -0.4084
 3581SOL    HW112194   1.250   7.480   0.553  0.8333  1.0906 -1.0740
 3581SOL    HW212195   1.320   7.608   0.513  0.7153  1.5296  0.0841
 3582SOL     OW12196   6.147   7.635   0.939 -0.4168  0.5027  0.4640
 3582SOL    HW112197   6.156   7.544   0.911  0.0941  0.3894  0.9929
 3582SOL    HW212198   6.101   7.678   0.866 -3.0933 -0.7419  1.3033
 3583SOL     OW12199   8.822   2.422   1.444  0.0147 -0.4410 -0.1223
 3583SOL    HW112200   8.898   2.420   1.501 -0.1150 -0.9403  0.0371
 3583SOL    HW212201   8.828   2.506   1.399  0.5602 -0.4010  0.0209
 3584SOL     OW12202   6.214   5.620   1.599 -0.0846 -0.3869 -0.3300
 3584SOL    HW112203   6.302   5.599   1.569 -0.5666 -1.1547 -1.2655
 3584SOL    HW212204   6.225   5.648   1.690  1.1469 -0.2111 -0.5176
 3585SOL     OW12205   4.367   3.553   1.967  0.0919 -0.8032 -0.2046
 3585SOL    HW112206   4.319   3.561   2.050  1.4115  0.1887  0.5154
 3585SOL    HW212207   4.387   3.643   1.943  3.0973 -1.1698  0.5054
 3586SOL     OW12208   4.762   2.000   8.782 -0.1998 -0.2281  0.0998
 3586SOL    HW112209   4.813   2.065   8.733 -0.6850  0.0947  0.0104
 3586SOL    HW212210   4.693   2.052   8.825  1.2706 -0.2222  2.6189
 3587SOL     OW12211   7.462   2.122   4.665 -0.7866  0.3738 -0.1091
 3587SOL    HW112212   7.390   2.075   4.707 -0.4977 -0.0114 -0.0419
 3587SOL    HW212213   7.482   2.070   4.587  0.4279 -0.3782  0.6656
 3588SOL     OW12214   5.233   5.461   2.290 -0.3534  0.0980  0.0852
 3588SOL    HW112215   5.310   5.473   2.345 -0.3888 -0.5066  0.2752
 3588SOL    HW212216   5.177   5.537   2.309  0.8364  1.3335 -1.1528
 3589SOL     OW12217   4.421   7.323   6.232  0.0024  0.3385  0.6010
 3589SOL    HW112218   4.475   7.246   6.250 -0.8964 -0.4696 -0.0396
 3589SOL    HW212219   4.425   7.375   6.312  0.9220 -0.1942  0.9098
 3590SOL     OW12220   2.334   2.865   1.799 -0.4813  0.0683 -0.3316
 3590SOL    HW112221   2.312   2.952   1.832  0.2014 -0.8176  2.7572
 3590SOL    HW212222   2.428   2.870   1.782 -0.1714 -0.3871  1.1284
 3591SOL     OW12223   5.276   4.305   3.355  0.0721 -0.2993  0.1502
 3591SOL    HW112224   5.310   4.226   3.395 -0.7863 -0.7521  0.0120
 3591SOL    HW212225   5.182   4.289   3.346  0.1712 -0.1029 -1.7592
 3592SOL     OW12226   5.336   3.517   4.786  0.2991  0.3938  0.2703
 3592SOL    HW112227   5.357   3.439   4.838  0.3068  0.3456  0.1950
 3592SOL    HW212228   5.323   3.586   4.851 -1.1085  0.0119  0.4212
 3593SOL     OW12229   0.099   7.448   1.389 -0.1330 -0.3202 -0.1367
 3593SOL    HW112230   0.017   7.413   1.424  0.2151 -0.4553  0.5700
 3593SOL    HW212231   0.137   7.495   1.462 -0.1363  0.7437 -0.8082
 3594SOL     OW12232   5.872   2.166   8.393  0.3506  0.1950  0.0162
 3594SOL    HW112233   5.777   2.175   8.389  0.4590  1.1520 -1.4557
 3594SOL    HW212234   5.888   2.103   8.463 -1.3299  0.5180  0.7316
 3595SOL     OW12235   8.456   2.053   3.551  0.4654 -0.1788 -0.5429
 3595SOL    HW112236   8.542   2.094   3.544  0.8212 -0.3344  2.1425
 3595SOL    HW212237   8.396   2.124   3.574  0.5407 -0.6293  1.1174
 3596SOL     OW12238   5.161   4.302   4.617 -0.1792  0.5462  0.1885
 3596SOL    HW112239   5.210   4.223   4.593  0.8005  1.5044 -1.0860
 3596SOL    HW212240   5.086   4.269   4.667  0.0923 -1.2006 -0.4834
 3597SOL     OW12241   4.861   9.236   7.715 -0.3321 -0.4771  0.2606
 3597SOL    HW112242   4.927   9.192   7.661  0.0878 -1.4251  1.4962
 3597SOL    HW212243   4.797   9.168   7.734 -0.4965 -0.1542  0.8989
 3598SOL     OW12244   1.312   3.694   1.326 -0.1798  0.2401  0.0870
 3598SOL    HW112245   1.382   3.714   1.388  0.4378 -1.5098  0.0282
 3598SOL    HW212246   1.311   3.767   1.265  0.9287  0.7628  0.6753
 3599SOL     OW12247   4.279   6.415   2.479  0.4139 -0.0370 -0.0356
 3599SOL    HW112248   4.259   6.339   2.533  0.9584  0.1898  0.4951
 3599SOL    HW212249   4.374   6.423   2.482  0.3371  0.9070  0.2548
 3600SOL     OW12250   0.680   3.641   6.857 -0.7223 -0.1678 -0.0691
 3600SOL    HW112251   0.754   3.601   6.812 -1.6207 -2.2237  0.2078
 3600SOL    HW212252   0.720   3.697   6.924  0.5778  0.7447 -1.5233
 3601SOL     OW12253   3.002   0.967   9.224  0.0042  0.0363 -0.4703
 3601SOL    HW112254   3.049   0.969   9.308  0.5482 -0.1228 -0.7687
 3601SOL    HW212255   3.053   0.908   9.169 -1.3672 -1.3515 -0.3188
 3602SOL     OW12256   1.938   8.766   2.947 -0.1193 -0.0377  0.4694
 3602SOL    HW112257   2.015   8.822   2.946 -0.3007  0.2098 -0.7449
 3602SOL    HW212258   1.869   8.822   2.984 -0.2372  0.4635 -0.4893
 3603SOL     OW12259   7.779   9.115   1.106  0.2009  0.0184  0.4519
 3603SOL    HW112260   7.819   9.202   1.100  0.8830 -0.3918 -1.6950
 3603SOL    HW212261   7.823   9.063   1.038 -0.1280 -2.0538  1.7300
 3604SOL     OW12262   4.830   7.840   0.277 -0.0532  0.0246  0.3229
 3604SOL    HW112263   4.870   7.758   0.306 -0.6180 -0.1051  0.7529
 3604SOL    HW212264   4.836   7.837   0.181  0.7530 -0.0963  0.3734
 3605SOL     OW12265   2.470   3.768   3.103  0.2373 -0.2934 -0.4019
 3605SOL    HW112266   2.465   3.790   3.196 -1.6984  2.0735 -0.9756
 3605SOL    HW212267   2.418   3.688   3.094 -1.3172  0.6000  0.2977
 3606SOL     OW12268   4.795   7.752   3.102  0.1954  0.0971 -0.1257
 3606SOL    HW112269   4.699   7.752   3.103  0.1453  1.4406  1.5266
 3606SOL    HW212270   4.819   7.669   3.143 -0.3480  0.6832  1.4687
 3607SOL     OW12271   0.341   2.644   7.591  0.0199 -0.2641 -0.3938
 3607SOL    HW112272   0.330   2.735   7.562 -2.3165 -0.4003 -0.1269
 3607SOL    HW212273   0.428   2.620   7.560 -0.1332  1.4001 -2.3538
 3608SOL     OW12274   8.929   3.143   7.998  0.6129  0.2638  0.4560
 3608SOL    HW112275   9.016   3.107   7.977 -0.5943 -2.1525 -0.7751
 3608SOL    HW212276   8.905   3.193   7.919 -0.4953 -1.9773 -0.7064
 3609SOL     OW12277   3.067   6.171   3.798 -0.0758 -0.0703 -0.7974
 3609SOL    HW112278   3.084   6.244   3.738 -0.5447  0.1825 -0.6337
 3609SOL    HW212279   3.152   6.150   3.836 -0.1008  1.0484 -0.1008
 3610SOL     OW12280   8.975   4.486   6.061 -0.4686  0.2101  0.1977
 3610SOL    HW112281   8.954   4.394   6.077 -0.7386  0.2143 -0.1404
 3610SOL    HW212282   9.067   4.495   6.088  0.4428 -0.8033 -2.3596
 3611SOL     OW12283   5.739   3.877   8.729 -0.1772 -0.3942 -0.5027
 3611SOL    HW112284   5.649   3.872   8.759  0.2971 -0.9700  0.9481
 3611SOL    HW212285   5.760   3.970   8.729 -0.3230 -0.3496  0.6484
 3612SOL     OW12286   8.908   4.645   6.283  0.7529 -0.6200  0.3234
 3612SOL    HW112287   8.855   4.615   6.209  2.9585  0.0497 -1.6501
 3612SOL    HW212288   8.976   4.700   6.243  0.4265  2.1265  3.1385
 3613SOL     OW12289   5.934   4.385   2.745  0.3727 -0.3898 -0.2723
 3613SOL    HW112290   5.980   4.327   2.685 -1.1833 -0.0547 -1.8892
 3613SOL    HW212291   5.886   4.326   2.803  0.3120 -0.7324 -0.6669
 3614SOL     OW12292   1.957   6.496   0.714 -0.1571  0.2164 -0.1275
 3614SOL    HW112293   1.987   6.581   0.747  0.2788 -0.1774  0.5161
 3614SOL    HW212294   1.878   6.516   0.664  0.5419  1.1425 -0.8973
 3615SOL     OW12295   5.283   1.792   0.928  0.1008 -0.6993  0.1551
 3615SOL    HW112296   5.290   1.843   0.848  0.3056  0.4190  0.8662
 3615SOL    HW212297   5.371   1.792   0.965 -0.4114  0.6540  1.4740
 3616SOL     OW12298   7.512   3.770   0.686 -0.3563  0.1414 -0.3242
 3616SOL    HW112299   7.538   3.695   0.632 -0.2028 -0.3135  0.3758
 3616SOL    HW212300   7.551   3.845   0.641  0.5853 -0.3360 -0.3331
 3617SOL     OW12301   6.178   0.708   5.716  0.1649 -0.6488  0.2943
 3617SOL    HW112302   6.134   0.779   5.670  1.9403 -0.5195 -1.3203
 3617SOL    HW212303   6.229   0.752   5.784  0.2018 -0.5058  0.1754
 3618SOL     OW12304   0.333   7.660   4.547  0.2376  0.5564  0.4471
 3618SOL    HW112305   0.347   7.631   4.457 -2.5589  2.6742 -0.8123
 3618SOL    HW212306   0.375   7.746   4.552  1.0544  0.1258  1.4565
 3619SOL     OW12307   7.394   6.218   3.296 -0.1570  0.1483  0.5675
 3619SOL    HW112308   7.420   6.251   3.382 -1.0714 -1.5451  1.5431
 3619SOL    HW212309   7.310   6.259   3.278  0.5411  1.3510 -0.0507
 3620SOL     OW12310   7.367   8.303   0.126  0.5036 -0.1316  0.0453
 3620SOL    HW112311   7.420   8.348   0.060  1.4796 -0.1819  0.7724
 3620SOL    HW212312   7.331   8.373   0.180  0.4112 -0.1336 -0.0139
 3621SOL     OW12313   1.466   5.864   2.092 -0.3072 -0.4260  0.7003
 3621SOL    HW112314   1.453   5.773   2.119 -0.7949 -0.4963  0.2658
 3621SOL    HW212315   1.377   5.901   2.090 -0.6280 -1.0238 -2.8081
 3622SOL     OW12316   8.298   7.336   0.390  0.5244  0.2967  0.3851
 3622SOL    HW112317   8.378   7.376   0.356  0.5832  0.5083  0.7709
 3622SOL    HW212318   8.293   7.365   0.481  0.6611 -0.7040  0.7241
 3623SOL     OW12319   4.530   8.251   2.200 -0.1904  0.1251  0.2169
 3623SOL    HW112320   4.470   8.264   2.127  1.1803 -0.7310 -1.1019
 3623SOL    HW212321   4.483   8.194   2.261 -0.6575 -0.6776 -0.8737
 3624SOL     OW12322   3.427   8.545   6.000  0.0829 -0.1947  0.6920
 3624SOL    HW112323   3.502   8.540   6.060  1.9776  2.6927 -1.1620
 3624SOL    HW212324   3.436   8.630   5.957 -2.3889 -1.1523 -2.1048
 3625SOL     OW12325   6.418   2.813   3.514 -0.1363 -0.3566  0.6990
 3625SOL    HW112326   6.446   2.743   3.456 -0.7906 -0.9468  1.0912
 3625SOL    HW212327   6.322   2.812   3.510 -0.1717  0.0429  1.2572
 3626SOL     OW12328   0.011   4.678   4.555  0.4066  0.1505 -0.0164
 3626SOL    HW112329  -0.079   4.712   4.564  0.1408 -0.0574 -1.6440
 3626SOL    HW212330   0.063   4.755   4.532  0.5545  0.1705  0.3753
 3627SOL     OW12331   3.486   5.062   4.538 -1.2151  0.4110 -0.1556
 3627SOL    HW112332   3.516   5.151   4.521  0.9329  0.0273  1.1963
 3627SOL    HW212333   3.481   5.057   4.634 -0.6433 -1.0824 -0.1781
 3628SOL     OW12334   2.737   7.913   5.585 -0.0946  0.2797  0.0705
 3628SOL    HW112335   2.770   7.945   5.669 -0.0332  1.1817 -0.2832
 3628SOL    HW212336   2.812   7.919   5.526 -0.1254 -0.3862 -0.0515
 3629SOL     OW12337   7.790   2.847   7.009  0.2184  0.7858  0.2689
 3629SOL    HW112338   7.720   2.911   6.995 -0.4958 -0.3019 -1.6016
 3629SOL    HW212339   7.809   2.813   6.921  1.5832 -0.4967  1.0145
 3630SOL     OW12340   8.419   1.185   5.585  0.4504  0.4862 -0.2695
 3630SOL    HW112341   8.432   1.262   5.529 -1.2729 -0.0685 -1.5192
 3630SOL    HW212342   8.458   1.113   5.536  0.0337  0.1981 -0.1823
 3631SOL     OW12343   8.614   2.446   5.660 -0.0122  0.3579  0.3829
 3631SOL    HW112344   8.691   2.434   5.605  1.2679  0.3215  2.1163
 3631SOL    HW212345   8.647   2.488   5.740 -1.1536 -2.6708  2.6418
 3632SOL     OW12346   7.316   7.361   1.804  0.2575  0.1894 -0.2658
 3632SOL    HW112347   7.290   7.436   1.751 -0.0569  0.3586  0.1240
 3632SOL    HW212348   7.236   7.335   1.850  0.1180 -0.9813 -1.1115
 3633SOL     OW12349   0.658   0.434   4.202 -0.2397  0.1696  0.0931
 3633SOL    HW112350   0.745   0.416   4.237 -0.3699  1.5064  1.1574
 3633SOL    HW212351   0.599   0.378   4.253 -0.0944 -0.2481 -0.1866
 3634SOL     OW12352   4.044   4.226   1.482  0.4316 -0.0908 -0.1495
 3634SOL    HW112353   3.996   4.223   1.564 -0.5590 -0.4551 -0.7176
 3634SOL    HW212354   4.014   4.148   1.434  3.2016 -1.5836  0.3261
 3635SOL     OW12355   3.643   7.219   4.227  0.3847 -0.1536 -1.1445
 3635SOL    HW112356   3.574   7.166   4.188  0.8137 -0.9803 -0.8082
 3635SOL    HW212357   3.607   7.247   4.312  0.2870 -0.1929 -1.1729
 3636SOL     OW12358   2.751   5.418   2.190 -0.0567  0.0122 -0.5670
 3636SOL    HW112359   2.666   5.388   2.221 -0.4300 -0.5844 -2.0849
 3636SOL    HW212360   2.815   5.366   2.238 -0.5271  0.6475  0.7768
 3637SOL     OW12361   6.419   3.887   5.863 -0.5879  0.3042  0.4416
 3637SOL    HW112362   6.412   3.877   5.958 -1.4195 -0.7759  0.2877
 3637SOL    HW212363   6.508   3.860   5.843 -1.7569 -4.6033  0.4136
 3638SOL     OW12364   1.578   3.920   1.868  0.4701 -0.7968 -0.6740
 3638SOL    HW112365   1.563   3.833   1.832  0.9943 -1.6715  1.1484
 3638SOL    HW212366   1.635   3.906   1.943  0.3489  1.0929 -0.1853
 3639SOL     OW12367   5.866   8.921   5.398 -0.2159 -0.4725 -0.5033
 3639SOL    HW112368   5.959   8.925   5.420 -0.1774  0.9941 -0.8439
 3639SOL    HW212369   5.823   8.975   5.464 -0.8224 -1.0035 -0.4471
 3640SOL     OW12370   4.555   3.259   1.704 -0.5095  0.2419  0.8163
 3640SOL    HW112371   4.500   3.215   1.639 -0.6678  1.0522  0.3864
 3640SOL    HW212372   4.633   3.203   1.711  2.0997  2.6411 -4.0721
 3641SOL     OW12373   2.772   1.553   9.141  0.1532 -0.7298 -0.2365
 3641SOL    HW112374   2.806   1.587   9.223  0.0070  1.8084 -1.1313
 3641SOL    HW212375   2.849   1.543   9.085  0.3148 -2.9086  0.2886
 3642SOL     OW12376   5.093   4.773   2.297  0.0901 -0.4107  0.2419
 3642SOL    HW112377   5.014   4.827   2.288  0.1781 -0.2219  0.5438
 3642SOL    HW212378   5.164   4.837   2.304  0.5200 -0.5787 -1.9290
 3643SOL     OW12379   1.322   5.995   4.709  0.1348  0.3078  0.0589
 3643SOL    HW112380   1.329   5.935   4.635  0.8504 -0.6919  0.9224
 3643SOL    HW212381   1.321   5.939   4.786 -1.7917  1.2493  0.7978
 3644SOL     OW12382   6.039   8.282   6.592  0.3479 -0.2108  0.6930
 3644SOL    HW112383   6.061   8.295   6.500  0.0014  0.1774  0.6626
 3644SOL    HW212384   5.964   8.340   6.608 -1.3943 -2.2944  0.5055
 3645SOL     OW12385   6.160   1.475   0.360  0.4364  0.6271  0.2760
 3645SOL    HW112386   6.197   1.506   0.278 -1.3279  1.8933 -0.1022
 3645SOL    HW212387   6.081   1.528   0.373 -1.0124 -1.5870  1.2466
 3646SOL     OW12388   1.994   4.765   5.757  0.0349 -0.0378 -0.6863
 3646SOL    HW112389   2.028   4.848   5.791 -0.7459  1.3119 -2.9898
 3646SOL    HW212390   1.933   4.790   5.687  0.6154 -2.5632 -2.2487
 3647SOL     OW12391   6.362   8.965   4.102  0.3876  0.2347  0.1030
 3647SOL    HW112392   6.428   8.907   4.063  1.6149  2.2627 -0.9751
 3647SOL    HW212393   6.412   9.036   4.142 -1.1124  1.3083  0.1554
 3648SOL     OW12394   3.989   4.900   6.790  0.1656  0.6866  0.1792
 3648SOL    HW112395   3.919   4.955   6.755 -1.3563 -1.4031 -0.3154
 3648SOL    HW212396   4.019   4.849   6.715 -1.3806 -2.0475  1.2395
 3649SOL     OW12397   0.959   6.703   3.054 -0.0801  0.4199 -0.0376
 3649SOL    HW112398   1.001   6.712   2.968 -0.1553 -1.3382 -0.3083
 3649SOL    HW212399   0.980   6.613   3.080 -1.4628  0.3903  1.0322
 3650SOL     OW12400   0.468   5.533   4.786  0.2941  0.2043  0.5861
 3650SOL    HW112401   0.419   5.453   4.765  0.7499 -0.1513  0.8286
 3650SOL    HW212402   0.560   5.507   4.776  0.4173  1.0540 -0.5344
 3651SOL     OW12403   8.197   1.409   3.564  0.2135  0.1103  0.6754
 3651SOL    HW112404   8.178   1.488   3.614  0.3659 -0.0518  0.9941
 3651SOL    HW212405   8.162   1.338   3.617  0.8694 -0.1088  0.8234
 3652SOL     OW12406   0.150   4.246   1.999 -0.3017  0.6497 -0.0554
 3652SOL    HW112407   0.165   4.257   1.905 -0.3641  2.1236  0.0813
 3652SOL    HW212408   0.077   4.304   2.018  2.0602  3.3634  1.5300
 3653SOL     OW12409   6.682   3.151   6.843  0.3306 -0.7623  0.4745
 3653SOL    HW112410   6.706   3.134   6.934 -0.4425  1.0638  1.0755
 3653SOL    HW212411   6.742   3.097   6.792  2.2811 -0.1866  2.0148
 3654SOL     OW12412   0.577   3.490   4.445  0.1163 -0.4020  0.2621
 3654SOL    HW112413   0.515   3.442   4.501 -1.5886  0.5314 -0.7231
 3654SOL    HW212414   0.638   3.531   4.506 -0.7173 -0.7142  1.3490
 3655SOL     OW12415   4.259   3.354   2.616 -0.3358  0.2898 -0.0182
 3655SOL    HW112416   4.341   3.305   2.613  0.4225  1.5234 -0.6834
 3655SOL    HW212417   4.208   3.320   2.542 -0.1706 -0.0802  0.0377
 3656SOL     OW12418   3.947   5.471   7.837  0.0488  0.1327  0.1790
 3656SOL    HW112419   3.931   5.389   7.884  0.4429 -0.1505 -0.1637
 3656SOL    HW212420   3.973   5.533   7.904  1.4789 -0.5024  0.2500
 3657SOL     OW12421   0.086   0.068   4.420 -0.1640  0.0645  0.3476
 3657SOL    HW112422   0.025   0.067   4.494 -1.7237 -0.4009 -0.8935
 3657SOL    HW212423   0.109  -0.024   4.408 -1.6573 -0.1630 -1.0819
 3658SOL     OW12424   4.189   5.096   6.127  0.0752 -0.1559  0.5602
 3658SOL    HW112425   4.105   5.061   6.098  0.9631 -0.5611 -1.7461
 3658SOL    HW212426   4.245   5.018   6.138  0.2278  0.1166  1.9176
 3659SOL     OW12427   4.063   8.900   9.256  0.0891 -0.3333  0.7491
 3659SOL    HW112428   4.076   8.807   9.276 -0.3220 -0.8679 -1.2260
 3659SOL    HW212429   3.973   8.918   9.283 -0.8288 -1.3260 -1.4299
 3660SOL     OW12430   8.101   2.237   8.753 -0.3953 -0.4609 -0.3307
 3660SOL    HW112431   8.146   2.318   8.778 -0.4167 -0.4354 -0.3755
 3660SOL    HW212432   8.008   2.258   8.761 -0.4118 -0.3184 -0.8447
 3661SOL     OW12433   1.058   5.568   3.631 -0.0006 -0.0180 -0.0628
 3661SOL    HW112434   1.112   5.492   3.611 -2.8138 -2.2480  0.1713
 3661SOL    HW212435   1.095   5.639   3.578  2.2618 -1.7166 -0.8973
 3662SOL     OW12436   5.875   6.888   7.426  0.0691 -0.0161 -0.0630
 3662SOL    HW112437   5.860   6.863   7.518 -0.7260 -0.2838 -0.2588
 3662SOL    HW212438   5.930   6.966   7.432  2.7662 -1.8096  0.5607
 3663SOL     OW12439   6.802   8.157   5.901  0.0035  0.2090  0.7395
 3663SOL    HW112440   6.852   8.124   5.826 -1.9382 -0.2768 -0.4329
 3663SOL    HW212441   6.778   8.079   5.950 -1.6961  0.1209 -0.1404
 3664SOL     OW12442   1.395   3.423   7.576  0.5481  0.4457  0.2902
 3664SOL    HW112443   1.483   3.460   7.571  1.8779 -2.5205 -0.6174
 3664SOL    HW212444   1.404   3.346   7.631 -1.4032 -0.1906 -0.1993
 3665SOL     OW12445   6.337   0.845   0.236 -0.1300  0.1846 -0.0126
 3665SOL    HW112446   6.421   0.800   0.224 -0.7222 -0.8359 -0.4772
 3665SOL    HW212447   6.313   0.826   0.327  0.0935  0.3785  0.0853
 3666SOL     OW12448   7.642   5.267   0.774  0.1005 -0.3680 -0.0396
 3666SOL    HW112449   7.552   5.263   0.741 -1.3103  0.1936  3.3349
 3666SOL    HW212450   7.671   5.357   0.757 -0.3589 -0.2617 -0.2567
 3667SOL     OW12451   4.955   5.133   1.248 -0.5353 -0.3382 -0.2491
 3667SOL    HW112452   4.927   5.222   1.272 -0.7908 -0.6540  0.6783
 3667SOL    HW212453   4.949   5.131   1.153  1.6932  1.3678 -0.4930
 3668SOL     OW12454   0.079   8.403   7.239 -0.5433 -0.0092 -0.1696
 3668SOL    HW112455   0.138   8.339   7.200  2.7154  2.1437  0.8136
 3668SOL    HW212456   0.119   8.423   7.324 -1.8004  2.7567 -0.1296
 3669SOL     OW12457   7.033   7.153   7.260 -0.7258 -0.0882 -0.1448
 3669SOL    HW112458   7.001   7.244   7.262 -1.7787 -0.4512  0.3005
 3669SOL    HW212459   7.017   7.124   7.171 -2.3452 -0.4854  0.2465
 3670SOL     OW12460   4.494   0.698   6.427 -0.3500 -0.1287 -0.8956
 3670SOL    HW112461   4.410   0.743   6.421  0.2220  1.1961  0.4293
 3670SOL    HW212462   4.504   0.656   6.342 -3.1389 -1.8508 -0.5187
 3671SOL     OW12463   0.767   1.806   0.476  0.4846 -0.3718  0.0783
 3671SOL    HW112464   0.752   1.846   0.562 -0.9008  0.4888 -0.5246
 3671SOL    HW212465   0.842   1.853   0.441  0.4476 -0.0528  0.4169
 3672SOL     OW12466   7.442   0.193   5.440 -0.2145  0.1184  0.2673
 3672SOL    HW112467   7.423   0.181   5.533 -1.6031  0.9819  0.1284
 3672SOL    HW212468   7.374   0.254   5.409 -0.2196 -0.7072 -1.4744
 3673SOL     OW12469   8.821   1.112   1.461 -0.4455  0.0737  0.1379
 3673SOL    HW112470   8.835   1.129   1.368 -0.6105  0.6156  0.2048
 3673SOL    HW212471   8.903   1.140   1.503 -1.5404  3.0936  0.5130
 3674SOL     OW12472   0.767   1.885   6.595 -0.1160  0.0289  0.3172
 3674SOL    HW112473   0.740   1.949   6.529  1.7759  1.1394  0.5339
 3674SOL    HW212474   0.856   1.911   6.618 -0.4280 -0.7967  2.7687
 3675SOL     OW12475   5.949   5.042   5.485 -0.0175 -0.6706 -0.1499
 3675SOL    HW112476   6.020   5.004   5.536  1.1280  1.2326 -0.2567
 3675SOL    HW212477   5.955   5.136   5.500 -1.6282 -0.3303 -1.3050
 3676SOL     OW12478   1.272   5.663   6.113  0.1994  0.5348 -0.3919
 3676SOL    HW112479   1.335   5.724   6.075  2.8398 -0.8733  1.3806
 3676SOL    HW212480   1.297   5.658   6.205 -1.7513 -1.0748  0.1149
 3677SOL     OW12481   1.663   6.513   5.776 -0.1901  0.0710 -0.1522
 3677SOL    HW112482   1.645   6.597   5.818  1.7303  0.8232 -0.7189
 3677SOL    HW212483   1.578   6.484   5.743 -1.6429 -0.0825  3.2973
 3678SOL     OW12484   8.564   5.224   8.866  0.4606  0.6399  0.1487
 3678SOL    HW112485   8.477   5.215   8.904 -0.1498  1.6576 -0.9434
 3678SOL    HW212486   8.624   5.217   8.941 -0.3407 -2.7056  0.6324
 3679SOL     OW12487   0.544   3.587   6.309  0.3598  0.7144 -0.4260
 3679SOL    HW112488   0.496   3.588   6.227 -0.1329 -0.7806 -0.1909
 3679SOL    HW212489   0.636   3.582   6.283  0.2349  0.7808 -0.8854
 3680SOL     OW12490   3.369   6.421   5.927  0.0740  0.3397 -0.1404
 3680SOL    HW112491   3.349   6.434   5.835  1.4222 -1.0674 -0.6648
 3680SOL    HW212492   3.456   6.383   5.928  0.7180  1.6785  1.7992
 3681SOL     OW12493   8.583   4.184   5.167 -0.2808  0.8590 -0.3381
 3681SOL    HW112494   8.491   4.157   5.166 -0.5246  1.5501  1.1009
 3681SOL    HW212495   8.579   4.280   5.167  0.4404  0.8884 -0.4937
 3682SOL     OW12496   1.886   6.648   6.123 -0.1274  0.0823  0.4980
 3682SOL    HW112497   1.809   6.596   6.098 -0.5186  0.6243  0.5404
 3682SOL    HW212498   1.850   6.721   6.173  0.2639  1.0766 -0.6074
 3683SOL     OW12499   0.734   3.889   4.350  0.6335 -0.0804 -0.8214
 3683SOL    HW112500   0.753   3.970   4.397  1.9205 -0.0681 -1.3143
 3683SOL    HW212501   0.781   3.898   4.267  0.5325 -1.1881 -1.0151
 3684SOL     OW12502   7.362   3.108   5.298  0.2126  0.2578  0.4781
 3684SOL    HW112503   7.289   3.142   5.246  0.9999  1.4077  0.1007
 3684SOL    HW212504   7.323   3.088   5.384 -0.2867  2.1287  0.7185
 3685SOL     OW12505   8.694   6.433   2.946  0.3744 -0.3032 -0.2625
 3685SOL    HW112506   8.685   6.449   2.852  1.1166  0.8159 -0.1654
 3685SOL    HW212507   8.606   6.408   2.974 -0.1720  0.6799 -1.0331
 3686SOL     OW12508   5.496   6.151   5.729 -0.0937 -0.1397  0.3294
 3686SOL    HW112509   5.576   6.166   5.778  1.2619 -0.1829 -1.7181
 3686SOL    HW212510   5.488   6.228   5.672 -1.1244 -0.4573  0.0193
 3687SOL     OW12511   4.014   0.472   5.123  0.8938  0.2446  0.1827
 3687SOL    HW112512   4.029   0.542   5.187 -1.6273 -1.0924  2.4696
 3687SOL    HW212513   4.035   0.392   5.170 -1.6456 -0.8377 -0.3237
 3688SOL     OW12514   5.397   6.787   3.424  0.0271  0.2045 -0.2730
 3688SOL    HW112515   5.383   6.716   3.361  1.5259 -0.2512 -0.1483
 3688SOL    HW212516   5.353   6.862   3.385  1.8736  0.2515 -2.4989
 3689SOL     OW12517   6.101   6.411   6.015  0.1884 -0.5711  0.1169
 3689SOL    HW112518   6.194   6.428   6.030  0.2036  0.7662 -1.2441
 3689SOL    HW212519   6.072   6.364   6.092  1.5712  0.6882  1.4636
 3690SOL     OW12520   3.585   6.534   3.992  0.1436 -0.5525 -0.3446
 3690SOL    HW112521   3.637   6.456   4.013  1.5579  0.3280 -0.4183
 3690SOL    HW212522   3.649   6.605   3.993 -0.8997  0.4271 -1.4464
 3691SOL     OW12523   3.246   3.070   4.151 -0.3285 -0.2489  0.1576
 3691SOL    HW112524   3.248   2.999   4.086  1.0463 -0.4685  0.4254
 3691SOL    HW212525   3.315   3.048   4.213  0.0206  1.2689  0.3246
 3692SOL     OW12526   4.709   0.900   0.846 -0.5754 -0.2319  0.3850
 3692SOL    HW112527   4.639   0.965   0.857 -1.6086 -1.3649  0.7384
 3692SOL    HW212528   4.670   0.832   0.792  0.2313 -0.9203  0.6486
 3693SOL     OW12529   4.444   4.615   5.213 -0.4558  0.1980  0.0297
 3693SOL    HW112530   4.488   4.696   5.185 -0.8199  0.2812 -0.2963
 3693SOL    HW212531   4.351   4.637   5.216 -0.4228  0.2667  1.5407
 3694SOL     OW12532   8.677   9.044   0.846  0.2239  0.6552  0.4258
 3694SOL    HW112533   8.592   9.000   0.843 -0.3070  1.6633 -1.9066
 3694SOL    HW212534   8.739   8.979   0.813 -0.0254  0.6319 -0.0018
 3695SOL     OW12535   7.168   7.952   7.235 -0.2933 -0.3584 -0.5078
 3695SOL    HW112536   7.123   8.020   7.186 -1.0811 -0.3106  0.2479
 3695SOL    HW212537   7.232   8.000   7.288  0.2442 -0.3661 -1.1502
 3696SOL     OW12538   8.306   1.082   7.262  0.2179 -0.8265  0.2495
 3696SOL    HW112539   8.332   1.010   7.319  0.2203 -0.7390  0.3584
 3696SOL    HW212540   8.297   1.157   7.320  2.8996 -0.0387 -0.2003
 3697SOL     OW12541   4.069   3.035   0.537  0.6660  0.8519  0.5081
 3697SOL    HW112542   4.090   3.128   0.533 -4.5736  2.3492 -0.5355
 3697SOL    HW212543   4.005   3.029   0.608  0.1144 -1.7305 -0.1212
 3698SOL     OW12544   4.342   7.652   6.559 -0.0355 -0.3712  0.0236
 3698SOL    HW112545   4.313   7.642   6.650 -1.2593  1.1987 -0.1375
 3698SOL    HW212546   4.398   7.729   6.560 -0.0713 -0.3320 -0.5498
 3699SOL     OW12547   3.469   5.424   1.085  0.7635 -0.5161  0.4876
 3699SOL    HW112548   3.386   5.382   1.109  1.6840 -2.2263  0.8582
 3699SOL    HW212549   3.515   5.434   1.168 -0.2502  3.4142  0.8041
 3700SOL     OW12550   0.981   8.821   6.880  1.0132 -0.1152  0.0376
 3700SOL    HW112551   0.947   8.741   6.839  1.2322 -0.4200  0.4323
 3700SOL    HW212552   1.055   8.790   6.933 -0.3054 -0.0031  2.0291
 3701SOL     OW12553   5.355   3.969   1.342  0.9484 -0.2881 -0.3727
 3701SOL    HW112554   5.338   4.063   1.348 -2.3889 -0.8540  0.8508
 3701SOL    HW212555   5.305   3.940   1.265 -1.7868 -1.6330  1.7514
 3702SOL     OW12556   7.777   5.057   8.255 -0.1412  0.1744 -0.2155
 3702SOL    HW112557   7.865   5.023   8.240  0.1718  0.5885  0.6187
 3702SOL    HW212558   7.719   4.982   8.241  0.2434  0.1231 -1.7302
 3703SOL     OW12559   7.092   6.913   2.062 -0.1104  0.1625  0.7697
 3703SOL    HW112560   7.131   6.985   2.013 -0.0165  0.5562  1.4149
 3703SOL    HW212561   7.039   6.866   1.997 -2.0076  2.1103  0.7892
 3704SOL     OW12562   8.098   3.435   5.828  0.4842 -0.2771 -0.3125
 3704SOL    HW112563   8.191   3.419   5.843  0.3958  0.0751  0.6652
 3704SOL    HW212564   8.062   3.454   5.915 -0.5738 -0.7689 -0.6252
 3705SOL     OW12565   2.175   5.176   0.617  0.8655  0.2732 -0.2438
 3705SOL    HW112566   2.205   5.184   0.708  0.0555  2.9045 -0.1275
 3705SOL    HW212567   2.133   5.090   0.613  1.7733 -0.3157  1.5864
 3706SOL     OW12568   5.883   7.272   7.285 -0.1290 -0.1425  0.3430
 3706SOL    HW112569   5.868   7.260   7.191  0.3232 -0.2334  0.2795
 3706SOL    HW212570   5.802   7.244   7.326  0.5554 -2.5779  0.1590
 3707SOL     OW12571   5.317   7.454   3.326 -0.5062 -0.0246 -0.3938
 3707SOL    HW112572   5.344   7.433   3.236  0.2670  0.9264 -0.3935
 3707SOL    HW212573   5.222   7.467   3.320 -0.3178  1.0558 -1.2849
 3708SOL     OW12574   2.875   5.955   2.791 -0.1738 -0.3283 -0.0245
 3708SOL    HW112575   2.965   5.928   2.808 -0.0037 -0.5814 -1.2707
 3708SOL    HW212576   2.883   6.039   2.746 -0.5847 -0.1534  0.2231
 3709SOL     OW12577   7.118   2.673   8.425  0.3999  0.0465 -0.1116
 3709SOL    HW112578   7.058   2.731   8.378 -0.3265 -0.6059 -0.0128
 3709SOL    HW212579   7.061   2.623   8.483  1.0012 -0.8595 -0.2930
 3710SOL     OW12580   4.969   5.682   0.260 -0.2298  0.3669 -0.2929
 3710SOL    HW112581   4.958   5.690   0.355  0.7439  1.1733 -0.2302
 3710SOL    HW212582   5.045   5.625   0.249  0.3736  1.1969 -0.5545
 3711SOL     OW12583   7.611   6.499   5.964  0.1942  0.0615  0.3410
 3711SOL    HW112584   7.672   6.549   5.910  0.7672 -0.6475  0.3182
 3711SOL    HW212585   7.629   6.528   6.054  0.6801 -0.2402  0.3499
 3712SOL     OW12586   9.090   8.572   3.357  0.3490 -0.2296  0.1392
 3712SOL    HW112587   9.025   8.606   3.419  1.9085 -0.7849  2.1925
 3712SOL    HW212588   9.168   8.557   3.410  1.6572 -1.1317 -1.9174
 3713SOL     OW12589   3.526   3.005   1.250 -0.2029 -0.1967  0.0436
 3713SOL    HW112590   3.545   3.090   1.210 -0.5348 -0.1961 -0.1218
 3713SOL    HW212591   3.464   3.025   1.320  0.2164 -0.2253  0.4264
 3714SOL     OW12592   6.078   4.427   7.590 -0.1369 -0.3857  0.2805
 3714SOL    HW112593   6.005   4.487   7.569  0.3982  0.5596  1.0679
 3714SOL    HW212594   6.074   4.417   7.685  1.2684  0.3542  0.4377
 3715SOL     OW12595   8.116   7.610   4.091 -0.7197  0.9417 -0.0926
 3715SOL    HW112596   8.176   7.678   4.122 -2.2274  2.1374  0.3862
 3715SOL    HW212597   8.123   7.540   4.156  0.2402  0.9988 -0.1251
 3716SOL     OW12598   1.830   7.776   0.608 -0.2032 -0.0804 -0.9840
 3716SOL    HW112599   1.902   7.779   0.545  1.1439 -0.1402  0.4658
 3716SOL    HW212600   1.774   7.705   0.577  1.7422 -1.8131 -0.8129
 3717SOL     OW12601   5.679   0.609   3.032  0.2092 -0.0062  0.1924
 3717SOL    HW112602   5.728   0.545   3.083 -0.0423 -0.7697 -0.5100
 3717SOL    HW212603   5.595   0.568   3.015  0.3739  0.1334 -1.0271
 3718SOL     OW12604   6.804   4.827   1.099 -0.1042  0.0478 -0.1817
 3718SOL    HW112605   6.882   4.875   1.071 -0.7040  1.1512 -0.0289
 3718SOL    HW212606   6.732   4.867   1.050 -1.1746  1.9245  2.6098
 3719SOL     OW12607   6.665   7.979   6.286 -0.4630  0.1464 -0.3407
 3719SOL    HW112608   6.756   7.994   6.308  0.2082 -2.1227 -1.2214
 3719SOL    HW212609   6.629   7.933   6.362 -0.0462 -1.4668 -1.0676
 3720SOL     OW12610   4.916   8.473   8.955  0.1189  0.1988  0.4426
 3720SOL    HW112611   4.993   8.494   8.903  0.6373  2.7461  2.0520
 3720SOL    HW212612   4.867   8.411   8.902  1.6870  0.9724 -2.0623
 3721SOL     OW12613   2.115   7.823   3.851 -0.2906  0.0628  0.4367
 3721SOL    HW112614   2.058   7.810   3.775  0.1487  1.2571 -0.1190
 3721SOL    HW212615   2.191   7.870   3.816 -0.5297  1.5159  1.7855
 3722SOL     OW12616   0.888   4.731   6.187 -0.2257  0.0597 -0.0553
 3722SOL    HW112617   0.972   4.742   6.231 -0.4218 -2.4723  1.1754
 3722SOL    HW212618   0.910   4.730   6.094  0.7981  1.3943  0.1467
 3723SOL     OW12619   2.880   0.871   7.932 -0.8843 -0.5108  0.0767
 3723SOL    HW112620   2.973   0.852   7.945 -0.0629  0.4288 -3.2497
 3723SOL    HW212621   2.875   0.967   7.927 -1.4057 -0.5854 -2.5782
 3724SOL     OW12622   3.819   4.887   2.217 -0.4822 -0.2737  0.0439
 3724SOL    HW112623   3.882   4.895   2.290 -0.8153  0.3712  0.2709
 3724SOL    HW212624   3.857   4.942   2.148 -0.0130 -1.1213 -0.3944
 3725SOL     OW12625   4.277   3.958   9.104  0.2803  0.4776  0.9741
 3725SOL    HW112626   4.208   3.893   9.098  0.3664  0.2267  2.2970
 3725SOL    HW212627   4.275   3.986   9.196  0.0765  2.5259  0.3934
 3726SOL     OW12628   3.227   2.527   6.213 -0.1149  0.1292 -0.2673
 3726SOL    HW112629   3.233   2.570   6.299 -0.4500  0.3285 -0.3418
 3726SOL    HW212630   3.272   2.443   6.225  0.6720  0.5506 -0.1582
 3727SOL     OW12631   1.678   8.893   0.928 -0.0808 -0.2464  0.0064
 3727SOL    HW112632   1.686   8.800   0.952 -3.0342 -0.3915  0.8520
 3727SOL    HW212633   1.597   8.897   0.877  0.7064  1.7176 -1.2068
 3728SOL     OW12634   6.021   0.647   7.898 -0.4748 -0.1858 -0.2439
 3728SOL    HW112635   5.944   0.645   7.842  0.1973 -0.9606 -1.1989
 3728SOL    HW212636   5.988   0.632   7.986 -1.5533  0.9558 -0.4331
 3729SOL     OW12637   0.913   6.218   6.065  0.1202 -0.0786  0.2176
 3729SOL    HW112638   0.978   6.252   6.004 -1.5943 -0.7311 -2.1322
 3729SOL    HW212639   0.841   6.280   6.061  0.1459  0.1037  1.9906
 3730SOL     OW12640   4.306   1.848   3.114 -0.1314  0.0223 -0.4933
 3730SOL    HW112641   4.266   1.923   3.070  0.1470  0.1317 -0.5628
 3730SOL    HW212642   4.400   1.859   3.098  0.0424  0.4787  0.7647
 3731SOL     OW12643   8.010   5.044   2.861  0.0500  0.3871 -0.6595
 3731SOL    HW112644   7.916   5.028   2.862 -0.0652  0.6814 -2.7383
 3731SOL    HW212645   8.046   4.973   2.809  1.0943 -0.1011  0.6826
 3732SOL     OW12646   1.038   5.096   4.507  0.0527 -0.2992 -0.4991
 3732SOL    HW112647   0.980   5.171   4.515 -2.2649 -1.6654 -2.9058
 3732SOL    HW212648   1.097   5.119   4.434  1.4682  0.3826  0.8132
 3733SOL     OW12649   3.582   0.043   5.170 -0.2333 -0.8757 -0.1383
 3733SOL    HW112650   3.586   0.044   5.266  0.9314 -3.0154 -0.1008
 3733SOL    HW212651   3.671   0.023   5.142 -0.1087  1.6399 -1.8099
 3734SOL     OW12652   7.993   3.361   6.640  0.2046  0.4071 -0.6039
 3734SOL    HW112653   7.997   3.294   6.571  2.0335  0.5084 -0.6276
 3734SOL    HW212654   7.916   3.413   6.617 -1.1591 -1.5314 -0.7097
 3735SOL     OW12655   3.735   4.256   3.597  0.0643  0.2589 -0.0742
 3735SOL    HW112656   3.648   4.225   3.622  0.2556  0.0124  0.2777
 3735SOL    HW212657   3.758   4.320   3.665 -0.6508  1.7733 -1.1859
 3736SOL     OW12658   9.280   7.957   4.049 -0.0065 -0.6109  0.1094
 3736SOL    HW112659   9.310   7.943   3.959 -0.5933 -0.1107 -0.1721
 3736SOL    HW212660   9.197   8.004   4.040 -0.1518 -0.6944  0.9108
 3737SOL     OW12661   7.624   4.884   5.990  0.0973  0.5385 -0.1311
 3737SOL    HW112662   7.687   4.949   5.960  0.0142  0.3486 -0.7212
 3737SOL    HW212663   7.623   4.894   6.086  0.8032  0.7383 -0.1414
 3738SOL     OW12664   7.689   5.772   2.665 -0.4171 -0.0510 -0.4113
 3738SOL    HW112665   7.741   5.851   2.680 -0.8206  0.4336 -1.4758
 3738SOL    HW212666   7.598   5.801   2.675 -0.5523 -0.4931 -0.3180
 3739SOL     OW12667   7.831   3.521   5.140  0.0633 -0.1262 -0.1359
 3739SOL    HW112668   7.924   3.509   5.125 -0.0635 -1.3136 -0.1094
 3739SOL    HW212669   7.790   3.501   5.056 -0.1168  1.5754 -0.4940
 3740SOL     OW12670   5.030   4.091   8.258 -0.0730  0.2481  0.0074
 3740SOL    HW112671   4.972   4.090   8.334 -0.2072 -1.3452 -0.0812
 3740SOL    HW212672   5.096   4.157   8.280  0.4229 -0.8020  1.9403
 3741SOL     OW12673   6.694   1.113   6.545 -0.3362  0.5334 -0.0580
 3741SOL    HW112674   6.719   1.186   6.488 -1.5406  0.5224 -0.6456
 3741SOL    HW212675   6.684   1.152   6.632 -1.9100  1.3096 -0.5438
 3742SOL     OW12676   6.750   7.360   5.628  0.1924  0.6127 -0.0575
 3742SOL    HW112677   6.672   7.349   5.573  0.4240  0.1273 -0.2917
 3742SOL    HW212678   6.715   7.376   5.716 -0.1732 -1.2327  0.1626
 3743SOL     OW12679   2.002   1.381   6.483 -0.2386 -0.0150 -0.1987
 3743SOL    HW112680   2.059   1.362   6.408 -0.1947 -3.1687  0.5171
 3743SOL    HW212681   2.063   1.404   6.554  0.3238 -3.5025  0.5996
 3744SOL     OW12682   1.707   4.268   1.455 -0.2447  0.1429  0.1558
 3744SOL    HW112683   1.776   4.309   1.507 -0.3148  1.4951 -0.7693
 3744SOL    HW212684   1.629   4.320   1.474 -1.2882 -1.8366  1.8195
 3745SOL     OW12685   3.266   4.634   0.087  0.0586 -0.7871  0.1667
 3745SOL    HW112686   3.201   4.695   0.052 -0.7682 -0.9292  1.3644
 3745SOL    HW212687   3.214   4.566   0.131  0.9780 -0.0359  2.6101
 3746SOL     OW12688   8.795   5.996   7.077  0.2218 -0.3926  0.8013
 3746SOL    HW112689   8.848   6.075   7.063 -0.1434 -0.1496  0.7851
 3746SOL    HW212690   8.849   5.925   7.042  0.8042 -0.2308  1.3538
 3747SOL     OW12691   7.327   8.238   1.155 -0.0978  0.0551  0.1620
 3747SOL    HW112692   7.311   8.287   1.075  1.3226 -0.9190 -0.7492
 3747SOL    HW212693   7.288   8.152   1.139 -0.3254  0.0427  0.7553
 3748SOL     OW12694   2.036   7.456   0.853  0.0108 -0.7067  0.0767
 3748SOL    HW112695   2.032   7.427   0.762  2.0330 -0.1538 -0.2359
 3748SOL    HW212696   1.950   7.433   0.889 -1.1041 -0.3322 -2.1271
 3749SOL     OW12697   3.653   1.707   0.915  0.1292  0.3205  0.2904
 3749SOL    HW112698   3.686   1.746   0.996 -0.2631  0.1276  0.5445
 3749SOL    HW212699   3.559   1.697   0.930 -0.1831  1.4964 -0.6830
 3750SOL     OW12700   3.956   8.152   3.434 -0.5571 -0.6477 -0.2229
 3750SOL    HW112701   3.879   8.127   3.484 -0.9704 -1.6044 -1.2998
 3750SOL    HW212702   4.029   8.106   3.476 -0.7486 -0.6986  0.0528
 3751SOL     OW12703   8.104   4.958   7.010  0.1695 -0.5217  0.3392
 3751SOL    HW112704   8.053   5.031   6.973 -0.3407 -0.9282  0.2376
 3751SOL    HW212705   8.075   4.952   7.101  0.0006 -0.7879  0.2664
 3752SOL     OW12706   2.715   9.060   7.605  0.2758  0.6496 -0.2298
 3752SOL    HW112707   2.782   9.060   7.673  0.4411  1.7638 -0.3808
 3752SOL    HW212708   2.652   9.127   7.633 -1.4078 -1.1117  0.4923
 3753SOL     OW12709   5.944   2.331   2.143  0.1847 -0.2177  0.1195
 3753SOL    HW112710   5.881   2.287   2.086 -1.0868 -0.3440  1.5814
 3753SOL    HW212711   5.929   2.294   2.229  2.0369  0.0168  0.5789
 3754SOL     OW12712   2.164   0.933   8.853  0.1830 -0.2029  0.1606
 3754SOL    HW112713   2.191   0.862   8.912 -0.0803  1.5961  2.5799
 3754SOL    HW212714   2.244   0.985   8.841 -0.1872  0.4413  0.4429
 3755SOL     OW12715   3.920   0.244   0.122  0.2109 -0.1811  0.0570
 3755SOL    HW112716   3.967   0.161   0.125  0.2736 -0.2529 -1.9082
 3755SOL    HW212717   3.835   0.222   0.084 -0.3202  0.4475  0.8369
 3756SOL     OW12718   5.804   2.017   7.394  0.5701  0.8064  0.1263
 3756SOL    HW112719   5.769   2.049   7.477  0.5776  0.1036  0.4073
 3756SOL    HW212720   5.899   2.029   7.402  0.7677 -0.9859  1.0026
 3757SOL     OW12721   6.026   3.437   0.526 -0.0277 -0.2471  0.0300
 3757SOL    HW112722   5.947   3.433   0.473 -1.7431  1.2052  2.2717
 3757SOL    HW212723   6.062   3.525   0.508  0.0004 -0.1740  0.4442
 3758SOL     OW12724   4.066   6.104   5.276  0.4372  0.7857 -0.0451
 3758SOL    HW112725   4.078   6.181   5.331  1.2589  1.2080 -0.7754
 3758SOL    HW212726   4.050   6.139   5.188  0.1328  0.1287 -0.2647
 3759SOL     OW12727   6.929   2.273   7.707 -0.2042 -0.5615  0.9169
 3759SOL    HW112728   7.025   2.264   7.712 -0.0094  0.7677 -0.1001
 3759SOL    HW212729   6.909   2.340   7.772 -0.2364  0.3543 -0.0140
 3760SOL     OW12730   1.920   7.458   3.654 -0.1503 -0.6745  0.0761
 3760SOL    HW112731   1.979   7.385   3.670  1.1446  0.1372 -0.8393
 3760SOL    HW212732   1.847   7.443   3.715  0.7782 -1.9308  0.9362
 3761SOL     OW12733   4.270   3.729   5.832 -0.0181 -0.4532 -0.0298
 3761SOL    HW112734   4.297   3.816   5.801 -1.4651 -0.1040 -0.4094
 3761SOL    HW212735   4.266   3.737   5.927 -1.9993  0.5243 -0.1433
 3762SOL     OW12736   6.649   1.009   0.592  0.0311 -0.2084  0.6067
 3762SOL    HW112737   6.680   0.963   0.670 -1.7453 -1.3266  0.7230
 3762SOL    HW212738   6.634   0.939   0.528  1.0380  0.6471 -0.6160
 3763SOL     OW12739   7.570   4.495   1.952 -0.5480 -0.0338  0.7951
 3763SOL    HW112740   7.506   4.559   1.923 -1.2436 -0.3206  1.6444
 3763SOL    HW212741   7.519   4.428   1.997  0.1370 -1.3121 -0.2661
 3764SOL     OW12742   6.125   4.912   3.349 -0.5314  0.2091  0.2066
 3764SOL    HW112743   6.138   5.006   3.355 -0.6841  0.1770  1.1323
 3764SOL    HW212744   6.214   4.876   3.341 -0.3926  0.3599  0.9951
 3765SOL     OW12745   7.602   2.226   7.191 -0.0803  0.1366  0.7483
 3765SOL    HW112746   7.688   2.194   7.219  0.0925  0.9646  1.1671
 3765SOL    HW212747   7.609   2.321   7.193 -0.7421  0.2110 -0.0509
 3766SOL     OW12748   5.743   4.839   3.665 -0.4173  0.4571 -0.1127
 3766SOL    HW112749   5.765   4.798   3.749 -0.0181  2.2004  0.6867
 3766SOL    HW212750   5.776   4.928   3.673  0.0468  0.5375 -2.3254
 3767SOL     OW12751   1.188   2.488   9.103 -0.0709  0.1968 -0.0811
 3767SOL    HW112752   1.283   2.479   9.107 -0.2281 -2.0249 -0.4872
 3767SOL    HW212753   1.165   2.464   9.013 -1.0642  0.2473  0.1458
 3768SOL     OW12754   4.527   7.857   5.244 -0.1109 -0.6619 -0.1350
 3768SOL    HW112755   4.498   7.769   5.220 -1.0431 -0.5098  0.3791
 3768SOL    HW212756   4.620   7.847   5.264 -0.0964 -1.4338 -0.5334
 3769SOL     OW12757   7.774   7.418   3.507 -0.3715 -0.8896  0.3583
 3769SOL    HW112758   7.733   7.410   3.593 -0.0855 -1.1574  0.4696
 3769SOL    HW212759   7.842   7.351   3.507 -1.3822 -1.9816 -0.6426
 3770SOL     OW12760   1.419   4.699   5.171  0.3138  0.0877  0.0476
 3770SOL    HW112761   1.367   4.696   5.252 -0.2845 -1.5312 -0.3683
 3770SOL    HW212762   1.374   4.640   5.111  1.5750  0.1274 -0.9800
 3771SOL     OW12763   4.793   2.645   5.414 -0.0521  0.2003  0.3539
 3771SOL    HW112764   4.745   2.587   5.355  0.3770  1.0473 -0.8756
 3771SOL    HW212765   4.840   2.586   5.473 -0.5210 -0.6742 -0.1308
 3772SOL     OW12766   3.388   8.407   4.708  0.3270 -0.3703 -0.3137
 3772SOL    HW112767   3.336   8.422   4.629  1.3254 -0.7942 -1.0688
 3772SOL    HW212768   3.357   8.324   4.742 -1.7282  0.8615  1.0855
 3773SOL     OW12769   3.541   2.159   6.805  0.3639 -0.3935 -0.0954
 3773SOL    HW112770   3.455   2.189   6.835  0.2041 -0.2658 -0.6564
 3773SOL    HW212771   3.599   2.172   6.880  0.2448  1.1029 -0.2435
 3774SOL     OW12772   2.289   4.242   7.178 -0.1863 -0.1391  0.2500
 3774SOL    HW112773   2.282   4.322   7.126 -0.3383 -1.2226 -1.4969
 3774SOL    HW212774   2.203   4.201   7.172  0.2913 -1.1397 -0.1235
 3775SOL     OW12775   4.254   2.354   4.438 -0.4078  0.3228 -0.0253
 3775SOL    HW112776   4.228   2.442   4.412 -0.0126  0.9088  1.4673
 3775SOL    HW212777   4.347   2.349   4.417 -0.3005  0.4644  0.4159
 3776SOL     OW12778   4.842   3.172   0.209 -0.3058  0.2253  0.2384
 3776SOL    HW112779   4.796   3.205   0.286  1.6307 -0.5745  1.8064
 3776SOL    HW212780   4.929   3.148   0.241  1.2223  1.5684 -2.5488
 3777SOL     OW12781   1.904   7.837   0.180 -0.0017  0.4127 -0.2873
 3777SOL    HW112782   1.887   7.743   0.190 -1.0364  0.5204 -0.8249
 3777SOL    HW212783   1.940   7.864   0.264 -2.2555  0.0537  0.8828
 3778SOL     OW12784   0.436   1.932   0.403 -0.2620 -0.1969  0.0572
 3778SOL    HW112785   0.510   1.977   0.445 -0.6394  1.5395 -1.0623
 3778SOL    HW212786   0.468   1.909   0.316 -1.2645  1.2979 -0.7377
 3779SOL     OW12787   9.062   5.588   7.702  0.6299  0.1353 -0.1000
 3779SOL    HW112788   9.151   5.585   7.735  0.7462 -2.2679 -0.4768
 3779SOL    HW212789   9.071   5.620   7.612  1.2016 -0.7540 -0.3681
 3780SOL     OW12790   3.408   1.047   7.252  0.0424  0.1545  0.1960
 3780SOL    HW112791   3.426   1.030   7.344 -1.5676 -0.5653  0.4257
 3780SOL    HW212792   3.466   0.988   7.204 -1.0677 -1.5471  0.8499
 3781SOL     OW12793   4.793   3.991   2.413 -0.2032  0.4890  0.4357
 3781SOL    HW112794   4.707   3.954   2.396  0.3253 -0.7504  0.3771
 3781SOL    HW212795   4.777   4.085   2.421 -1.5206  0.3058  0.2106
 3782SOL     OW12796   6.794   8.479   0.383  0.0378  0.7209  0.1594
 3782SOL    HW112797   6.826   8.465   0.294  1.4606 -1.5380  0.9552
 3782SOL    HW212798   6.724   8.543   0.373 -0.2268  0.1136 -2.6644
 3783SOL     OW12799   4.377   4.648   8.986  0.5758 -0.2315  0.5271
 3783SOL    HW112800   4.321   4.666   9.061 -0.0977  0.1099 -0.0408
 3783SOL    HW212801   4.462   4.684   9.010  0.5019 -0.5889  1.3317
 3784SOL     OW12802   0.871   5.032   6.752  0.1480 -0.5459 -0.2858
 3784SOL    HW112803   0.948   4.983   6.780  0.3004  0.4676  1.1852
 3784SOL    HW212804   0.804   5.013   6.819 -1.0022 -1.6137 -1.6681
 3785SOL     OW12805   2.930   6.388   4.697 -0.0766  0.6215 -0.6039
 3785SOL    HW112806   3.010   6.340   4.675  1.3796  1.6621  1.9446
 3785SOL    HW212807   2.877   6.325   4.746 -0.2352  0.3171 -1.1582
 3786SOL     OW12808   8.031   6.220   2.893  0.2448 -0.0296 -0.1659
 3786SOL    HW112809   7.993   6.183   2.972  1.2863  2.1992  1.4992
 3786SOL    HW212810   8.011   6.314   2.898  3.3483  0.7926 -0.6185
 3787SOL     OW12811   4.637   8.248   9.165 -0.1087  0.0886  0.1593
 3787SOL    HW112812   4.603   8.171   9.118  0.5266 -2.0050  2.8800
 3787SOL    HW212813   4.569   8.270   9.228  1.1162 -0.5865  1.8148
 3788SOL     OW12814   9.271   1.321   4.077  0.3524 -0.3094 -0.2395
 3788SOL    HW112815   9.302   1.398   4.030  0.0093  0.5470  0.8878
 3788SOL    HW212816   9.343   1.297   4.134 -0.3979  0.7240  1.2253
 3789SOL     OW12817   5.592   6.030   2.362 -0.2807  0.4177  0.3441
 3789SOL    HW112818   5.590   6.034   2.457 -0.1130  2.5436  0.3244
 3789SOL    HW212819   5.527   6.094   2.333 -0.1209  0.0331 -0.9606
 3790SOL     OW12820   2.400   6.740   2.703 -0.2136  0.5742  0.2904
 3790SOL    HW112821   2.484   6.732   2.658 -0.9419  0.0046 -1.0352
 3790SOL    HW212822   2.411   6.691   2.784  0.5865  0.0699 -0.1092
 3791SOL     OW12823   8.657   6.827   5.626 -0.4116 -0.0539  0.7352
 3791SOL    HW112824   8.567   6.832   5.661 -0.0874  1.6565  1.4584
 3791SOL    HW212825   8.712   6.820   5.704  0.0975 -1.1653  0.2857
 3792SOL     OW12826   6.863   3.560   4.320 -0.2088 -0.0592 -0.6281
 3792SOL    HW112827   6.802   3.490   4.342 -1.3026  1.0580 -0.0176
 3792SOL    HW212828   6.832   3.636   4.368  1.3423  0.7036 -0.7500
 3793SOL     OW12829   4.903   8.605   4.350  0.1347  0.5471 -0.1159
 3793SOL    HW112830   4.944   8.623   4.266 -0.2714  1.7653 -0.0726
 3793SOL    HW212831   4.839   8.675   4.361 -1.4444 -0.8540  0.1559
 3794SOL     OW12832   3.843   1.083   0.992  0.5045  0.8322  0.2248
 3794SOL    HW112833   3.886   1.119   0.914 -1.3907 -1.9177 -2.2881
 3794SOL    HW212834   3.753   1.115   0.987 -0.4042 -1.6170 -0.4208
 3795SOL     OW12835   8.989   0.536   2.098 -0.3918 -0.1877 -0.1715
 3795SOL    HW112836   9.041   0.462   2.129 -0.2453 -0.1095 -0.2318
 3795SOL    HW212837   8.970   0.586   2.177 -1.6613 -1.0182  0.0877
 3796SOL     OW12838   3.704   7.640   6.118 -0.5406  0.0721 -0.2561
 3796SOL    HW112839   3.611   7.642   6.138 -0.8039  0.8135 -1.4580
 3796SOL    HW212840   3.743   7.704   6.178 -0.6975 -0.6508  0.6469
 3797SOL     OW12841   4.996   5.200   7.832  0.0421 -0.0473  0.4124
 3797SOL    HW112842   4.915   5.229   7.790  0.4015 -0.4193 -0.5772
 3797SOL    HW212843   5.055   5.276   7.824 -0.2565  0.2795  1.2757
 3798SOL     OW12844   5.627   6.070   0.530 -0.4426 -0.5329  0.0364
 3798SOL    HW112845   5.638   6.073   0.435  0.9415 -1.1110  0.1507
 3798SOL    HW212846   5.544   6.025   0.544  0.0655 -1.8157 -0.9011
 3799SOL     OW12847   6.481   6.625   9.244  0.3856 -0.0491 -0.1801
 3799SOL    HW112848   6.502   6.678   9.167 -0.7247 -0.0399 -0.4932
 3799SOL    HW212849   6.398   6.583   9.222  1.3098 -2.0964 -0.0295
 3800SOL     OW12850   5.742   8.156   7.216 -0.6695  0.4420  0.8595
 3800SOL    HW112851   5.718   8.247   7.235  1.2102  1.5410 -1.4973
 3800SOL    HW212852   5.807   8.133   7.282  1.2475  2.0302 -0.3509
 3801SOL     OW12853   5.314   7.592   7.627  0.0314  0.2111 -0.2137
 3801SOL    HW112854   5.375   7.536   7.579 -2.2611 -0.9484 -2.0061
 3801SOL    HW212855   5.303   7.669   7.572  0.6791  0.9395  0.6462
 3802SOL     OW12856   8.361   2.252   7.839  0.2953  0.0065 -0.0915
 3802SOL    HW112857   8.448   2.214   7.822  0.6005  0.4274  0.5106
 3802SOL    HW212858   8.379   2.344   7.859 -0.4240  0.4442 -1.3729
 3803SOL     OW12859   6.058   3.764   0.627  0.2626 -0.1601 -0.3842
 3803SOL    HW112860   6.127   3.714   0.670  0.8741 -0.1969 -1.3675
 3803SOL    HW212861   5.976   3.732   0.666  0.7398 -0.7857  0.1156
 3804SOL     OW12862   0.621   5.331   2.761 -0.2492 -0.6890 -0.1638
 3804SOL    HW112863   0.666   5.347   2.844 -1.4471 -2.8279  0.9696
 3804SOL    HW212864   0.686   5.287   2.706  0.7988  1.4267 -0.7349
 3805SOL     OW12865   0.204   3.348   1.834 -0.5491 -0.2080  0.2915
 3805SOL    HW112866   0.129   3.312   1.882  0.1417 -1.5240  0.4222
 3805SOL    HW212867   0.270   3.279   1.838  0.3122  0.5386 -0.6857
 3806SOL     OW12868   6.098   1.706   9.006 -0.5212 -0.2376 -0.1389
 3806SOL    HW112869   6.047   1.785   9.025 -2.2845 -1.4524  0.4581
 3806SOL    HW212870   6.175   1.713   9.063 -1.4688  0.2941  1.1348
 3807SOL     OW12871   8.645   7.392   7.583  0.1181 -1.1219 -0.2825
 3807SOL    HW112872   8.568   7.342   7.556 -0.3405  0.4557 -2.0899
 3807SOL    HW212873   8.717   7.330   7.579 -0.9654 -2.5509  1.1559
 3808SOL     OW12874   6.523   6.293   2.253 -0.6019 -0.4400  0.3563
 3808SOL    HW112875   6.506   6.384   2.279 -0.9945 -0.4870  0.2845
 3808SOL    HW212876   6.613   6.294   2.220 -0.9418  0.1543 -0.6198
 3809SOL     OW12877   2.443   1.589   7.469  0.1401 -0.1674  0.0755
 3809SOL    HW112878   2.417   1.625   7.554 -0.6229  1.5277 -0.8134
 3809SOL    HW212879   2.488   1.662   7.426  1.3798 -1.3067 -0.6117
 3810SOL     OW12880   1.040   9.051   2.537  0.3081 -0.4041 -0.2600
 3810SOL    HW112881   1.038   8.964   2.577  0.6011 -0.3656 -0.1606
 3810SOL    HW212882   0.949   9.068   2.512  0.3000 -0.8637 -0.5535
 3811SOL     OW12883   6.105   5.626   9.268  0.0116 -0.0569 -0.3866
 3811SOL    HW112884   6.145   5.699   9.314 -0.0458 -1.5143  2.1294
 3811SOL    HW212885   6.027   5.604   9.319 -1.9474  0.2165 -2.9883
 3812SOL     OW12886   8.136   1.854   9.186 -0.2348 -0.1076 -0.0665
 3812SOL    HW112887   8.164   1.867   9.277  0.1879 -0.0852 -0.1986
 3812SOL    HW212888   8.042   1.873   9.187 -1.1039 -3.5937  1.1324
 3813SOL     OW12889   4.547   6.623   1.512 -0.3508 -0.6691 -0.2679
 3813SOL    HW112890   4.465   6.668   1.532 -0.8965 -1.0042 -1.6643
 3813SOL    HW212891   4.531   6.531   1.534  0.5936 -0.3371  2.0846
 3814SOL     OW12892   8.152   0.934   9.080 -0.2093  0.0769 -0.1859
 3814SOL    HW112893   8.150   0.848   9.039  0.8168 -0.6960  1.2749
 3814SOL    HW212894   8.155   0.996   9.007  1.0993 -1.2064 -1.2855
 3815SOL     OW12895   4.162   5.348   5.895  0.0492 -0.3818 -0.2440
 3815SOL    HW112896   4.082   5.318   5.852 -0.3805 -0.2193  0.4258
 3815SOL    HW212897   4.231   5.332   5.831 -0.6816  0.6288 -1.3278
 3816SOL     OW12898   4.028   8.723   3.614 -0.5502  0.7469 -0.6163
 3816SOL    HW112899   3.989   8.638   3.636 -0.0216 -0.1859 -2.9901
 3816SOL    HW212900   4.020   8.775   3.695 -1.4995 -1.3075  0.6888
 3817SOL     OW12901   2.914   4.744   1.537 -0.0986  0.0606  0.0135
 3817SOL    HW112902   2.984   4.698   1.583  0.6112 -1.6514 -2.5094
 3817SOL    HW212903   2.957   4.821   1.499  0.0904 -0.2191 -0.3484
 3818SOL     OW12904   7.943   4.443   3.420 -0.6705  0.1495  0.2045
 3818SOL    HW112905   7.985   4.526   3.398  0.3304 -0.5164 -0.4742
 3818SOL    HW212906   7.869   4.437   3.360 -0.4603  0.3300 -0.0772
 3819SOL     OW12907   2.769   5.664   0.720 -0.5845  0.1595  0.3792
 3819SOL    HW112908   2.864   5.668   0.713 -0.6432 -0.6372 -1.8878
 3819SOL    HW212909   2.742   5.755   0.731  0.4050  0.4881  0.1784
 3820SOL     OW12910   6.155   2.402   2.539  0.5710 -0.7241 -0.5191
 3820SOL    HW112911   6.160   2.335   2.472  0.6529  0.1221 -1.3754
 3820SOL    HW212912   6.140   2.353   2.621  0.2578 -1.7442 -1.1670
 3821SOL     OW12913   1.924   6.208   0.491 -0.3362 -0.1234 -0.3327
 3821SOL    HW112914   2.018   6.212   0.472  0.1780  2.1522  2.1364
 3821SOL    HW212915   1.901   6.116   0.477  2.5719 -1.0403  0.2193
 3822SOL     OW12916   4.016   1.097   0.797 -0.2583 -0.6400  0.1417
 3822SOL    HW112917   3.980   1.110   0.709 -0.7193 -2.4447  0.0160
 3822SOL    HW212918   4.083   1.030   0.785  2.5957  1.9377  0.5480
 3823SOL     OW12919   7.890   7.545   8.391 -0.3155  0.5193  0.3984
 3823SOL    HW112920   7.906   7.618   8.331 -2.4215  1.5573  0.9738
 3823SOL    HW212921   7.879   7.587   8.476 -1.1415 -0.4942  0.8140
 3824SOL     OW12922   4.070   1.742   3.536 -0.1808 -0.1112 -0.1295
 3824SOL    HW112923   3.983   1.771   3.508 -1.2149 -1.4475  1.4341
 3824SOL    HW212924   4.131   1.803   3.495 -2.0000  2.5726  0.8614
 3825SOL     OW12925   6.535   7.002   5.972 -0.8381  0.2040  0.5053
 3825SOL    HW112926   6.448   7.015   5.935 -0.4342  2.1312  0.1070
 3825SOL    HW212927   6.593   6.996   5.896 -0.3333  1.5159  0.7523
 3826SOL     OW12928   4.503   2.164   7.775 -0.1946 -0.3023 -0.2803
 3826SOL    HW112929   4.523   2.238   7.832  1.0075 -0.4120 -0.5385
 3826SOL    HW212930   4.577   2.105   7.785 -1.7104 -2.1226  0.9064
 3827SOL     OW12931   8.065   7.312   1.027  0.0187 -0.0752  0.3772
 3827SOL    HW112932   8.128   7.384   1.021 -1.5282  1.3083 -0.3924
 3827SOL    HW212933   8.099   7.244   0.969  1.0093  0.4481  0.3270
 3828SOL     OW12934   6.769   6.424   9.127 -0.1776 -0.2174  0.1463
 3828SOL    HW112935   6.725   6.437   9.211  2.1766 -1.0456  1.6005
 3828SOL    HW212936   6.762   6.509   9.083  0.0515  0.8084  1.9732
 3829SOL     OW12937   7.018   4.999   7.594  0.0234 -0.0187  0.2253
 3829SOL    HW112938   7.094   5.035   7.640  0.8741 -1.2339 -0.1649
 3829SOL    HW212939   7.032   5.022   7.502  0.0402 -0.4217  0.1245
 3830SOL     OW12940   6.740   6.310   3.864 -0.5420  0.1262 -0.3033
 3830SOL    HW112941   6.663   6.255   3.880 -0.2086 -0.3217 -0.2034
 3830SOL    HW212942   6.799   6.254   3.814  0.0238  0.2065  0.2566
 3831SOL     OW12943   0.605   8.560   1.402  0.6510  0.3729 -0.0796
 3831SOL    HW112944   0.683   8.517   1.369  0.3622 -0.1678 -0.0743
 3831SOL    HW212945   0.635   8.647   1.430  1.1355  0.3750 -0.5877
 3832SOL     OW12946   5.917   6.853   3.321 -0.0513  0.8016 -0.2442
 3832SOL    HW112947   5.828   6.823   3.342  0.3888  1.2561  2.6795
 3832SOL    HW212948   5.923   6.939   3.361  2.1888  0.1396  1.0118
 3833SOL     OW12949   2.744   1.548   5.494  0.3122 -0.5189 -0.3186
 3833SOL    HW112950   2.820   1.602   5.514  1.3461 -1.7052 -0.9325
 3833SOL    HW212951   2.719   1.574   5.405  0.9086 -1.1414 -0.6758
 3834SOL     OW12952   5.867   1.503   7.104  0.5322  0.2939  0.1526
 3834SOL    HW112953   5.953   1.469   7.130 -0.1971 -2.6147 -0.8282
 3834SOL    HW212954   5.887   1.569   7.037  2.0034 -0.6591 -0.4074
 3835SOL     OW12955   4.992   3.168   4.494  0.1836  0.0909 -0.1996
 3835SOL    HW112956   5.056   3.231   4.461  0.8126  0.0351  0.8632
 3835SOL    HW212957   4.995   3.179   4.589 -0.5968 -0.6805 -0.0801
 3836SOL     OW12958   3.766   3.858   8.347  0.2544 -0.0524 -0.8069
 3836SOL    HW112959   3.792   3.949   8.352  0.1320 -0.0570  3.2236
 3836SOL    HW212960   3.683   3.854   8.395  1.6045 -2.5613  1.6486
 3837SOL     OW12961   4.029   1.584   1.113 -0.1530  0.1512 -0.1989
 3837SOL    HW112962   4.041   1.527   1.037 -1.2504  1.3407 -1.3022
 3837SOL    HW212963   3.936   1.603   1.115  0.2068  2.0641  0.0290
 3838SOL     OW12964   8.585   7.355   6.208 -0.1695  0.1132  0.2975
 3838SOL    HW112965   8.521   7.349   6.137 -1.1542  1.0201  1.0810
 3838SOL    HW212966   8.550   7.422   6.267  0.6547 -0.5785  1.6216
 3839SOL     OW12967   9.162   2.776   6.724 -0.1900  0.1056  0.1647
 3839SOL    HW112968   9.198   2.750   6.639  0.6360  1.1103  0.1968
 3839SOL    HW212969   9.184   2.703   6.782 -0.7370 -0.5761 -0.4540
 3840SOL     OW12970   0.292   0.795   7.372  0.2321 -0.3693  0.2072
 3840SOL    HW112971   0.240   0.821   7.297  0.6822  3.9600  1.1489
 3840SOL    HW212972   0.268   0.857   7.441  2.3813 -1.9063  2.5433
 3841SOL     OW12973   1.883   1.550   0.576 -0.2737 -0.8204  0.4851
 3841SOL    HW112974   1.974   1.531   0.598 -0.6582 -1.8658  1.2405
 3841SOL    HW212975   1.847   1.467   0.545 -1.2733 -0.7281  1.3090
 3842SOL     OW12976   2.356   2.103   4.870 -0.0092 -0.3247 -0.1317
 3842SOL    HW112977   2.284   2.149   4.826 -0.7894 -0.7893  0.6265
 3842SOL    HW212978   2.381   2.035   4.808  2.3658  2.1067 -2.0654
 3843SOL     OW12979   3.789   2.721   0.559  0.2816  0.2722 -0.1836
 3843SOL    HW112980   3.822   2.683   0.640  0.6380 -1.1605 -0.9543
 3843SOL    HW212981   3.694   2.709   0.563  0.3450 -0.2495 -0.1903
 3844SOL     OW12982   0.562   1.852   4.884 -0.5528 -0.0852 -0.8091
 3844SOL    HW112983   0.602   1.920   4.939 -1.4860  0.0347 -0.2562
 3844SOL    HW212984   0.472   1.846   4.916 -0.6883 -1.0608 -1.3599
 3845SOL     OW12985   2.530   2.120   2.588 -0.0854  0.3667  0.0999
 3845SOL    HW112986   2.518   2.079   2.674 -1.8961  0.0775 -0.2396
 3845SOL    HW212987   2.574   2.053   2.536  0.1514  0.1801  0.5294
 3846SOL     OW12988   0.465   6.689   5.413 -0.5827 -0.3608 -0.2589
 3846SOL    HW112989   0.484   6.620   5.476 -1.7680 -1.0748 -0.6588
 3846SOL    HW212990   0.543   6.746   5.415  0.3244 -1.5856  0.2165
 3847SOL     OW12991   8.032   5.002   6.669 -0.8370 -0.3664  0.5606
 3847SOL    HW112992   8.110   4.993   6.615 -0.7693 -0.2055  0.6281
 3847SOL    HW212993   7.989   4.917   6.665 -0.4675 -0.5717  0.8172
 3848SOL     OW12994   2.485   8.386   9.173 -0.5403 -0.2383 -0.4006
 3848SOL    HW112995   2.518   8.402   9.085 -0.5098  0.9310 -0.1875
 3848SOL    HW212996   2.563   8.362   9.224 -0.3022  0.6443 -0.3370
 3849SOL     OW12997   5.483   1.744   8.018  0.8996 -0.3326  0.1160
 3849SOL    HW112998   5.468   1.695   8.098  0.6746 -1.1399 -0.4144
 3849SOL    HW212999   5.444   1.830   8.035 -1.0027 -1.1514  0.1532
 3850SOL     OW13000   2.691   5.855   5.912  0.3374  0.4978  0.6250
 3850SOL    HW113001   2.663   5.929   5.968 -0.8309 -0.6671  1.6579
 3850SOL    HW213002   2.620   5.845   5.849  1.2187  1.2068 -0.5111
 3851SOL     OW13003   5.095   0.388   3.272 -0.5673 -0.0163  0.0312
 3851SOL    HW113004   5.075   0.296   3.287 -3.2963 -0.1007 -2.8436
 3851SOL    HW213005   5.010   0.433   3.281 -0.4904  1.2639 -3.5799
 3852SOL     OW13006   1.221   4.657   8.275  0.0442  0.0819  0.6036
 3852SOL    HW113007   1.222   4.682   8.182 -1.4773  0.4673  0.6621
 3852SOL    HW213008   1.301   4.606   8.287  0.6626  0.6903 -0.7325
 3853SOL     OW13009   0.873   5.394   4.756 -0.0689  0.9038  1.2326
 3853SOL    HW113010   0.848   5.440   4.836 -0.5091  1.2457  0.9069
 3853SOL    HW213011   0.790   5.362   4.720 -0.0698  2.0896  0.1089
 3854SOL     OW13012   0.059   0.323   6.008  0.2096 -0.5647 -0.6739
 3854SOL    HW113013   0.102   0.403   5.978  0.0133 -1.2205 -2.8281
 3854SOL    HW213014   0.047   0.270   5.929 -2.1199 -1.5604  0.2383
 3855SOL     OW13015   5.804   9.143   7.276 -0.5883  0.1018  0.3597
 3855SOL    HW113016   5.856   9.163   7.353 -0.4644 -1.7525  0.8091
 3855SOL    HW213017   5.841   9.060   7.243 -2.0398 -0.2694 -0.4105
 3856SOL     OW13018   1.678   1.078   7.475 -0.4213  0.3050 -0.1570
 3856SOL    HW113019   1.726   1.150   7.517 -0.1771  1.1375 -1.7571
 3856SOL    HW213020   1.605   1.060   7.534  0.5122  0.6614  1.1440
 3857SOL     OW13021   9.075   5.430   6.918  0.1788  0.1577  0.6036
 3857SOL    HW113022   9.106   5.343   6.945  2.6901  0.9389  0.5256
 3857SOL    HW213023   9.035   5.415   6.832  2.5080 -0.7001 -0.4321
 3858SOL     OW13024   9.059   4.759   1.331  0.2081 -0.6777 -0.0176
 3858SOL    HW113025   9.099   4.699   1.393  0.3750  0.4813  1.0431
 3858SOL    HW213026   8.970   4.726   1.320  0.4542 -1.4145  0.1197
 3859SOL     OW13027   5.429   8.722   3.450 -0.6744 -0.2420 -0.1461
 3859SOL    HW113028   5.359   8.663   3.423  0.0351 -0.6842 -1.0235
 3859SOL    HW213029   5.503   8.665   3.471  0.4004  0.3483 -2.1075
 3860SOL     OW13030   6.801   5.469   9.202 -0.9096 -0.3559 -0.0783
 3860SOL    HW113031   6.887   5.430   9.218 -1.4094 -1.3871  0.2159
 3860SOL    HW213032   6.759   5.470   9.288 -1.1481  0.2553 -0.1987
 3861SOL     OW13033   9.172   6.345   7.781  0.4620 -0.2779 -0.0827
 3861SOL    HW113034   9.105   6.409   7.759  0.2307  0.2194  1.8818
 3861SOL    HW213035   9.156   6.272   7.721 -1.2820  0.1803 -0.2225
 3862SOL     OW13036   2.438   6.174   3.236  0.0611  0.4191  0.2674
 3862SOL    HW113037   2.418   6.259   3.198 -0.4082  0.6237  0.9459
 3862SOL    HW213038   2.533   6.169   3.235  0.1097  1.1379  0.6016
 3863SOL     OW13039   2.421   2.269   7.720 -0.0992 -0.8130 -0.1948
 3863SOL    HW113040   2.406   2.213   7.796 -1.8034 -0.7550 -0.4406
 3863SOL    HW213041   2.426   2.358   7.755 -2.7891 -0.5592 -0.2496
 3864SOL     OW13042   2.565   5.498   7.603  0.5913 -0.1100 -0.6133
 3864SOL    HW113043   2.615   5.418   7.619 -0.2765 -1.2643 -3.1678
 3864SOL    HW213044   2.474   5.470   7.601  0.3079  0.8190 -2.1028
 3865SOL     OW13045   4.249   4.825   4.453 -0.3941  0.0811 -0.4781
 3865SOL    HW113046   4.252   4.834   4.549 -1.3447 -1.2111 -0.3047
 3865SOL    HW213047   4.264   4.914   4.421  1.7924  0.2549  0.8032
 3866SOL     OW13048   3.552   3.623   6.111  0.6617 -0.2977 -0.1390
 3866SOL    HW113049   3.597   3.630   6.195 -2.9602  1.3949  1.9103
 3866SOL    HW213050   3.508   3.539   6.114 -2.3560  1.1769  1.4823
 3867SOL     OW13051   3.599   5.314   6.033 -0.0350 -0.3724  0.1940
 3867SOL    HW113052   3.526   5.253   6.038 -0.3489 -0.0209 -0.0737
 3867SOL    HW213053   3.562   5.398   6.060  0.2975 -0.2182  0.1752
 3868SOL     OW13054   7.461   4.007   1.515  0.1694  0.3551 -0.0380
 3868SOL    HW113055   7.376   3.988   1.554 -0.0140 -0.3408 -0.7422
 3868SOL    HW213056   7.450   4.091   1.471  0.4399  1.2641  1.5413
 3869SOL     OW13057   2.818   8.719   8.230  0.6221 -0.0919 -0.0569
 3869SOL    HW113058   2.854   8.655   8.168  1.8614  0.3207  0.2143
 3869SOL    HW213059   2.892   8.741   8.288  0.0118  1.0188  0.3271
 3870SOL     OW13060   1.887   0.304   4.692  0.4287 -0.1316  0.1453
 3870SOL    HW113061   1.954   0.245   4.726  1.8341  0.2882 -1.7273
 3870SOL    HW213062   1.830   0.247   4.640  0.2283 -0.2446  0.4857
 3871SOL     OW13063   3.270   6.289   0.741 -0.2630 -0.0429  0.2269
 3871SOL    HW113064   3.280   6.249   0.654  2.5525  1.1489 -0.1046
 3871SOL    HW213065   3.217   6.226   0.790  0.6880 -2.2960 -1.4431
 3872SOL     OW13066   2.355   6.175   8.402  0.4549 -0.2195  0.5491
 3872SOL    HW113067   2.394   6.100   8.448 -1.6082 -1.0219  1.1155
 3872SOL    HW213068   2.407   6.185   8.323  1.8423 -1.1407  1.2996
 3873SOL     OW13069   0.333   1.598   0.326  1.0201 -0.4326 -0.7600
 3873SOL    HW113070   0.386   1.570   0.251  0.7280 -0.3857 -0.9850
 3873SOL    HW213071   0.258   1.538   0.326  0.2653  0.4791 -1.3900
 3874SOL     OW13072   2.408   7.235   6.001  0.1549 -0.1154 -0.2520
 3874SOL    HW113073   2.381   7.174   5.932  1.2409  1.4164 -2.1399
 3874SOL    HW213074   2.428   7.179   6.076  1.8449 -2.2067 -2.1170
 3875SOL     OW13075   2.353   5.921   4.596  0.4541 -0.2375  0.3713
 3875SOL    HW113076   2.376   5.874   4.516  0.3422 -0.0206  0.2079
 3875SOL    HW213077   2.391   6.008   4.583  0.2221 -0.1250  0.4445
 3876SOL     OW13078   2.109   4.658   6.809  0.4055  0.1645  1.1667
 3876SOL    HW113079   2.072   4.644   6.722  2.3037 -2.4967  0.6468
 3876SOL    HW213080   2.165   4.735   6.800  0.2607  0.1513  0.1220
 3877SOL     OW13081   1.044   4.188   1.863 -0.0977  0.0682  0.0471
 3877SOL    HW113082   1.010   4.253   1.925  2.1780  1.4425 -0.0039
 3877SOL    HW213083   1.121   4.230   1.825  1.4624 -2.6433 -0.0526
 3878SOL     OW13084   8.196   8.714   0.844  0.4114  0.1100 -0.6777
 3878SOL    HW113085   8.154   8.744   0.924  2.7670 -0.0601  0.7246
 3878SOL    HW213086   8.189   8.619   0.847  0.2587  0.1143 -0.8392
 3879SOL     OW13087   1.451   9.168   1.992 -0.1257 -0.0576  0.5634
 3879SOL    HW113088   1.391   9.218   2.047 -1.5979 -1.0337 -0.0934
 3879SOL    HW213089   1.500   9.234   1.943 -0.4153  0.7641  1.3507
 3880SOL     OW13090   2.059   6.247   8.388  0.4496  0.2937  0.1191
 3880SOL    HW113091   2.136   6.273   8.438 -0.5563 -0.8150  2.3886
 3880SOL    HW213092   2.072   6.154   8.370  0.2947  0.4324 -0.7507
 3881SOL     OW13093   3.205   4.209   0.722  0.0864  0.2788 -0.4290
 3881SOL    HW113094   3.183   4.194   0.814  0.0862  0.0922 -0.4610
 3881SOL    HW213095   3.214   4.122   0.684  1.7093  0.3204 -0.2200
 3882SOL     OW13096   2.033   6.351   5.402  0.2167 -0.6714  0.0061
 3882SOL    HW113097   2.000   6.402   5.475  0.2559 -0.6681  0.0214
 3882SOL    HW213098   1.993   6.391   5.325 -0.0361 -0.8448  0.0464
 3883SOL     OW13099   6.386   0.735   0.507  0.0271  0.1662 -0.0215
 3883SOL    HW113100   6.379   0.661   0.447  1.2920  1.4541 -1.8549
 3883SOL    HW213101   6.301   0.737   0.552 -1.6505  0.0745 -2.9084
 3884SOL     OW13102   8.113   8.087   7.634 -0.2940  0.0606  0.8694
 3884SOL    HW113103   8.197   8.123   7.662  0.2845  1.8420 -2.5167
 3884SOL    HW213104   8.128   7.993   7.626  1.0340  0.2126  1.3586
 3885SOL     OW13105   3.325   4.581   4.974  0.2551 -0.0300 -0.2051
 3885SOL    HW113106   3.285   4.667   4.984  0.1486 -0.1494  0.4133
 3885SOL    HW213107   3.263   4.521   5.015 -0.1549 -0.5316 -1.5262
 3886SOL     OW13108   8.181   5.683   0.036  0.2226 -0.0784 -0.3478
 3886SOL    HW113109   8.164   5.589   0.029  0.3328 -0.0479 -1.2599
 3886SOL    HW213110   8.100   5.719   0.071 -0.3016 -0.3773 -1.1998
 3887SOL     OW13111   4.603   6.743   6.551  0.5034  0.2488 -0.3352
 3887SOL    HW113112   4.647   6.827   6.536  0.7744 -0.1505 -1.8584
 3887SOL    HW213113   4.533   6.740   6.486 -0.4735 -0.0629  0.6969
 3888SOL     OW13114   9.167   6.380   3.771 -0.4035 -0.0718 -0.5171
 3888SOL    HW113115   9.260   6.360   3.768 -0.7579 -2.1493  0.6175
 3888SOL    HW213116   9.138   6.374   3.680  0.1906 -1.5313 -0.6346
 3889SOL     OW13117   5.122   4.610   3.850  0.0848  0.2312 -0.3699
 3889SOL    HW113118   5.067   4.533   3.865  0.8727 -0.0756  1.0216
 3889SOL    HW213119   5.200   4.595   3.902  1.4295  0.7845 -2.1241
 3890SOL     OW13120   6.872   3.909   1.905 -0.7599  0.0610  0.1404
 3890SOL    HW113121   6.941   3.944   1.849 -1.5194  1.0540 -0.2011
 3890SOL    HW213122   6.832   3.986   1.945 -0.7215 -0.5835  1.4926
 3891SOL     OW13123   3.736   3.323   1.011  0.3441  0.0982  0.3595
 3891SOL    HW113124   3.807   3.341   0.949 -0.0316  0.4660  0.0252
 3891SOL    HW213125   3.679   3.262   0.964  1.3573 -1.6399  1.3077
 3892SOL     OW13126   7.883   6.146   7.917 -0.0349  0.2020 -0.0913
 3892SOL    HW113127   7.978   6.154   7.922 -0.1243  1.3992 -0.0623
 3892SOL    HW213128   7.853   6.153   8.008 -0.1899  0.4187 -0.1584
 3893SOL     OW13129   2.907   7.785   8.966 -0.2622 -0.4852  0.3717
 3893SOL    HW113130   2.860   7.861   8.930 -0.1383 -0.7665 -0.4125
 3893SOL    HW213131   2.915   7.804   9.059  0.5118  0.8628  0.0590
 3894SOL     OW13132   8.527   7.328   0.773  0.2536  0.5799  0.0924
 3894SOL    HW113133   8.576   7.396   0.728  0.0402  0.8399  0.2497
 3894SOL    HW213134   8.579   7.308   0.851 -0.1995  1.3194  0.6055
 3895SOL     OW13135   7.006   1.276   8.853  0.1596  0.3866  0.0093
 3895SOL    HW113136   7.056   1.219   8.794 -0.3048 -0.6150  0.5562
 3895SOL    HW213137   7.037   1.251   8.940  0.9523  1.9581  0.2156
 3896SOL     OW13138   8.972   8.848   4.531 -0.3649 -0.0001 -0.1925
 3896SOL    HW113139   9.044   8.822   4.473 -0.7616 -0.3980 -0.5165
 3896SOL    HW213140   8.994   8.937   4.559 -0.2390  0.2639 -1.0852
 3897SOL     OW13141   1.747   3.267   4.430  0.7977 -0.5942  0.2644
 3897SOL    HW113142   1.793   3.204   4.374 -0.6536 -2.9385  1.5391
 3897SOL    HW213143   1.771   3.241   4.519  0.2755  0.8055  0.8371
 3898SOL     OW13144   1.566   7.194   6.191  0.1286 -0.2974 -0.0235
 3898SOL    HW113145   1.632   7.263   6.181 -0.6304  0.4763  0.2142
 3898SOL    HW213146   1.483   7.237   6.170 -0.0991 -1.8406 -2.6910
 3899SOL     OW13147   3.509   3.101   3.614  0.5283 -0.0911 -0.2383
 3899SOL    HW113148   3.465   3.166   3.559 -0.6055  2.7722  3.6298
 3899SOL    HW213149   3.603   3.122   3.605  0.2800  1.0923 -0.2894
 3900SOL     OW13150   0.826   1.315   7.924  0.2037 -0.3091 -0.1173
 3900SOL    HW113151   0.875   1.269   7.856 -0.6072  0.6778 -1.4154
 3900SOL    HW213152   0.875   1.397   7.936 -0.2806  0.0131 -0.3301
 3901SOL     OW13153   4.903   0.661   5.719 -0.4368 -0.1834 -0.2794
 3901SOL    HW113154   4.925   0.608   5.795  0.2535  0.3104 -0.1323
 3901SOL    HW213155   4.821   0.623   5.687  0.6892 -2.2332 -0.9802
 3902SOL     OW13156   6.289   4.223   2.503  0.4339  0.2492  0.2798
 3902SOL    HW113157   6.249   4.307   2.481  2.5418  1.4772  0.8604
 3902SOL    HW213158   6.254   4.201   2.589  1.2295  1.5030  0.9607
 3903SOL     OW13159   2.189   9.110   4.539  0.0840  0.2961  0.1594
 3903SOL    HW113160   2.231   9.153   4.464 -1.4451 -2.1963 -2.3192
 3903SOL    HW213161   2.226   9.022   4.541 -2.5585 -0.9489 -0.1730
 3904SOL     OW13162   2.159   8.640   7.751 -0.2380  0.0891 -0.4795
 3904SOL    HW113163   2.250   8.641   7.722 -0.0560 -0.1744  0.0713
 3904SOL    HW213164   2.129   8.551   7.729  0.2471 -0.5220  1.1430
 3905SOL     OW13165   8.722   1.089   5.738  0.3991 -0.5933  0.3541
 3905SOL    HW113166   8.734   1.106   5.644  1.3092 -2.4859  0.0921
 3905SOL    HW213167   8.724   1.176   5.778 -1.6589  0.4313 -1.5178
 3906SOL     OW13168   4.923   4.301   5.159 -0.2703  0.3030 -0.2219
 3906SOL    HW113169   4.914   4.331   5.249  0.8760  1.1344 -0.3695
 3906SOL    HW213170   4.841   4.327   5.117  0.4957  2.9292 -0.2363
 3907SOL     OW13171   3.829   0.935   4.269  0.1604  0.6202  0.6879
 3907SOL    HW113172   3.760   1.001   4.274 -1.4259 -0.9987  1.4187
 3907SOL    HW213173   3.814   0.891   4.185  0.3688  0.3501  0.7924
 3908SOL     OW13174   2.190   8.100   1.663 -0.3036 -0.3869  0.1911
 3908SOL    HW113175   2.260   8.042   1.694  0.4248  0.4799  0.2090
 3908SOL    HW213176   2.156   8.141   1.742 -0.0321  0.0744  0.0679
 3909SOL     OW13177   1.292   0.372   3.781  0.0827 -0.6749 -0.2219
 3909SOL    HW113178   1.241   0.331   3.850  0.4395 -0.7550 -0.0007
 3909SOL    HW213179   1.348   0.301   3.747  1.4029 -0.1665  0.8193
 3910SOL     OW13180   6.090   7.726   9.142  0.0842 -0.1795 -0.4757
 3910SOL    HW113181   6.049   7.797   9.093  0.2182 -0.7680 -1.4769
 3910SOL    HW213182   6.030   7.652   9.132  1.7805 -1.3793 -2.8752
 3911SOL     OW13183   8.087   3.800   6.371 -0.2914 -0.3296 -0.2232
 3911SOL    HW113184   8.152   3.732   6.392 -0.8292 -0.6840  0.3317
 3911SOL    HW213185   8.071   3.788   6.277 -0.1330 -0.7551 -0.2029
 3912SOL     OW13186   1.145   0.494   7.552 -0.0816 -0.1490 -0.4008
 3912SOL    HW113187   1.240   0.485   7.541 -0.2210 -2.3618 -0.2127
 3912SOL    HW213188   1.128   0.461   7.640 -1.1984 -1.5506 -1.1015
 3913SOL     OW13189   2.365   1.266   6.513 -0.1775  0.1929 -0.1688
 3913SOL    HW113190   2.334   1.356   6.521  1.2996  0.8293 -1.2920
 3913SOL    HW213191   2.289   1.217   6.481 -1.4381  0.6899  1.8686
 3914SOL     OW13192   0.092   2.565   7.618  0.1307  0.3152  0.4381
 3914SOL    HW113193   0.087   2.555   7.523  0.1493 -0.5045  0.5191
 3914SOL    HW213194   0.183   2.588   7.635  0.2207  0.0669  0.2930
 3915SOL     OW13195   2.905   9.258   6.151 -0.4807  0.0308  0.8133
 3915SOL    HW113196   2.870   9.250   6.062  0.2504  2.4412  0.2338
 3915SOL    HW213197   2.997   9.231   6.143 -0.6281 -0.5599  1.0428
 3916SOL     OW13198   6.996   7.292   1.976 -0.0692 -0.2768  0.3297
 3916SOL    HW113199   6.933   7.220   1.986  0.2358 -0.3898  1.5721
 3916SOL    HW213200   6.975   7.331   1.891 -1.2306 -0.8838  0.3241
 3917SOL     OW13201   6.607   7.917   2.234 -0.2199  0.4633 -0.0747
 3917SOL    HW113202   6.645   7.892   2.318 -0.7782  2.6359  0.9077
 3917SOL    HW213203   6.674   7.971   2.192 -0.9406  1.6861  0.2671
 3918SOL     OW13204   6.402   2.562   2.652  0.7089 -0.2801 -0.1892
 3918SOL    HW113205   6.482   2.568   2.600 -0.5215 -0.2175 -2.1663
 3918SOL    HW213206   6.432   2.568   2.743  2.9739 -0.7535 -0.8490
 3919SOL     OW13207   7.232   8.915   8.128  0.5235 -0.5334 -0.3078
 3919SOL    HW113208   7.305   8.854   8.138  0.4755 -0.5615 -0.1346
 3919SOL    HW213209   7.174   8.872   8.065  0.2577 -0.8840  0.1746
 3920SOL     OW13210   4.412   7.210   0.898  0.2704  0.7363 -0.2906
 3920SOL    HW113211   4.385   7.125   0.935  0.7912  0.7646  0.1620
 3920SOL    HW213212   4.339   7.269   0.919 -0.3129  0.2934 -1.0346
 3921SOL     OW13213   7.429   7.299   5.591 -0.3378  0.0551  0.3753
 3921SOL    HW113214   7.499   7.239   5.564 -1.1246 -0.3488 -0.8396
 3921SOL    HW213215   7.353   7.243   5.603 -1.5850  0.9680 -2.6224
 3922SOL     OW13216   1.084   0.019   2.426 -0.0056 -0.2781  0.2024
 3922SOL    HW113217   1.081  -0.074   2.448  0.5815 -0.2801  0.3096
 3922SOL    HW213218   1.156   0.053   2.480 -1.5151  0.6658  1.7147
 3923SOL     OW13219   3.287   1.639   5.121 -0.1966  0.1687  0.4140
 3923SOL    HW113220   3.214   1.576   5.116 -0.5102  0.5815 -0.6340
 3923SOL    HW213221   3.244   1.724   5.127  0.2195  0.3498  0.8157
 3924SOL     OW13222   2.309   0.045   7.537 -0.3256 -0.7248  0.8235
 3924SOL    HW113223   2.216   0.058   7.558 -0.3269 -2.1449  1.8254
 3924SOL    HW213224   2.318   0.081   7.449 -1.8530 -0.6321  0.6674
 3925SOL     OW13225   8.677   1.937   0.522 -0.5168  0.3652 -0.1355
 3925SOL    HW113226   8.696   1.999   0.593  1.9279 -0.1840 -0.2124
 3925SOL    HW213227   8.644   1.859   0.567  0.1587  0.3418  0.3344
 3926SOL     OW13228   4.983   2.109   7.960 -0.4480  0.0620  0.0992
 3926SOL    HW113229   5.024   2.053   8.026  1.5054 -1.3851 -2.1577
 3926SOL    HW213230   4.945   2.181   8.010  3.6305  0.7826  2.6191
 3927SOL     OW13231   4.539   2.759   7.996 -0.0172 -0.0203 -0.2172
 3927SOL    HW113232   4.480   2.805   8.055 -0.1169 -1.1799  0.6174
 3927SOL    HW213233   4.505   2.778   7.908 -1.1930 -0.0695  0.2108
 3928SOL     OW13234   5.159   8.830   4.091  0.0697  0.1719  0.4579
 3928SOL    HW113235   5.240   8.800   4.050 -0.7254  0.7492 -1.6612
 3928SOL    HW213236   5.161   8.925   4.081 -0.8815  0.1884  0.3646
 3929SOL     OW13237   3.875   4.301   4.677 -0.3354  0.2891  0.1699
 3929SOL    HW113238   3.914   4.230   4.624 -2.2118 -1.3237  0.8371
 3929SOL    HW213239   3.806   4.258   4.727 -0.2411  2.2584  2.1070
 3930SOL     OW13240   6.924   8.621   6.954  0.3651 -0.9740 -0.3670
 3930SOL    HW113241   6.880   8.650   7.034  0.9581 -2.1514  0.4126
 3930SOL    HW213242   6.991   8.561   6.984 -0.1756 -2.3881 -1.8301
 3931SOL     OW13243   0.174   0.183   0.526 -0.3576  0.2828 -0.1951
 3931SOL    HW113244   0.109   0.178   0.456  1.2866 -3.0236 -1.6838
 3931SOL    HW213245   0.253   0.216   0.484 -0.2912  1.8436  1.0347
 3932SOL     OW13246   7.799   8.616   5.152  0.3609  0.0823 -0.2744
 3932SOL    HW113247   7.815   8.709   5.140 -0.3903  0.3998  0.9732
 3932SOL    HW213248   7.877   8.584   5.198  0.8247 -0.0272 -1.1020
 3933SOL     OW13249   1.837   8.966   8.332  0.0895  0.4634  0.1686
 3933SOL    HW113250   1.909   8.946   8.392  0.7520  4.0075  0.8219
 3933SOL    HW213251   1.760   8.973   8.389  0.0925  0.7420  0.1412
 3934SOL     OW13252   8.372   1.816   1.717 -0.0873 -0.9827 -0.3320
 3934SOL    HW113253   8.366   1.729   1.675  0.7380 -0.0862 -2.4552
 3934SOL    HW213254   8.319   1.873   1.661  1.0085  0.2726 -0.1264
 3935SOL     OW13255   3.851   2.801   0.027 -0.3055 -0.0496  0.0669
 3935SOL    HW113256   3.823   2.823   0.116 -0.0008  2.0386 -0.3013
 3935SOL    HW213257   3.935   2.756   0.038 -1.9770 -3.2881  0.9791
 3936SOL     OW13258   2.914   8.649   6.809 -0.0978 -0.3774  0.3431
 3936SOL    HW113259   2.862   8.611   6.880 -3.1931  0.8847 -1.0516
 3936SOL    HW213260   2.886   8.601   6.731  1.1256  0.1383 -0.4497
 3937SOL     OW13261   1.800   8.146   4.704 -0.0858  0.2958  0.0173
 3937SOL    HW113262   1.867   8.162   4.637  0.6729 -0.2969  0.6192
 3937SOL    HW213263   1.718   8.142   4.655  0.5955 -1.3682 -1.0659
 3938SOL     OW13264   3.167   7.693   6.996  0.1700  0.4225 -0.8483
 3938SOL    HW113265   3.221   7.616   6.979  1.8900  1.1375  0.9385
 3938SOL    HW213266   3.121   7.671   7.078  1.4945  1.6410  0.2649
 3939SOL     OW13267   2.300   5.569   1.532 -0.7328  0.3174  0.4586
 3939SOL    HW113268   2.339   5.484   1.513 -5.2010 -2.6703  2.6562
 3939SOL    HW213269   2.301   5.615   1.449  0.7864 -2.4025 -1.1860
 3940SOL     OW13270   3.653   7.920   1.822 -0.1827 -0.5628 -1.0319
 3940SOL    HW113271   3.612   7.834   1.810 -1.6489  0.3299 -3.1310
 3940SOL    HW213272   3.583   7.974   1.859  0.7257 -0.2414  0.2684
 3941SOL     OW13273   2.595   9.092   8.739 -0.0801  0.2114 -0.0370
 3941SOL    HW113274   2.535   9.136   8.798 -0.6787 -0.6604  0.0230
 3941SOL    HW213275   2.580   8.999   8.755  0.4150 -0.0234 -0.8896
 3942SOL     OW13276   0.359   9.258   3.107  0.0396 -0.2319 -0.2246
 3942SOL    HW113277   0.437   9.219   3.067  0.2001  0.4816 -0.6267
 3942SOL    HW213278   0.314   9.302   3.035  0.2201  0.8841  0.3190
 3943SOL     OW13279   3.858   6.273   8.701  0.5847 -0.0578 -0.4732
 3943SOL    HW113280   3.826   6.347   8.650  0.9785  0.2136 -0.3302
 3943SOL    HW213281   3.946   6.299   8.728 -0.0925  0.3803  1.4715
 3944SOL     OW13282   9.102   5.723   0.360 -0.3656 -0.8615 -0.1909
 3944SOL    HW113283   9.118   5.758   0.272 -0.1244 -0.4693  0.0065
 3944SOL    HW213284   9.149   5.640   0.361 -1.2950 -1.4126 -0.8083
 3945SOL     OW13285   1.920   0.285   8.089 -0.1286 -0.4135  0.2624
 3945SOL    HW113286   2.007   0.302   8.054  0.4042 -0.8199  1.3624
 3945SOL    HW213287   1.933   0.272   8.183 -1.2791 -1.1574  0.3425
 3946SOL     OW13288   2.578   8.534   5.079 -0.0515 -0.1911  0.0154
 3946SOL    HW113289   2.608   8.493   5.160  2.3996  0.4616 -0.4864
 3946SOL    HW213290   2.491   8.568   5.100 -0.2721 -1.6793  1.7713
 3947SOL     OW13291   7.379   0.172   2.230 -0.0913 -0.1406 -0.1318
 3947SOL    HW113292   7.301   0.117   2.233 -0.5837  0.5358 -0.4482
 3947SOL    HW213293   7.356   0.243   2.171  1.0296 -0.3268 -0.8112
 3948SOL     OW13294   8.006   6.971   3.824  0.2330  0.2730  0.0333
 3948SOL    HW113295   8.076   7.036   3.827  0.7412 -0.2379 -0.4201
 3948SOL    HW213296   7.963   6.977   3.909 -0.9666  2.5093 -0.6574
 3949SOL     OW13297   5.434   6.252   2.318  0.2893 -0.4681  0.2166
 3949SOL    HW113298   5.483   6.334   2.318  0.5416 -0.6133  0.6910
 3949SOL    HW213299   5.343   6.279   2.301  0.6759 -0.3116 -1.8444
 3950SOL     OW13300   0.251   6.488   7.303 -0.0646  0.2221 -0.7325
 3950SOL    HW113301   0.264   6.574   7.264  1.7196  0.2053 -0.2635
 3950SOL    HW213302   0.220   6.433   7.230  0.0093  0.9490 -1.3255
 3951SOL     OW13303   3.918   2.607   2.972 -0.6161 -0.0713  0.0356
 3951SOL    HW113304   3.894   2.520   3.003 -1.3050 -0.1590 -0.7225
 3951SOL    HW213305   3.878   2.614   2.885  1.9582 -0.1492 -1.2400
 3952SOL     OW13306   0.404   3.197   2.657 -0.2056  0.0841 -0.0859
 3952SOL    HW113307   0.369   3.199   2.568  0.0716 -0.4100 -0.2104
 3952SOL    HW213308   0.338   3.152   2.708  0.4377 -1.3068 -0.4207
 3953SOL     OW13309   3.510   8.056   4.483 -0.0751 -0.0322  0.0923
 3953SOL    HW113310   3.489   8.126   4.421  0.0455 -0.7227 -0.7536
 3953SOL    HW213311   3.554   8.100   4.556  0.2187  0.7376 -0.5334
 3954SOL     OW13312   1.153   8.969   2.870  0.9707 -0.0310  0.1650
 3954SOL    HW113313   1.206   8.992   2.794  0.5395  0.2476 -0.0589
 3954SOL    HW213314   1.119   9.053   2.902 -2.2266 -0.3742 -1.8287
 3955SOL     OW13315   7.907   9.146   8.459  0.1211 -0.3259 -0.6614
 3955SOL    HW113316   7.867   9.076   8.510  1.6797  0.0565  1.2294
 3955SOL    HW213317   7.833   9.197   8.426 -1.0479  0.0801  2.2489
 3956SOL     OW13318   4.482   3.537   1.048 -0.0421 -0.4088 -0.2248
 3956SOL    HW113319   4.517   3.534   0.959  0.1307  0.0502 -0.1758
 3956SOL    HW213320   4.527   3.466   1.094 -0.3441 -0.8329 -0.5749
 3957SOL     OW13321   8.264   9.052   9.195  0.4589  0.0275 -0.2442
 3957SOL    HW113322   8.189   9.039   9.137  1.7899  0.8875 -2.2615
 3957SOL    HW213323   8.299   9.138   9.169  2.4060 -0.5503  0.3134
 3958SOL     OW13324   8.165   6.041   1.413  0.2091 -0.2457 -0.2606
 3958SOL    HW113325   8.120   6.078   1.489  1.6788  0.1806  0.4353
 3958SOL    HW213326   8.095   6.003   1.360 -1.2329  2.2472 -0.3015
 3959SOL     OW13327   1.298   4.392   7.952  0.1193  0.2968  0.4728
 3959SOL    HW113328   1.295   4.426   7.863  0.1122 -0.9183 -0.0127
 3959SOL    HW213329   1.358   4.317   7.948 -2.3895 -1.8932  0.6722
 3960SOL     OW13330   2.793   6.306   6.114 -0.4825  0.3722 -0.3035
 3960SOL    HW113331   2.759   6.270   6.033  1.2679 -0.8074 -0.5727
 3960SOL    HW213332   2.877   6.346   6.090 -0.6455  1.3505  0.6634
 3961SOL     OW13333   2.368   0.208   1.733 -0.1000 -0.5004  0.0733
 3961SOL    HW113334   2.357   0.261   1.655 -2.0505 -0.7929  0.0911
 3961SOL    HW213335   2.416   0.130   1.704 -0.7103 -0.5549 -0.8060
 3962SOL     OW13336   0.168   2.511   6.367  0.1101 -0.1859 -0.0139
 3962SOL    HW113337   0.106   2.546   6.431  0.4079  0.6878 -0.1824
 3962SOL    HW213338   0.239   2.475   6.420 -0.6472 -1.4434  0.1878
 3963SOL     OW13339   8.189   7.290   6.810 -0.3140  0.5027 -0.4527
 3963SOL    HW113340   8.130   7.340   6.753  0.6348  0.1892 -1.7552
 3963SOL    HW213341   8.180   7.199   6.780  0.6097  0.4123 -0.4923
 3964SOL     OW13342   8.875   7.236   7.532 -0.0850 -0.5313  0.0538
 3964SOL    HW113343   8.967   7.263   7.526 -0.6201  1.8264  1.1731
 3964SOL    HW213344   8.852   7.212   7.442  1.3159 -0.0449 -0.4700
 3965SOL     OW13345   8.633   6.222   4.852 -0.3206 -0.1455 -0.2446
 3965SOL    HW113346   8.693   6.215   4.778 -1.0160 -0.8317 -0.7684
 3965SOL    HW213347   8.597   6.133   4.861 -0.4579  0.0072  0.7322
 3966SOL     OW13348   1.741   3.014   1.280  0.3148 -0.4891  0.3789
 3966SOL    HW113349   1.718   2.921   1.282 -0.5715 -0.2727  0.8074
 3966SOL    HW213350   1.676   3.056   1.337 -0.7770  0.7102 -1.6170
 3967SOL     OW13351   4.795   3.136   4.914  0.7270  0.8440  0.4308
 3967SOL    HW113352   4.700   3.130   4.929  0.7358 -0.6436 -0.0226
 3967SOL    HW213353   4.833   3.117   5.000  0.6472 -1.5323 -0.0082
 3968SOL     OW13354   3.495   3.040   4.731 -0.8029  0.7912 -0.0542
 3968SOL    HW113355   3.470   3.132   4.739 -0.7172  0.7360  1.0345
 3968SOL    HW213356   3.574   3.031   4.785 -2.6567 -0.5942  2.6881
 3969SOL     OW13357   2.471   8.842   8.705  0.4305  0.1012  0.1188
 3969SOL    HW113358   2.441   8.906   8.641 -0.6966 -0.7742 -0.2698
 3969SOL    HW213359   2.415   8.854   8.781  0.4952 -0.1299  0.2069
 3970SOL     OW13360   1.914   2.003   5.046 -0.2820  0.5952 -0.2427
 3970SOL    HW113361   1.927   2.084   5.095 -1.2240 -0.7654  2.4915
 3970SOL    HW213362   1.892   1.938   5.113 -0.8762 -1.6389 -2.4477
 3971SOL     OW13363   6.331   7.414   3.362 -0.0716 -0.3179  0.1073
 3971SOL    HW113364   6.363   7.504   3.368  0.9516 -0.6414 -0.1750
 3971SOL    HW213365   6.409   7.360   3.375 -0.5867 -1.1587 -0.1934
 3972SOL     OW13366   2.453   5.185   5.343 -0.0348  0.0480  0.4640
 3972SOL    HW113367   2.365   5.205   5.375  0.5104  0.5414  1.7070
 3972SOL    HW213368   2.510   5.244   5.391  0.6991  2.1759 -2.7584
 3973SOL     OW13369   6.526   4.886   1.251  0.0428  0.1061 -0.3859
 3973SOL    HW113370   6.553   4.798   1.280 -2.3977 -0.1913  1.3018
 3973SOL    HW213371   6.483   4.871   1.167 -0.6470 -0.4048  0.0429
 3974SOL     OW13372   3.561   0.479   6.742  0.2182  0.0316  0.5703
 3974SOL    HW113373   3.550   0.531   6.822 -0.9063  3.0829 -1.3971
 3974SOL    HW213374   3.472   0.467   6.709  0.4489 -3.0259  0.6963
 3975SOL     OW13375   6.323   2.967   2.212  0.1902 -0.7521 -0.3512
 3975SOL    HW113376   6.352   2.881   2.242  2.1783 -0.2191 -0.6038
 3975SOL    HW213377   6.299   3.014   2.292 -0.1781 -1.2719 -0.1505
 3976SOL     OW13378   5.480   4.190   5.184 -0.4749 -0.4518  0.5886
 3976SOL    HW113379   5.388   4.216   5.179 -0.6405 -1.1472 -0.4102
 3976SOL    HW213380   5.520   4.252   5.245 -0.9082  1.8988 -1.3693
 3977SOL     OW13381   5.202   1.839   1.437 -0.7995  0.4952  0.2025
 3977SOL    HW113382   5.189   1.764   1.378  0.7340  0.0830  0.3453
 3977SOL    HW213383   5.115   1.877   1.446 -1.3094 -0.2309 -1.2640
 3978SOL     OW13384   1.985   1.902   4.456 -0.9986  0.3208  0.2651
 3978SOL    HW113385   2.033   1.912   4.538 -1.0070 -1.7146  0.5750
 3978SOL    HW213386   2.049   1.865   4.395 -1.7048 -0.8483  0.2014
 3979SOL     OW13387   1.697   0.644   1.800 -0.4795  0.0842  0.0133
 3979SOL    HW113388   1.620   0.612   1.754 -0.6369  1.3172 -0.6338
 3979SOL    HW213389   1.770   0.624   1.741 -0.6864  1.7070 -0.8618
 3980SOL     OW13390   2.813   3.790   6.986 -0.3428  0.1203  0.5097
 3980SOL    HW113391   2.903   3.813   6.965 -0.3423 -1.1482 -1.0835
 3980SOL    HW213392   2.761   3.826   6.914 -0.8889 -0.6058  0.5230
 3981SOL     OW13393   4.424   6.717   3.293 -0.0114 -0.0087  0.2472
 3981SOL    HW113394   4.345   6.742   3.341 -0.1256 -2.2812  1.4221
 3981SOL    HW213395   4.391   6.679   3.211 -0.0956 -0.1757  0.3579
 3982SOL     OW13396   5.557   5.893   3.537  0.2589  0.0752  0.3704
 3982SOL    HW113397   5.485   5.903   3.475 -0.1348 -1.5034  0.5345
 3982SOL    HW213398   5.514   5.874   3.621  0.8383  0.3285  0.7314
 3983SOL     OW13399   1.403   6.172   6.512 -0.3656 -0.3593 -0.2769
 3983SOL    HW113400   1.453   6.232   6.567 -3.1097  0.6735  1.2867
 3983SOL    HW213401   1.460   6.155   6.437  2.4069  0.3824  1.5388
 3984SOL     OW13402   7.270   6.297   4.429 -0.3959  0.1305 -0.1572
 3984SOL    HW113403   7.195   6.280   4.486 -1.2083  2.5315 -0.3894
 3984SOL    HW213404   7.243   6.373   4.376  1.6533  0.1397 -1.2848
 3985SOL     OW13405   8.087   5.918   8.606  0.1869 -0.5201 -0.5197
 3985SOL    HW113406   8.166   5.867   8.595  0.1824 -0.3831 -1.2879
 3985SOL    HW213407   8.029   5.864   8.659  0.7606 -0.6573 -0.0389
 3986SOL     OW13408   1.068   0.414   7.832 -0.0630 -0.1101 -0.0036
 3986SOL    HW113409   1.004   0.345   7.849  1.1123 -1.1612  0.3099
 3986SOL    HW213410   1.152   0.376   7.858  0.9811  0.5157 -2.2232
 3987SOL     OW13411   3.933   1.083   3.955 -0.3017 -0.1455 -0.0428
 3987SOL    HW113412   3.989   1.157   3.979  0.3282 -0.1956 -1.2712
 3987SOL    HW213413   3.994   1.010   3.943 -0.5896 -0.1868 -1.4548
 3988SOL     OW13414   8.818   1.158   5.414 -0.0806  0.1811  0.0578
 3988SOL    HW113415   8.756   1.090   5.387 -1.4393  0.4132  2.3776
 3988SOL    HW213416   8.904   1.118   5.400 -0.7821 -1.0041 -1.0868
 3989SOL     OW13417   2.378   4.749   0.378 -0.0100 -0.4641 -0.0864
 3989SOL    HW113418   2.315   4.713   0.441  1.0659  1.2174  2.0681
 3989SOL    HW213419   2.324   4.796   0.315 -1.0697 -1.3158  0.1558
 3990SOL     OW13420   3.046   1.371   7.069 -0.0884  0.3741 -0.5828
 3990SOL    HW113421   2.989   1.409   7.002  0.3529  0.7533 -0.7447
 3990SOL    HW213422   3.088   1.296   7.026 -1.3396 -0.6393 -0.1150
 3991SOL     OW13423   7.407   2.359   1.408 -0.9033  0.3002  0.9045
 3991SOL    HW113424   7.432   2.342   1.499  0.9922 -0.8381  0.2303
 3991SOL    HW213425   7.489   2.358   1.360 -1.9895 -0.5544 -1.0515
 3992SOL     OW13426   1.761   7.705   7.985  0.0229  0.2479  0.4837
 3992SOL    HW113427   1.836   7.646   7.992  0.4670  0.6117 -0.8776
 3992SOL    HW213428   1.789   7.784   8.032  0.7021  0.5601 -0.4147
 3993SOL     OW13429   1.821   4.587   0.339 -0.2807 -0.1110 -0.0590
 3993SOL    HW113430   1.807   4.493   0.355 -0.7915  0.0513  0.4464
 3993SOL    HW213431   1.756   4.631   0.393  1.1238  0.6019  1.1228
 3994SOL     OW13432   5.158   3.305   0.720 -0.1537 -0.2199 -0.4803
 3994SOL    HW113433   5.079   3.255   0.699 -0.1177 -0.0917 -0.9394
 3994SOL    HW213434   5.225   3.268   0.662  0.1814 -0.4740  0.0578
 3995SOL     OW13435   4.279   4.005   7.936 -0.2158 -0.5074  0.3758
 3995SOL    HW113436   4.357   4.059   7.942  0.0788 -0.6157 -1.7886
 3995SOL    HW213437   4.252   3.992   8.027  2.3957 -0.6775  1.2123
 3996SOL     OW13438   3.598   3.541   4.760  0.0568 -0.7619 -0.3855
 3996SOL    HW113439   3.542   3.579   4.692 -0.3465 -1.6059 -0.5432
 3996SOL    HW213440   3.555   3.458   4.782  0.5769 -0.8316  0.3862
 3997SOL     OW13441   2.139   2.444   6.598 -0.2207 -0.1522  0.1538
 3997SOL    HW113442   2.201   2.452   6.525 -0.9217  0.4118 -0.3972
 3997SOL    HW213443   2.067   2.502   6.574  0.0394  0.9425  1.8330
 3998SOL     OW13444   4.084   0.002   8.368  0.4099  0.2255 -0.5085
 3998SOL    HW113445   4.120   0.084   8.401 -0.4148  0.1457  0.6832
 3998SOL    HW213446   3.997   0.026   8.335 -0.0554 -0.2354  0.3420
 3999SOL     OW13447   5.626   6.536   4.237  0.5015  0.3161  0.3101
 3999SOL    HW113448   5.625   6.471   4.166 -0.3745 -0.9621  1.4437
 3999SOL    HW213449   5.554   6.595   4.215 -1.5709 -1.6261  1.4259
 4000SOL     OW13450   2.303   4.971   4.368 -0.1378  0.3472 -0.1064
 4000SOL    HW113451   2.273   5.049   4.321 -0.6223 -0.9713 -2.1180
 4000SOL    HW213452   2.398   4.971   4.355 -0.2778 -0.0999 -1.3694
 4001SOL     OW13453   2.687   0.003   2.762  0.1624 -0.0093  0.2059
 4001SOL    HW113454   2.689  -0.086   2.727  3.3636  1.1776 -3.1424
 4001SOL    HW213455   2.745   0.001   2.838 -0.8650 -0.9607  1.0104
 4002SOL     OW13456   6.107   2.283   7.189  0.5288  0.2215  0.3752
 4002SOL    HW113457   6.199   2.305   7.171  0.0492  1.7564 -0.3661
 4002SOL    HW213458   6.110   2.236   7.273  1.9114  0.9675  0.7832
 4003SOL     OW13459   4.022   8.322   1.940 -0.4083  0.1654  0.7660
 4003SOL    HW113460   4.062   8.275   1.867  0.0902  0.0783  1.0857
 4003SOL    HW213461   4.013   8.412   1.910 -0.2236  0.1257  0.5925
 4004SOL     OW13462   8.432   7.308   2.976  0.3644 -0.2016 -0.3269
 4004SOL    HW113463   8.427   7.367   2.900  2.2679  0.0328 -0.3219
 4004SOL    HW213464   8.524   7.311   3.002 -0.2934  0.0246  2.2442
 4005SOL     OW13465   1.635   5.299   6.788  0.5244 -0.6987 -0.2614
 4005SOL    HW113466   1.581   5.276   6.864  0.6441  0.9659  0.3772
 4005SOL    HW213467   1.723   5.309   6.824  0.6926 -0.5010 -0.7278
 4006SOL     OW13468   5.390   1.412   0.311 -0.1813  0.1119 -0.2308
 4006SOL    HW113469   5.404   1.473   0.239 -0.4544  0.3024 -0.1287
 4006SOL    HW213470   5.317   1.451   0.361 -1.1459 -0.8898 -0.8149
 4007SOL     OW13471   2.582   6.831   3.398 -0.6599  0.1012  0.9053
 4007SOL    HW113472   2.627   6.900   3.446  0.7462 -0.7385  0.8384
 4007SOL    HW213473   2.553   6.770   3.465 -1.7741  0.6447  0.9505
 4008SOL     OW13474   7.465   7.980   6.939 -0.4246 -0.3089 -0.0482
 4008SOL    HW113475   7.403   7.911   6.961 -1.1583  0.4267  0.2293
 4008SOL    HW213476   7.468   7.979   6.843 -0.8623 -0.3507 -0.0628
 4009SOL     OW13477   8.366   4.862   2.533  0.1330  0.1283 -0.1006
 4009SOL    HW113478   8.436   4.906   2.484 -0.4343  1.7886  0.4930
 4009SOL    HW213479   8.375   4.897   2.622 -1.1718  0.0351  0.0770
 4010SOL     OW13480   8.036   4.761   8.404 -0.0315  0.4907  0.1134
 4010SOL    HW113481   8.064   4.817   8.332 -1.4288 -1.2504 -1.9282
 4010SOL    HW213482   8.095   4.686   8.400 -1.0921 -0.3508 -0.2784
 4011SOL     OW13483   0.639   9.061   4.440  0.5905  0.2441 -0.1896
 4011SOL    HW113484   0.613   9.065   4.532 -1.0088 -1.1522 -0.5181
 4011SOL    HW213485   0.605   9.141   4.401  0.9268  0.6543  0.3645
 4012SOL     OW13486   4.250   8.274   2.139  0.2326 -0.1931 -0.0430
 4012SOL    HW113487   4.175   8.330   2.119  0.8064  1.0214  1.0266
 4012SOL    HW213488   4.292   8.258   2.055 -0.3244  0.4320 -0.4479
 4013SOL     OW13489   4.830   5.155   5.221 -0.4685 -0.1425 -0.1901
 4013SOL    HW113490   4.766   5.225   5.210 -1.2038  0.0821  3.7563
 4013SOL    HW213491   4.914   5.195   5.199 -1.2645  0.6626 -1.9486
 4014SOL     OW13492   4.077   0.445   1.559 -0.3248  0.1197 -0.1691
 4014SOL    HW113493   4.087   0.535   1.527 -0.0889  0.8584  1.8177
 4014SOL    HW213494   3.999   0.412   1.514 -1.2832  1.8487  0.1343
 4015SOL     OW13495   2.188   5.377   8.179  0.3932  0.0736  0.0149
 4015SOL    HW113496   2.205   5.321   8.104  0.9800  0.0090  0.1910
 4015SOL    HW213497   2.092   5.381   8.185  0.3454 -0.8180 -0.0680
 4016SOL     OW13498   4.853   7.472   1.667  0.6513 -0.1032  0.0583
 4016SOL    HW113499   4.907   7.434   1.736  0.2760 -1.1125 -0.1855
 4016SOL    HW213500   4.763   7.462   1.699  0.5616  1.0145  0.1939
 4017SOL     OW13501   2.219   2.952   4.400  0.1505  0.6346  0.4890
 4017SOL    HW113502   2.211   3.041   4.365  1.7116 -0.4601 -3.1133
 4017SOL    HW213503   2.304   2.951   4.444 -1.3654  1.7177  3.8096
 4018SOL     OW13504   8.109   4.045   5.276 -0.4212 -0.3371 -0.0629
 4018SOL    HW113505   8.044   4.042   5.205 -1.3911  0.1506  0.7721
 4018SOL    HW213506   8.084   3.973   5.334  0.0434 -0.4033  0.0542
 4019SOL     OW13507   7.951   0.884   7.300 -0.0000 -0.3160 -0.1066
 4019SOL    HW113508   7.874   0.929   7.336 -0.4153 -1.6179  0.7137
 4019SOL    HW213509   8.024   0.915   7.353 -0.0793  0.2984 -0.3475
 4020SOL     OW13510   3.428   4.604   6.599  0.1791  0.5587 -0.3273
 4020SOL    HW113511   3.483   4.545   6.547  0.3867  2.4116 -2.3751
 4020SOL    HW213512   3.346   4.556   6.611  0.8968 -0.7700 -0.5123
 4021SOL     OW13513   1.672   3.852   4.509 -0.4302 -0.7633  0.3501
 4021SOL    HW113514   1.737   3.839   4.440  0.2359 -1.2617  1.0434
 4021SOL    HW213515   1.592   3.811   4.475 -0.4852  0.1329 -0.6436
 4022SOL     OW13516   9.024   7.874   4.246  0.0773  0.3322  1.0607
 4022SOL    HW113517   9.023   7.968   4.227  1.9936  0.2741  0.4694
 4022SOL    HW213518   8.946   7.840   4.202  0.4414  1.3604 -0.4481
 4023SOL     OW13519   6.250   2.581   4.065 -0.1682 -0.4080  0.6258
 4023SOL    HW113520   6.283   2.661   4.026 -1.8729 -0.3177 -0.7148
 4023SOL    HW213521   6.206   2.609   4.146  0.7592 -0.2334  1.0798
 4024SOL     OW13522   6.821   0.745   2.673 -0.4624  0.2961  0.0139
 4024SOL    HW113523   6.741   0.716   2.717 -0.5388 -0.8875 -0.8512
 4024SOL    HW213524   6.875   0.667   2.668  0.3186  0.8485 -0.3454
 4025SOL     OW13525   4.268   1.058   7.959  0.4558  1.0218  0.1782
 4025SOL    HW113526   4.223   1.018   8.034  1.2468 -0.1307  0.0803
 4025SOL    HW213527   4.245   1.150   7.963 -0.1114  0.8475  1.4198
 4026SOL     OW13528   7.275   0.018   3.799  0.4881 -0.0811 -0.1223
 4026SOL    HW113529   7.224  -0.037   3.859  0.9693  0.1372  0.4996
 4026SOL    HW213530   7.210   0.074   3.757  0.1422 -0.2185  0.2195
 4027SOL     OW13531   3.993   1.651   4.200  0.0748 -0.0823 -0.2466
 4027SOL    HW113532   4.081   1.616   4.189 -0.7182 -2.2531 -0.2749
 4027SOL    HW213533   3.979   1.707   4.124  1.1647 -0.3207 -0.6284
 4028SOL     OW13534   6.177   0.006   6.371  0.6732 -0.2574 -0.0459
 4028SOL    HW113535   6.242   0.008   6.301  0.3116 -0.3802 -0.3876
 4028SOL    HW213536   6.185  -0.081   6.410  1.3725  0.0591  0.5457
 4029SOL     OW13537   5.310   8.356   0.366  0.0066  0.2042  0.4675
 4029SOL    HW113538   5.228   8.402   0.345  0.1186  0.3087  0.2517
 4029SOL    HW213539   5.283   8.284   0.423 -0.3889 -0.4615 -0.5305
 4030SOL     OW13540   2.807   8.895   6.726 -0.0172  0.5447 -0.9757
 4030SOL    HW113541   2.857   8.823   6.764 -0.6554 -0.0373 -1.2062
 4030SOL    HW213542   2.816   8.883   6.631 -1.5103 -0.2563 -1.0481
 4031SOL     OW13543   1.139   4.671   3.104 -0.6664 -0.1492 -0.2314
 4031SOL    HW113544   1.104   4.609   3.041 -0.8203 -0.3730  0.0683
 4031SOL    HW213545   1.138   4.755   3.059  1.4837 -0.6835 -1.4032
 4032SOL     OW13546   8.749   4.278   2.357 -0.1946  0.0021 -0.3714
 4032SOL    HW113547   8.826   4.285   2.415 -0.5054 -0.4640  0.1064
 4032SOL    HW213548   8.774   4.327   2.279  0.5505 -0.0432 -0.1735
 4033SOL     OW13549   2.258   0.121   4.255  0.5766  0.6550  0.3038
 4033SOL    HW113550   2.226   0.177   4.326  0.3323  1.6200 -0.5254
 4033SOL    HW213551   2.236   0.170   4.175 -1.0469 -1.3343 -0.5571
 4034SOL     OW13552   3.694   2.022   3.162  1.0565 -0.0169  0.6981
 4034SOL    HW113553   3.652   2.088   3.217 -0.3266  0.0078 -0.3394
 4034SOL    HW213554   3.787   2.031   3.181  0.7477  1.0575  1.8496
 4035SOL     OW13555   4.270   8.151   8.307  0.2848  0.3315 -0.8170
 4035SOL    HW113556   4.266   8.147   8.403  0.8401  1.2782 -0.7424
 4035SOL    HW213557   4.248   8.241   8.286 -0.8479 -0.1161 -1.6621
 4036SOL     OW13558   1.997   4.362   0.680  0.4774 -0.3277  0.6174
 4036SOL    HW113559   2.067   4.313   0.725 -0.7792 -1.4577  1.4087
 4036SOL    HW213560   1.919   4.347   0.734 -0.4159  0.7971 -0.3238
 4037SOL     OW13561   6.331   4.543   0.038 -0.0467 -0.1138  0.1347
 4037SOL    HW113562   6.284   4.623   0.017 -1.0196 -0.8480 -0.5522
 4037SOL    HW213563   6.407   4.572   0.089 -0.3393  1.2380 -0.1782
 4038SOL     OW13564   5.290   7.231   1.837  0.5158  0.2617 -0.1868
 4038SOL    HW113565   5.283   7.138   1.858 -0.3876 -0.0333 -1.6807
 4038SOL    HW213566   5.313   7.233   1.744 -2.9680  1.4885 -1.1709
 4039SOL     OW13567   2.806   5.143   0.410 -0.3743 -0.2457 -0.1173
 4039SOL    HW113568   2.750   5.070   0.434 -0.6950 -0.2324 -0.7976
 4039SOL    HW213569   2.747   5.219   0.410 -0.0456  0.0199  0.5833
 4040SOL     OW13570   8.992   9.165   1.175  0.6688 -0.2997 -0.4389
 4040SOL    HW113571   8.970   9.155   1.082 -1.7711 -2.6498  0.2622
 4040SOL    HW213572   8.960   9.252   1.198 -1.5817 -0.8715 -1.1647
 4041SOL     OW13573   2.959   6.210   2.159  0.2941  0.7236  0.0308
 4041SOL    HW113574   2.960   6.283   2.096  1.2471  1.0650  0.4259
 4041SOL    HW213575   3.002   6.245   2.237 -0.5536  0.1916  0.7571
 4042SOL     OW13576   0.708   6.549   2.827 -0.3659  0.0040 -0.7808
 4042SOL    HW113577   0.718   6.583   2.916  1.2913 -0.7914 -0.6280
 4042SOL    HW213578   0.680   6.458   2.839 -1.2114  0.2179 -1.1023
 4043SOL     OW13579   7.156   6.503   1.598 -1.0713 -0.1051 -0.0021
 4043SOL    HW113580   7.228   6.466   1.547 -0.3349  0.5544  0.5359
 4043SOL    HW213581   7.077   6.461   1.562 -0.4012 -1.0628 -0.3896
 4044SOL     OW13582   0.709   8.178   4.843 -0.1596  0.2872  0.3418
 4044SOL    HW113583   0.765   8.106   4.871  0.2069 -0.3397 -1.8316
 4044SOL    HW213584   0.751   8.256   4.878  0.3259 -0.4085  1.3682
 4045SOL     OW13585   1.867   6.831   8.979  0.0637 -0.5723  0.2920
 4045SOL    HW113586   1.873   6.796   8.890 -0.6825  2.2953 -1.0070
 4045SOL    HW213587   1.947   6.884   8.989 -1.0825  1.2356  0.2683
 4046SOL     OW13588   4.321   4.597   0.497 -0.3521 -0.2988  0.2257
 4046SOL    HW113589   4.354   4.514   0.462  2.6458  0.7055  0.4244
 4046SOL    HW213590   4.379   4.663   0.460 -0.6770  1.3873  2.5704
 4047SOL     OW13591   7.335   8.968   8.558  0.1249  0.4203 -0.0965
 4047SOL    HW113592   7.269   8.923   8.611  0.1308 -0.3502 -0.7159
 4047SOL    HW213593   7.285   9.017   8.493  0.0842  2.0652  1.1108
 4048SOL     OW13594   0.055   3.156   0.445 -0.3479 -0.5801 -0.0587
 4048SOL    HW113595   0.113   3.187   0.514 -0.1794 -1.0816  0.0298
 4048SOL    HW213596   0.016   3.235   0.409  0.5859 -0.2072 -0.2925
 4049SOL     OW13597   5.208   8.653   6.541 -0.1966  0.4972  0.3235
 4049SOL    HW113598   5.120   8.629   6.513 -0.1577  0.3472  0.3275
 4049SOL    HW213599   5.244   8.573   6.578 -0.0429  0.5477  0.2849
 4050SOL     OW13600   7.430   1.750   0.448  0.1325 -0.1718  0.4770
 4050SOL    HW113601   7.405   1.705   0.368  1.2077  0.1016 -0.0236
 4050SOL    HW213602   7.361   1.727   0.511 -0.3876 -0.8874 -0.3381
 4051SOL     OW13603   1.901   8.916   1.496  0.3250 -0.6194  0.4132
 4051SOL    HW113604   1.981   8.863   1.500  1.7222  1.2085 -1.4131
 4051SOL    HW213605   1.846   8.873   1.431  0.8597 -0.5623 -0.0758
 4052SOL     OW13606   8.749   8.309   5.371 -0.4218 -0.0276 -0.1082
 4052SOL    HW113607   8.688   8.312   5.297  0.0227 -1.3128 -0.5736
 4052SOL    HW213608   8.694   8.293   5.447 -0.7896  0.1941 -0.3253
 4053SOL     OW13609   4.477   6.146   6.565  0.1291 -0.5709 -0.7022
 4053SOL    HW113610   4.429   6.229   6.565  1.1027  0.0059 -1.5146
 4053SOL    HW213611   4.465   6.112   6.654 -0.3312  0.4106 -0.3688
 4054SOL     OW13612   2.600   6.021   4.744  0.3573 -0.8886 -0.3018
 4054SOL    HW113613   2.574   5.994   4.656 -0.0648 -0.4878 -0.3013
 4054SOL    HW213614   2.614   5.939   4.791 -0.0534 -1.1051 -0.5543
 4055SOL     OW13615   6.682   6.752   1.662 -0.1077 -0.3901 -0.0931
 4055SOL    HW113616   6.732   6.773   1.584 -0.7859 -0.1743 -0.4750
 4055SOL    HW213617   6.689   6.656   1.670 -2.0556 -0.7439 -1.8380
 4056SOL     OW13618   7.085   4.855   0.144 -0.5204  0.0905 -0.7025
 4056SOL    HW113619   7.072   4.765   0.115 -1.2723  0.3340 -1.1659
 4056SOL    HW213620   7.113   4.848   0.235  1.1567 -0.6668 -1.2405
 4057SOL     OW13621   0.552   4.188   3.126 -0.2428  0.1794 -0.1521
 4057SOL    HW113622   0.531   4.099   3.153 -0.5925  0.2585 -0.1506
 4057SOL    HW213623   0.615   4.219   3.191  0.5759 -0.3688 -0.6601
 4058SOL     OW13624   1.013   2.806   3.427  0.1148  0.2714 -0.1969
 4058SOL    HW113625   0.919   2.817   3.442 -0.0932 -0.7512 -0.7225
 4058SOL    HW213626   1.052   2.886   3.463 -0.4557 -1.2571  4.4981
 4059SOL     OW13627   2.416   2.913   0.676  0.2974  0.1050  0.3027
 4059SOL    HW113628   2.357   2.986   0.655 -0.1455 -0.0461  0.9729
 4059SOL    HW213629   2.500   2.954   0.694 -0.2900  0.6189  2.0743
 4060SOL     OW13630   6.294   3.731   7.866  0.5531 -0.0163  0.2187
 4060SOL    HW113631   6.340   3.648   7.855 -0.0218 -0.2099 -0.8441
 4060SOL    HW213632   6.279   3.763   7.777 -1.1252  0.1735  0.5233
 4061SOL     OW13633   3.576   1.119   6.884  0.0775  0.1952  0.1918
 4061SOL    HW113634   3.489   1.086   6.906  0.1910  0.2252  0.7186
 4061SOL    HW213635   3.563   1.177   6.809 -0.2116 -0.5802 -0.3691
 4062SOL     OW13636   8.206   1.856   2.890 -0.2827  0.4273 -1.2873
 4062SOL    HW113637   8.288   1.807   2.883 -0.5193  0.2273 -2.8977
 4062SOL    HW213638   8.141   1.790   2.912 -0.0560  0.5802 -0.0461
 4063SOL     OW13639   1.421   0.540   3.467 -0.3360 -0.1085  0.2962
 4063SOL    HW113640   1.379   0.472   3.520 -0.1428  0.5960  1.3882
 4063SOL    HW213641   1.375   0.537   3.383  0.1250 -2.0374  0.0739
 4064SOL     OW13642   9.236   0.794   9.074 -0.0888 -0.4467  0.6845
 4064SOL    HW113643   9.258   0.868   9.018  2.3468 -1.2481  0.4903
 4064SOL    HW213644   9.141   0.801   9.086 -0.6613  0.1668 -2.9615
 4065SOL     OW13645   7.274   4.695   5.324 -0.3916 -0.2155  0.3706
 4065SOL    HW113646   7.218   4.766   5.294 -1.2597  0.1378  2.6337
 4065SOL    HW213647   7.264   4.626   5.258  0.5066  1.7048 -1.9057
 4066SOL     OW13648   6.464   3.108   7.319 -0.2172 -0.2840  0.3846
 4066SOL    HW113649   6.519   3.166   7.265 -2.4254  0.5150 -1.1425
 4066SOL    HW213650   6.488   3.019   7.291 -0.9796  0.1083 -1.6685
 4067SOL     OW13651   2.782   4.330   7.461 -0.5782  0.1602  0.5919
 4067SOL    HW113652   2.704   4.289   7.497 -1.4161  0.0988 -1.2115
 4067SOL    HW213653   2.756   4.360   7.374  0.9580  1.5578  0.5574
 4068SOL     OW13654   4.566   2.910   2.994 -0.2300  0.8443  0.0793
 4068SOL    HW113655   4.490   2.907   3.052 -1.2997 -0.0794 -1.3079
 4068SOL    HW213656   4.537   2.867   2.913  1.6061  0.9330 -0.6862
 4069SOL     OW13657   3.851   8.352   6.479  0.1093  0.1744 -0.3070
 4069SOL    HW113658   3.800   8.307   6.546  0.4584  0.0600 -0.1119
 4069SOL    HW213659   3.934   8.304   6.475  1.5768  2.2977  1.7653
 4070SOL     OW13660   1.771   6.049   3.915  0.4955  0.1908 -0.3690
 4070SOL    HW113661   1.866   6.035   3.915  0.2696 -1.5276  0.0648
 4070SOL    HW213662   1.749   6.060   4.008  0.2723  0.7202 -0.4800
 4071SOL     OW13663   3.132   3.898   7.382  0.2653  0.1110 -0.1281
 4071SOL    HW113664   3.060   3.883   7.320 -1.1590  0.5890  1.3360
 4071SOL    HW213665   3.089   3.935   7.459  2.2660  1.7068  0.2992
 4072SOL     OW13666   1.151   7.444   8.894  0.2007  0.8294 -0.1407
 4072SOL    HW113667   1.138   7.357   8.856 -0.5849  1.1685 -0.6770
 4072SOL    HW213668   1.163   7.428   8.988 -1.1181  0.2219 -0.0464
 4073SOL     OW13669   6.197   3.107   8.484  0.0327 -0.2535  0.2516
 4073SOL    HW113670   6.226   3.117   8.394  1.1628  0.9275  0.7211
 4073SOL    HW213671   6.102   3.125   8.481  0.0506 -0.2855 -0.7005
 4074SOL     OW13672   9.203   7.997   8.165  0.0345 -0.3921  0.2649
 4074SOL    HW113673   9.171   8.073   8.117  0.8039 -0.2197  0.0191
 4074SOL    HW213674   9.127   7.940   8.172 -0.0345 -0.5734 -1.4513
 4075SOL     OW13675   0.850   8.270   5.196  0.0628 -0.4368  0.3126
 4075SOL    HW113676   0.935   8.260   5.153  0.7774 -0.5241  1.6812
 4075SOL    HW213677   0.793   8.306   5.128  1.2981  0.0113 -0.5292
 4076SOL     OW13678   5.088   0.917   6.635 -0.6678  0.7713  0.5757
 4076SOL    HW113679   5.015   0.856   6.635 -0.1166  0.0267 -1.1404
 4076SOL    HW213680   5.165   0.862   6.651 -0.1288  0.8781 -1.3073
 4077SOL     OW13681   7.599   1.570   4.359  0.0229 -0.0180  0.3508
 4077SOL    HW113682   7.505   1.570   4.377 -0.0573 -1.0578 -0.0267
 4077SOL    HW213683   7.615   1.489   4.312  1.4053 -0.7542  1.9523
 4078SOL     OW13684   7.014   3.924   4.959 -0.1217 -0.3356  0.0812
 4078SOL    HW113685   6.948   3.929   4.890 -0.0863  1.3925  0.1329
 4078SOL    HW213686   6.998   3.839   5.001 -0.5442 -1.1550 -1.6234
 4079SOL     OW13687   5.070   1.400   2.188 -0.2809 -0.4467  0.1372
 4079SOL    HW113688   5.052   1.438   2.102  2.9297 -0.4400 -0.6685
 4079SOL    HW213689   5.055   1.306   2.176 -1.1708 -0.2979  0.0043
 4080SOL     OW13690   2.126   9.129   5.216  0.2080 -0.2615  0.4560
 4080SOL    HW113691   2.201   9.176   5.180  0.0261  0.4636  1.0015
 4080SOL    HW213692   2.091   9.188   5.284 -0.6986 -0.6958  0.3771
 4081SOL     OW13693   0.011   1.217   3.435 -0.6484 -0.3021  0.5749
 4081SOL    HW113694   0.043   1.299   3.473  0.2264 -0.0980 -0.5306
 4081SOL    HW213695  -0.058   1.188   3.494 -1.0527  1.2846  0.9310
 4082SOL     OW13696   2.932   6.013   1.055  0.1398  0.2396 -0.2799
 4082SOL    HW113697   2.865   5.963   1.010  1.0926 -0.7705 -0.6228
 4082SOL    HW213698   2.955   6.084   0.994 -0.0905  0.1547 -0.4633
 4083SOL     OW13699   4.522   0.580   0.900 -0.1157  0.8081 -0.3898
 4083SOL    HW113700   4.522   0.486   0.883  0.3478  0.5729  0.8289
 4083SOL    HW213701   4.580   0.616   0.833  0.4593  0.1027 -0.2844
 4084SOL     OW13702   8.140   0.908   2.917  0.2036 -0.2577 -0.1338
 4084SOL    HW113703   8.090   0.950   2.988 -0.6639 -2.7133  0.8242
 4084SOL    HW213704   8.082   0.913   2.841 -0.2737 -0.5321  0.2070
 4085SOL     OW13705   2.522   4.473   0.598 -0.4406 -0.3991  0.5935
 4085SOL    HW113706   2.530   4.528   0.676  0.0802 -2.4907  2.1128
 4085SOL    HW213707   2.593   4.409   0.606 -0.8128 -1.1095 -1.2292
 4086SOL     OW13708   1.258   8.842   0.041  0.0933 -0.1177  0.3583
 4086SOL    HW113709   1.222   8.785   0.109  2.8308 -1.6333  0.6490
 4086SOL    HW213710   1.214   8.814  -0.039 -1.3883  0.0295  1.0861
 4087SOL     OW13711   7.065   7.071   1.266 -0.3661  0.5451 -0.5676
 4087SOL    HW113712   7.160   7.075   1.257 -0.3097  0.1470 -0.1877
 4087SOL    HW213713   7.047   6.978   1.284 -0.7560  0.7381  0.0572
 4088SOL     OW13714   2.481   3.208   3.872  0.4736  0.0549  0.4591
 4088SOL    HW113715   2.514   3.261   3.799 -3.3672  0.3669 -1.2844
 4088SOL    HW213716   2.512   3.120   3.853  1.5827  0.5536 -0.1719
 4089SOL     OW13717   3.384   5.023   3.601 -0.3256  0.2918  0.3405
 4089SOL    HW113718   3.327   5.096   3.622 -1.2082 -0.0686 -0.7453
 4089SOL    HW213719   3.420   5.044   3.515 -0.4763 -0.4673  0.0809
 4090SOL     OW13720   4.852   8.905   7.434  0.7075 -0.4100 -0.1917
 4090SOL    HW113721   4.942   8.873   7.440  0.9371  0.3591  0.8358
 4090SOL    HW213722   4.861   9.000   7.425 -0.0062 -0.2131  0.9588
 4091SOL     OW13723   8.901   2.358   3.980  0.4815  0.3865  0.7031
 4091SOL    HW113724   8.942   2.401   4.055  0.4604  0.7399  0.5101
 4091SOL    HW213725   8.971   2.305   3.942  0.4022 -0.0609  1.1728
 4092SOL     OW13726   0.366   4.272   0.663  0.1381 -0.3627  0.6082
 4092SOL    HW113727   0.421   4.244   0.590  1.3266  1.1061  0.9064
 4092SOL    HW213728   0.276   4.257   0.632  0.5890  0.5272 -1.2887
 4093SOL     OW13729   4.788   8.305   2.336 -0.6118 -0.2187  0.2615
 4093SOL    HW113730   4.823   8.310   2.425 -0.1544  0.8851  0.0395
 4093SOL    HW213731   4.706   8.257   2.345 -0.4246 -0.3814  1.2291
 4094SOL     OW13732   1.282   0.641   3.917  0.1357  0.2919  0.5901
 4094SOL    HW113733   1.361   0.658   3.968 -0.0488  0.6647  0.7591
 4094SOL    HW213734   1.308   0.576   3.851  0.6153  0.5348  0.5421
 4095SOL     OW13735   0.054   2.124   1.624  0.2936 -0.0409 -0.3555
 4095SOL    HW113736   0.036   2.048   1.679  1.5028  1.8933  3.1006
 4095SOL    HW213737   0.135   2.103   1.578  0.2825 -1.0543  0.0664
 4096SOL     OW13738   4.302   3.400   6.856  0.2626  0.1085  0.0072
 4096SOL    HW113739   4.239   3.331   6.879  0.5733 -0.1636  0.0355
 4096SOL    HW213740   4.387   3.357   6.858  0.6390  0.8568  1.6242
 4097SOL     OW13741   0.584   5.814   6.533 -1.1062 -0.4839  0.0555
 4097SOL    HW113742   0.507   5.864   6.505 -0.7477  0.4191  0.6522
 4097SOL    HW213743   0.572   5.800   6.627 -0.8135 -0.8360  0.0448
 4098SOL     OW13744   5.692   0.482   1.753 -0.0706 -0.4831  0.5124
 4098SOL    HW113745   5.713   0.566   1.793 -1.2280 -0.1348  0.4330
 4098SOL    HW213746   5.697   0.499   1.658  0.9119 -0.8356  0.4959
 4099SOL     OW13747   5.172   6.093   7.466  0.4379 -0.0041 -0.5576
 4099SOL    HW113748   5.213   6.151   7.530 -1.2664  1.1780 -0.4617
 4099SOL    HW213749   5.232   6.018   7.459  1.2679  0.3962  1.5075
 4100SOL     OW13750   8.759   0.959   1.152  0.1038  0.1406  0.1959
 4100SOL    HW113751   8.697   1.032   1.144  0.6693  0.5002 -1.2656
 4100SOL    HW213752   8.708   0.889   1.193 -0.7336  1.0274  0.7242
 4101SOL     OW13753   6.943   8.997   3.642 -0.3360  0.4529  0.2125
 4101SOL    HW113754   6.868   9.039   3.600 -1.4587 -0.0617  1.6436
 4101SOL    HW213755   6.929   8.903   3.628 -0.4966  0.3001  1.3223
 4102SOL     OW13756   2.909   8.799   2.890  0.0493 -0.0062  0.0100
 4102SOL    HW113757   2.853   8.815   2.966  0.7768 -0.1790  0.5942
 4102SOL    HW213758   2.848   8.794   2.816 -0.5856  1.0964  0.4337
 4103SOL     OW13759   9.033   1.541   5.360  0.2585  0.0729 -0.6527
 4103SOL    HW113760   8.958   1.548   5.420  0.2385  1.9928 -0.8658
 4103SOL    HW213761   9.109   1.535   5.418  0.1737  1.1114 -0.4237
 4104SOL     OW13762   9.126   4.244   0.651  0.1701 -0.3041  0.4018
 4104SOL    HW113763   9.042   4.271   0.614  0.8957  1.0516 -0.3180
 4104SOL    HW213764   9.114   4.251   0.746 -0.1182  1.2134  0.2714
 4105SOL     OW13765   1.298   8.520   7.477  0.3836  0.0958  0.0055
 4105SOL    HW113766   1.386   8.519   7.439  0.8050 -1.3116  0.9151
 4105SOL    HW213767   1.311   8.553   7.566  0.1334 -0.8010  0.3924
 4106SOL     OW13768   0.668   8.079   7.692 -0.1689 -0.0621 -0.1113
 4106SOL    HW113769   0.739   8.020   7.716  1.0456  1.5281  0.3630
 4106SOL    HW213770   0.666   8.077   7.596  0.6247 -0.0032 -0.1354
 4107SOL     OW13771   0.875   4.673   7.197  0.4838  0.0904  0.1345
 4107SOL    HW113772   0.804   4.623   7.158  0.6265  1.0997 -1.5108
 4107SOL    HW213773   0.901   4.622   7.273 -1.3467 -0.7875  0.2245
 4108SOL     OW13774   8.694   8.947   5.032  0.6021  0.3213 -0.3868
 4108SOL    HW113775   8.765   8.902   4.987 -1.5662 -3.9760 -0.0298
 4108SOL    HW213776   8.721   8.950   5.123  0.1523 -2.0830 -0.1030
 4109SOL     OW13777   9.118   7.061   7.529 -0.4549 -0.3546 -0.6178
 4109SOL    HW113778   9.140   7.142   7.575  1.6811 -0.5491 -1.1812
 4109SOL    HW213779   9.089   7.002   7.598  0.4654  0.0867  0.1772
 4110SOL     OW13780   9.156   0.896   6.351 -0.3538 -0.2498  1.2815
 4110SOL    HW113781   9.223   0.959   6.377 -1.0946  1.0826  0.1037
 4110SOL    HW213782   9.200   0.839   6.289 -0.8708  2.3294 -1.7167
 4111SOL     OW13783   5.285   2.129   7.250  0.1009  0.3182 -0.4416
 4111SOL    HW113784   5.273   2.212   7.204  0.5936  0.0597 -1.0544
 4111SOL    HW213785   5.197   2.097   7.266 -0.0817  0.6515 -0.7782
 4112SOL     OW13786   2.987   2.817   5.129  0.0269 -0.1113 -0.5636
 4112SOL    HW113787   3.000   2.738   5.077  0.1364  0.9412 -2.2158
 4112SOL    HW213788   3.040   2.803   5.208 -2.5689 -3.0684  0.8287
 4113SOL     OW13789   2.197   6.111   2.115  0.2407 -0.1820 -0.3409
 4113SOL    HW113790   2.187   6.016   2.118 -0.5989 -0.1797 -2.1263
 4113SOL    HW213791   2.123   6.142   2.063  0.5362  1.4534  0.1532
 4114SOL     OW13792   5.363   1.401   0.683 -0.3010  0.3922  0.2870
 4114SOL    HW113793   5.275   1.378   0.650  0.0626 -2.5244  1.0308
 4114SOL    HW213794   5.411   1.318   0.682  2.3985  1.8436  0.1978
 4115SOL     OW13795   3.273   5.259   3.651  0.3888 -0.0260 -0.2493
 4115SOL    HW113796   3.249   5.318   3.722 -0.3265 -1.3450  0.6457
 4115SOL    HW213797   3.253   5.308   3.571  1.9395  1.7740  0.3994
 4116SOL     OW13798   2.004   2.270   2.946 -0.4187 -0.1592  0.8071
 4116SOL    HW113799   1.962   2.227   2.872 -0.6854 -0.4476  1.1261
 4116SOL    HW213800   1.973   2.361   2.942 -0.1060 -0.0690  0.3233
 4117SOL     OW13801   1.555   1.206   2.191 -0.5018  0.0724 -0.5267
 4117SOL    HW113802   1.474   1.257   2.182 -0.7181 -0.3822 -1.2614
 4117SOL    HW213803   1.616   1.265   2.235 -1.1275  0.5336 -0.2523
 4118SOL     OW13804   4.025   7.328   3.139 -0.1445 -0.2948  0.1389
 4118SOL    HW113805   4.053   7.340   3.230 -0.9960 -3.3497  0.9063
 4118SOL    HW213806   4.105   7.309   3.091  0.1180 -0.3793  0.5993
 4119SOL     OW13807   6.871   0.293   7.713  0.1495  0.8050  0.1785
 4119SOL    HW113808   6.957   0.276   7.752  0.0880  2.8850  1.3351
 4119SOL    HW213809   6.889   0.303   7.619  0.5933 -2.2157 -0.1633
 4120SOL     OW13810   7.757   5.975   1.087 -0.0885 -0.6234  0.3819
 4120SOL    HW113811   7.769   5.893   1.039  0.2964 -0.6362  0.5004
 4120SOL    HW213812   7.669   6.004   1.063  0.6537  0.1605 -1.5384
 4121SOL     OW13813   0.425   7.374   8.816 -0.1689  0.4541  0.6485
 4121SOL    HW113814   0.452   7.461   8.846  2.2446 -0.1107  0.3117
 4121SOL    HW213815   0.471   7.362   8.733 -0.5674 -1.0941  0.6188
 4122SOL     OW13816   3.366   8.223   3.927  0.9206  0.0094 -0.2439
 4122SOL    HW113817   3.366   8.139   3.881 -1.1198  0.0832 -0.4435
 4122SOL    HW213818   3.354   8.288   3.857 -0.2502  0.2612  0.1803
 4123SOL     OW13819   5.410   2.732   0.600 -0.5650  0.5299  0.4782
 4123SOL    HW113820   5.487   2.729   0.656 -2.1471 -1.3484  2.7142
 4123SOL    HW213821   5.376   2.821   0.610  1.6428  1.6565 -1.1823
 4124SOL     OW13822   8.312   0.763   1.335  0.3390 -0.0345 -0.8671
 4124SOL    HW113823   8.245   0.699   1.357  0.4435  0.3808  0.7727
 4124SOL    HW213824   8.329   0.810   1.417  0.9326  1.4696 -1.8070
 4125SOL     OW13825   1.226   2.187   4.101 -0.1155 -0.0788 -0.1357
 4125SOL    HW113826   1.180   2.126   4.043 -1.9060  0.6477  0.4669
 4125SOL    HW213827   1.226   2.143   4.186 -1.2727  0.6482  0.2635
 4126SOL     OW13828   5.397   5.268   8.205 -0.2109  0.3214 -0.2123
 4126SOL    HW113829   5.427   5.315   8.283 -0.9415 -0.9700  0.8742
 4126SOL    HW213830   5.454   5.301   8.135  1.6692  0.2250  1.1833
 4127SOL     OW13831   0.237   7.698   8.292  0.1839 -0.6271  0.0454
 4127SOL    HW113832   0.158   7.743   8.262  0.4496 -0.3754 -0.2776
 4127SOL    HW213833   0.210   7.655   8.374 -0.0039  0.3390  0.5095
 4128SOL     OW13834   2.896   1.549   0.601  0.2715  0.1223 -0.7661
 4128SOL    HW113835   2.887   1.645   0.596 -0.8563 -0.0196 -1.7615
 4128SOL    HW213836   2.914   1.522   0.511 -0.0604 -0.6632 -0.6006
 4129SOL     OW13837   0.793   6.813   4.229  0.5692  0.0743  0.0947
 4129SOL    HW113838   0.852   6.788   4.158  0.0471 -0.3534 -0.1917
 4129SOL    HW213839   0.729   6.742   4.234 -0.0145  0.6045  0.3043
 4130SOL     OW13840   8.806   2.736   5.611  0.1845  0.3505  0.2409
 4130SOL    HW113841   8.876   2.672   5.604 -0.8778 -1.0559  1.6020
 4130SOL    HW213842   8.745   2.713   5.541  0.3265  0.6126  0.0256
 4131SOL     OW13843   8.851   1.074   5.026 -0.3396 -0.3496 -0.3025
 4131SOL    HW113844   8.810   1.076   4.939 -0.1397  1.7580 -0.4095
 4131SOL    HW213845   8.793   1.127   5.081  0.8616  0.5006  0.1923
 4132SOL     OW13846   4.624   1.800   6.322 -0.3798  0.4759  0.4045
 4132SOL    HW113847   4.563   1.740   6.364 -0.6741 -0.0870 -0.7716
 4132SOL    HW213848   4.606   1.791   6.228  1.1538  0.6807  0.0566
 4133SOL     OW13849   1.906   1.770   0.383  0.0269 -0.3054 -0.5612
 4133SOL    HW113850   1.955   1.829   0.440 -0.7461 -0.1198 -0.0719
 4133SOL    HW213851   1.879   1.699   0.440  1.2407 -1.3302 -1.2233
 4134SOL     OW13852   0.317   6.303   4.799  0.1655  0.2418  0.0496
 4134SOL    HW113853   0.294   6.210   4.795 -0.8295  0.4722  0.0829
 4134SOL    HW213854   0.318   6.323   4.893  0.0096  0.3517  0.0280
 4135SOL     OW13855   0.666   4.256   6.396 -0.0576  0.4177 -0.0930
 4135SOL    HW113856   0.581   4.294   6.420  0.8790  2.5867 -0.0179
 4135SOL    HW213857   0.692   4.205   6.473 -0.5071  1.1528  0.5532
 4136SOL     OW13858   6.879   4.533   3.621  0.0014  0.1828 -0.2491
 4136SOL    HW113859   6.884   4.536   3.716 -2.8106 -0.5126  0.0306
 4136SOL    HW213860   6.951   4.589   3.590 -1.4287  3.8716  2.3757
 4137SOL     OW13861   6.430   3.830   9.282  0.2045 -0.5176 -0.1175
 4137SOL    HW113862   6.495   3.823   9.212  2.0170  0.9484  1.3163
 4137SOL    HW213863   6.429   3.923   9.306 -0.1102 -1.0063  2.0021
 4138SOL     OW13864   3.376   0.352   7.674 -0.1372  0.5936  0.1887
 4138SOL    HW113865   3.305   0.389   7.621 -0.7858 -2.4302 -1.2287
 4138SOL    HW213866   3.332   0.305   7.744  0.3376 -1.7825 -1.0158
 4139SOL     OW13867   1.297   4.080   3.145  0.0317  0.0735 -0.3155
 4139SOL    HW113868   1.263   4.167   3.123 -0.1712 -0.2280 -1.2259
 4139SOL    HW213869   1.219   4.030   3.169  0.2668  0.4538  1.3715
 4140SOL     OW13870   0.090   1.601   4.973  0.3124 -0.2030  0.2611
 4140SOL    HW113871   0.009   1.586   4.924 -0.2018 -0.0755  1.0568
 4140SOL    HW213872   0.062   1.642   5.055  1.1798 -0.2012  0.5744
 4141SOL     OW13873   7.593   7.265   7.824  0.2680  0.0653 -0.5562
 4141SOL    HW113874   7.648   7.190   7.805 -0.9077 -1.2524  0.9159
 4141SOL    HW213875   7.504   7.233   7.812 -0.2403  1.4356 -0.5837
 4142SOL     OW13876   8.385   5.392   0.285 -0.0020 -0.1513  0.3403
 4142SOL    HW113877   8.463   5.448   0.289 -0.2663  0.2428  0.0739
 4142SOL    HW213878   8.419   5.303   0.296  0.8826 -0.3102 -2.6479
 4143SOL     OW13879   1.847   0.698   5.218 -0.5573  0.0962 -0.6842
 4143SOL    HW113880   1.898   0.645   5.157  0.4205  0.1397  0.0527
 4143SOL    HW213881   1.860   0.788   5.188  2.6613  0.4909  1.3520
 4144SOL     OW13882   9.181   6.804   4.927  0.0809 -0.0087 -0.2243
 4144SOL    HW113883   9.191   6.734   4.991 -0.4223  0.6543  0.6039
 4144SOL    HW213884   9.205   6.884   4.974 -0.2210  0.4854 -0.8834
 4145SOL     OW13885   3.643   0.351   4.335  0.7353  0.3142 -0.1886
 4145SOL    HW113886   3.592   0.432   4.338  1.5510  0.8308  0.0775
 4145SOL    HW213887   3.577   0.282   4.334  0.0325  0.9274  0.9685
 4146SOL     OW13888   0.445   8.844   4.188  0.4937  0.1801  0.1019
 4146SOL    HW113889   0.424   8.776   4.124  0.5389  0.4039 -0.1518
 4146SOL    HW213890   0.376   8.838   4.254  0.4321 -0.0313  0.0166
 4147SOL     OW13891   6.240   1.444   2.868  0.2699 -0.5385 -0.1639
 4147SOL    HW113892   6.255   1.487   2.952  1.1386 -1.1208 -0.0092
 4147SOL    HW213893   6.180   1.502   2.821  0.2164  0.0626  0.6378
 4148SOL     OW13894   1.091   7.068   9.175  0.2252  0.5720 -0.8374
 4148SOL    HW113895   1.109   7.111   9.259 -0.5828  2.9845 -1.7983
 4148SOL    HW213896   1.170   7.082   9.123  0.9153 -1.3478 -0.3705
 4149SOL     OW13897   6.307   3.359   9.174 -0.1354 -0.2515 -0.3349
 4149SOL    HW113898   6.286   3.431   9.114  0.0401  0.4285  0.3909
 4149SOL    HW213899   6.374   3.395   9.231 -0.9205 -0.5660  0.8284
 4150SOL     OW13900   4.376   7.749   3.656 -0.4440 -0.3385 -0.6548
 4150SOL    HW113901   4.407   7.805   3.586 -1.5355 -0.8493 -1.5657
 4150SOL    HW213902   4.338   7.809   3.720 -0.3346  0.0567 -0.9584
 4151SOL     OW13903   8.345   8.813   8.931 -0.3795 -0.4087  0.4937
 4151SOL    HW113904   8.345   8.907   8.949 -3.6668  0.0419 -1.1788
 4151SOL    HW213905   8.387   8.775   9.008  0.6335  2.3547  1.4535
 4152SOL     OW13906   4.584   6.307   3.506 -0.5663 -0.0693 -0.2037
 4152SOL    HW113907   4.628   6.233   3.464 -0.6250 -1.0779  1.4145
 4152SOL    HW213908   4.499   6.312   3.463 -0.0189 -0.0390 -1.2969
 4153SOL     OW13909   2.007   8.167   2.895 -0.2297 -0.0542  0.3300
 4153SOL    HW113910   1.992   8.177   2.990  2.1735 -1.3409  0.9127
 4153SOL    HW213911   1.964   8.244   2.857  0.2219  1.4582  2.6230
 4154SOL     OW13912   5.272   4.567   2.315  0.5027  0.3987  0.8653
 4154SOL    HW113913   5.322   4.576   2.397 -1.3589  0.2047  2.0943
 4154SOL    HW213914   5.205   4.636   2.320 -0.1197 -0.1120 -0.1352
 4155SOL     OW13915   1.758   0.664   5.734  0.1521 -0.2279 -0.2979
 4155SOL    HW113916   1.823   0.638   5.669  0.9788 -0.4942  0.6141
 4155SOL    HW213917   1.749   0.588   5.791  1.6031  0.9257  1.6022
 4156SOL     OW13918   3.974   8.618   0.745  0.4742 -0.0273  0.3957
 4156SOL    HW113919   3.951   8.687   0.684 -1.5725 -0.1152  0.9751
 4156SOL    HW213920   4.043   8.568   0.701 -0.1382  0.5840 -1.3276
 4157SOL     OW13921   2.433   3.847   9.225 -0.2589  0.0324 -0.0849
 4157SOL    HW113922   2.364   3.907   9.254  0.2794  0.1732  0.9256
 4157SOL    HW213923   2.410   3.762   9.263 -0.2841 -0.1026 -0.3923
 4158SOL     OW13924   5.513   9.146   1.433  0.4620 -0.6502  0.0433
 4158SOL    HW113925   5.440   9.101   1.476  0.3413  0.2354  0.8003
 4158SOL    HW213926   5.505   9.123   1.341 -1.1899 -0.0460  0.0063
 4159SOL     OW13927   6.501   8.632   4.255 -0.3932 -0.2228 -0.8477
 4159SOL    HW113928   6.579   8.634   4.200 -0.4610 -1.9488 -1.0642
 4159SOL    HW213929   6.529   8.667   4.339  0.7022 -1.1376 -0.8244
 4160SOL     OW13930   3.983   8.380   0.454  0.2499  0.1702 -0.3721
 4160SOL    HW113931   3.946   8.315   0.395 -0.9135  1.5833 -1.2844
 4160SOL    HW213932   4.068   8.345   0.479 -0.8334 -2.2424  0.1712
 4161SOL     OW13933   0.514   2.611   5.735 -0.1897 -0.2602 -0.4190
 4161SOL    HW113934   0.522   2.668   5.658  0.9251 -0.0610 -0.1682
 4161SOL    HW213935   0.468   2.533   5.702 -1.5473  0.6661 -0.8059
 4162SOL     OW13936   5.034   1.496   5.909 -0.6831 -0.1633 -0.8907
 4162SOL    HW113937   5.024   1.427   5.843 -0.1623 -1.9735  0.8172
 4162SOL    HW213938   5.021   1.578   5.860  1.5808 -1.2485 -3.6291
 4163SOL     OW13939   6.710   7.442   4.345 -0.3695 -0.3120 -0.4442
 4163SOL    HW113940   6.641   7.449   4.410 -0.2382  0.3949 -0.3679
 4163SOL    HW213941   6.776   7.505   4.374 -0.4430  0.2300 -1.4183
 4164SOL     OW13942   8.017   1.031   3.093  0.0015 -0.1108 -0.6088
 4164SOL    HW113943   7.932   1.061   3.063  0.5527  0.2897 -1.8361
 4164SOL    HW213944   8.058   1.109   3.131  0.1250 -0.1066 -0.7477
 4165SOL     OW13945   0.562   4.910   0.807 -0.4969  0.1898 -0.2472
 4165SOL    HW113946   0.534   4.821   0.785  0.0791 -0.8631  2.7817
 4165SOL    HW213947   0.637   4.926   0.749 -0.6455 -1.2704 -0.9016
 4166SOL     OW13948   3.807   5.232   2.832 -0.3155  0.0817  0.1997
 4166SOL    HW113949   3.751   5.157   2.849  1.6037 -1.3052  0.6502
 4166SOL    HW213950   3.888   5.195   2.798 -0.1257  2.1091 -1.8453
 4167SOL     OW13951   7.210   1.944   1.092  0.7251 -1.2293 -0.2750
 4167SOL    HW113952   7.223   1.891   1.013  1.9526 -1.2037 -0.1089
 4167SOL    HW213953   7.283   1.920   1.149  0.3348 -0.6044  0.5022
 4168SOL     OW13954   7.336   7.516   6.140 -0.0879 -0.5935  0.3353
 4168SOL    HW113955   7.288   7.596   6.119  0.8850  0.2032  1.0321
 4168SOL    HW213956   7.280   7.470   6.203  0.3089  0.6285  1.6229
 4169SOL     OW13957   5.449   7.814   7.492  0.5603  0.7312 -0.1923
 4169SOL    HW113958   5.430   7.869   7.568 -0.1617  0.8505 -0.4566
 4169SOL    HW213959   5.438   7.872   7.417 -1.4435 -0.0677 -0.5602
 4170SOL     OW13960   7.694   6.474   4.173 -0.0420  0.8097  0.6573
 4170SOL    HW113961   7.677   6.556   4.126  1.9873  1.7521  1.4553
 4170SOL    HW213962   7.731   6.416   4.108  0.3691  1.2275  0.5122
 4171SOL     OW13963   3.265   8.482   5.026  0.0674  0.7592 -0.4081
 4171SOL    HW113964   3.268   8.408   4.966 -0.6087  0.5164 -0.1575
 4171SOL    HW213965   3.229   8.446   5.107  0.0205  1.2944 -0.1829
 4172SOL     OW13966   8.436   4.377   8.472 -0.2831 -0.3559  0.1932
 4172SOL    HW113967   8.380   4.300   8.483 -0.8739 -0.1407 -1.1181
 4172SOL    HW213968   8.376   4.447   8.446  0.4375  0.1966 -0.0258
 4173SOL     OW13969   8.999   0.062   8.822  0.2157  0.8835  0.8067
 4173SOL    HW113970   9.069   0.058   8.756  0.1502 -0.5486  0.7893
 4173SOL    HW213971   8.924   0.097   8.775  0.1045 -0.3379  0.0210
 4174SOL     OW13972   2.631   4.333   9.194  0.3540  0.2289  0.1397
 4174SOL    HW113973   2.580   4.264   9.153  0.1696  0.6911 -0.4259
 4174SOL    HW213974   2.613   4.324   9.288 -0.7509  0.3670 -0.0449
 4175SOL     OW13975   5.373   5.071   8.675  0.7934 -0.8234  0.2677
 4175SOL    HW113976   5.286   5.092   8.639  0.9925  0.9847  0.7059
 4175SOL    HW213977   5.426   5.049   8.599  0.3606 -0.3344 -0.1888
 4176SOL     OW13978   0.933   8.116   4.005 -0.2459  0.6305  0.2192
 4176SOL    HW113979   0.923   8.191   4.063 -1.4875 -0.1249  1.0433
 4176SOL    HW213980   0.855   8.063   4.021 -0.0929 -0.1327 -1.3862
 4177SOL     OW13981   2.269   3.220   6.168 -0.0281 -0.6735  0.1670
 4177SOL    HW113982   2.305   3.308   6.181 -2.9997  0.3694  2.2218
 4177SOL    HW213983   2.332   3.162   6.211  0.6029  0.7273  1.2192
 4178SOL     OW13984   8.078   5.309   4.781 -0.7135  0.2028 -0.5227
 4178SOL    HW113985   8.102   5.395   4.817 -0.5134  0.6533 -1.6991
 4178SOL    HW213986   7.983   5.305   4.792 -0.4715 -0.6339  2.0724
 4179SOL     OW13987   5.514   1.752   6.761  0.6222 -0.2572  0.0534
 4179SOL    HW113988   5.574   1.764   6.836 -1.4234 -1.7981  2.0862
 4179SOL    HW213989   5.481   1.840   6.743  2.9235  0.5379 -0.7326
 4180SOL     OW13990   8.832   0.905   1.906  0.2472  0.0626  0.3740
 4180SOL    HW113991   8.784   0.833   1.865  0.3938 -0.8360  1.7273
 4180SOL    HW213992   8.775   0.981   1.894 -0.9472 -0.7262  0.8525
 4181SOL     OW13993   5.959   4.998   3.956 -0.1734  0.1624  0.1724
 4181SOL    HW113994   5.991   5.017   3.867  0.9739  1.2993  0.8005
 4181SOL    HW213995   5.879   5.049   3.964  0.9988  2.0163  0.5944
 4182SOL     OW13996   7.237   3.619   7.354 -0.1793  0.4658  0.2919
 4182SOL    HW113997   7.244   3.713   7.368 -0.5864  0.2534  2.2243
 4182SOL    HW213998   7.328   3.588   7.351 -0.0509  0.8732 -0.0270
 4183SOL     OW13999   4.424   1.914   5.481 -0.1860  0.0376 -0.2794
 4183SOL    HW114000   4.468   1.831   5.498 -1.5028 -0.8148 -0.9417
 4183SOL    HW214001   4.493   1.980   5.495  0.9183 -1.1498  0.1065
 4184SOL     OW14002   0.409   2.971   7.007 -0.6511  0.8174 -0.0663
 4184SOL    HW114003   0.423   3.034   6.937 -2.8104  1.8205  0.3409
 4184SOL    HW214004   0.387   2.889   6.963  3.9959 -0.3761 -0.6821
 4185SOL     OW14005   8.111   3.880   8.256  0.2055 -0.0476  0.2613
 4185SOL    HW114006   8.196   3.920   8.236  0.2100  0.0898  0.5504
 4185SOL    HW214007   8.062   3.949   8.302 -0.3699  0.1554 -0.6406
 4186SOL     OW14008   6.516   4.961   1.568 -0.0699 -0.1499 -1.2589
 4186SOL    HW114009   6.503   4.867   1.578  1.2004 -0.1666  0.7849
 4186SOL    HW214010   6.479   4.999   1.648  0.3279  1.0033 -1.6027
 4187SOL     OW14011   1.978   2.069   8.838 -0.1738  0.8257  0.0313
 4187SOL    HW114012   2.024   2.040   8.917 -0.3813  1.8266  0.5362
 4187SOL    HW214013   1.972   1.991   8.783 -1.3099 -0.2281  1.6106
 4188SOL     OW14014   4.053   8.866   7.242  0.1666 -0.0515 -0.2537
 4188SOL    HW114015   3.975   8.915   7.269  1.5757  1.5618  1.1924
 4188SOL    HW214016   4.085   8.914   7.166  0.9125  0.6426  0.4725
 4189SOL     OW14017   7.224   0.694   2.565 -0.4493  0.1591 -0.4863
 4189SOL    HW114018   7.164   0.619   2.561 -1.2494  0.8133 -0.8459
 4189SOL    HW214019   7.174   0.763   2.608  0.3308  0.4566 -0.0382
 4190SOL     OW14020   0.509   1.368   4.177  0.2671  0.1648  0.2310
 4190SOL    HW114021   0.567   1.444   4.174 -2.0834  2.0535 -0.7135
 4190SOL    HW214022   0.470   1.371   4.264  0.8406 -0.5312  0.5206
 4191SOL     OW14023   4.186   7.590   8.837  0.0473  0.1533 -0.2371
 4191SOL    HW114024   4.103   7.579   8.882  0.9805  0.7036  1.7311
 4191SOL    HW214025   4.182   7.678   8.799 -0.3004  0.1352 -0.2401
 4192SOL     OW14026   8.035   3.688   8.962  0.4995  1.1462 -0.0046
 4192SOL    HW114027   8.111   3.630   8.954  0.4174  0.3544  3.3268
 4192SOL    HW214028   8.046   3.753   8.892  3.2017 -0.0580 -0.8111
 4193SOL     OW14029   2.016   8.232   8.063 -0.4455 -0.1992  0.1464
 4193SOL    HW114030   1.965   8.296   8.112 -0.7783 -0.3394 -0.0123
 4193SOL    HW214031   1.960   8.209   7.989 -0.5893 -1.1139  0.5223
 4194SOL     OW14032   6.603   2.442   1.694  0.4024 -0.2103  0.2020
 4194SOL    HW114033   6.638   2.441   1.605 -2.5734 -2.0624 -1.1104
 4194SOL    HW214034   6.650   2.370   1.738  0.3710 -0.7278 -0.5815
 4195SOL     OW14035   3.366   1.733   5.925  0.3519 -0.0761  0.4432
 4195SOL    HW114036   3.283   1.774   5.949  1.6942  2.4198  1.2195
 4195SOL    HW214037   3.376   1.752   5.832 -1.1305 -2.8064 -0.3888
 4196SOL     OW14038   5.380   8.750   9.248  0.1317  0.0924  0.0452
 4196SOL    HW114039   5.304   8.693   9.241 -0.7201  1.2467 -0.4304
 4196SOL    HW214040   5.389   8.766   9.342 -0.7007  0.5742  0.0511
 4197SOL     OW14041   0.598   5.615   8.504 -0.1406 -0.9315  0.2609
 4197SOL    HW114042   0.618   5.522   8.507 -0.3377 -0.9488  1.2876
 4197SOL    HW214043   0.683   5.658   8.513 -0.2747 -1.0186  2.3829
 4198SOL     OW14044   8.144   8.721   4.123 -0.4557  0.2522 -0.1091
 4198SOL    HW114045   8.113   8.743   4.035 -0.6588  0.0185 -0.0981
 4198SOL    HW214046   8.213   8.656   4.110 -1.5883 -1.0131 -0.0327
 4199SOL     OW14047   0.467   7.997   6.488 -0.2685  0.1330 -0.4686
 4199SOL    HW114048   0.508   8.009   6.573 -0.6680 -1.1792 -0.0533
 4199SOL    HW214049   0.531   8.029   6.425  0.0450  1.0943  0.3186
 4200SOL     OW14050   1.466   7.796   4.260  0.1801  0.0800  0.0915
 4200SOL    HW114051   1.407   7.854   4.306  0.1807 -1.1200  1.6948
 4200SOL    HW214052   1.437   7.708   4.284  2.5297 -0.5494  0.8926
 4201SOL     OW14053   4.444   7.039   3.253 -0.5132  0.2033  0.0949
 4201SOL    HW114054   4.407   7.070   3.170 -1.1030 -0.4061  0.1208
 4201SOL    HW214055   4.432   6.944   3.250  1.9674 -0.1733 -0.3436
 4202SOL     OW14056   5.648   6.218   2.713  0.1336  0.3009  0.2980
 4202SOL    HW114057   5.647   6.133   2.669 -0.4059  0.0194  0.8469
 4202SOL    HW214058   5.617   6.200   2.801  1.6310  0.7850  0.9668
 4203SOL     OW14059   4.440   3.041   6.160 -0.4398  0.7950 -0.2870
 4203SOL    HW114060   4.480   3.096   6.093 -0.0354  1.5846  0.5637
 4203SOL    HW214061   4.514   3.002   6.206 -0.7293 -1.4228 -1.5990
 4204SOL     OW14062   7.979   6.461   2.487 -0.4677  0.0601 -0.4736
 4204SOL    HW114063   8.013   6.504   2.409 -1.4315 -1.4081 -1.7520
 4204SOL    HW214064   8.055   6.418   2.526 -0.1305  0.1424 -1.0384
 4205SOL     OW14065   2.660   4.637   2.134 -0.3209  0.0860 -0.4190
 4205SOL    HW114066   2.702   4.583   2.067  3.2595  0.5190  1.2610
 4205SOL    HW214067   2.625   4.573   2.197  1.1577 -0.3676 -0.0097
 4206SOL     OW14068   8.325   6.594   5.124 -0.6218  0.2485  0.3884
 4206SOL    HW114069   8.254   6.531   5.111 -2.5583  2.1645  1.0844
 4206SOL    HW214070   8.361   6.608   5.037 -2.3187  0.5470 -0.2995
 4207SOL     OW14071   7.538   8.507   9.174  0.2052  0.4544 -0.4574
 4207SOL    HW114072   7.580   8.510   9.260 -0.8365  0.9378  0.0580
 4207SOL    HW214073   7.601   8.462   9.118  2.2937  2.8969 -0.2395
 4208SOL     OW14074   8.495   7.517   0.190  0.2978  0.4218  0.0494
 4208SOL    HW114075   8.510   7.590   0.131 -1.5906  1.3697  0.6845
 4208SOL    HW214076   8.516   7.439   0.138  1.2130  1.3419 -0.9927
 4209SOL     OW14077   7.739   7.660   6.865 -0.6152  0.1633  0.3429
 4209SOL    HW114078   7.762   7.722   6.796 -4.2513  2.1745  0.7253
 4209SOL    HW214079   7.746   7.710   6.946 -1.1385 -0.7124  0.9458
 4210SOL     OW14080   8.481   4.501   1.199  0.5791 -0.7083 -0.3327
 4210SOL    HW114081   8.563   4.471   1.237  1.0096  1.0810  0.1928
 4210SOL    HW214082   8.446   4.564   1.261  0.1664  0.5873 -1.8190
 4211SOL     OW14083   8.310   2.154   1.327  0.2108  0.4942 -0.5651
 4211SOL    HW114084   8.306   2.120   1.416  1.5931 -1.5307 -1.2121
 4211SOL    HW214085   8.222   2.138   1.291  0.0795 -0.0224 -0.0215
 4212SOL     OW14086   4.579   8.967   8.758 -0.1176 -0.3458 -0.3434
 4212SOL    HW114087   4.631   9.046   8.768 -0.7556  0.0094  0.2362
 4212SOL    HW214088   4.513   8.972   8.827  1.1198 -2.4208  1.1130
 4213SOL     OW14089   5.210   4.161   3.034  0.0064 -0.0515 -0.3942
 4213SOL    HW114090   5.272   4.193   3.101  2.6100 -2.5662 -1.4034
 4213SOL    HW214091   5.255   4.177   2.951 -0.8487 -1.6415 -1.2018
 4214SOL     OW14092   1.830   1.867   0.671 -0.2664  0.3633  0.2072
 4214SOL    HW114093   1.749   1.860   0.722  0.0425 -2.3751  0.4967
 4214SOL    HW214094   1.897   1.828   0.726  0.3412 -1.4763 -1.6875
 4215SOL     OW14095   8.003   6.343   0.078  0.3419  0.2441  0.4059
 4215SOL    HW114096   8.054   6.361  -0.001  0.4467  2.2243  0.8648
 4215SOL    HW214097   8.021   6.251   0.098  0.7758 -0.1415 -1.5139
 4216SOL     OW14098   4.916   2.567   8.201  0.2329  0.4061 -0.2584
 4216SOL    HW114099   4.993   2.597   8.152  1.7082 -2.7866 -0.1464
 4216SOL    HW214100   4.924   2.608   8.287  1.5251  0.5458 -0.4297
 4217SOL     OW14101   1.483   3.068   4.855 -0.4415  0.1531 -0.1717
 4217SOL    HW114102   1.466   3.014   4.777 -0.9970 -0.7980  0.5776
 4217SOL    HW214103   1.442   3.152   4.835 -1.3253 -0.3527 -0.5880
 4218SOL     OW14104   2.788   4.303   8.132  0.2675 -0.1056 -0.6358
 4218SOL    HW114105   2.811   4.361   8.204  3.4201 -1.5340 -0.3587
 4218SOL    HW214106   2.745   4.228   8.174  0.2108  0.0149 -0.4795
 4219SOL     OW14107   6.073   6.221   2.300 -0.0544 -0.7024 -0.0171
 4219SOL    HW114108   6.119   6.302   2.323  1.8853 -1.7351 -0.1263
 4219SOL    HW214109   5.989   6.229   2.346  1.5174 -0.2455  3.0725
 4220SOL     OW14110   7.450   8.734   8.167 -0.7127 -0.3473 -0.0221
 4220SOL    HW114111   7.514   8.795   8.131  0.6321 -2.1270 -0.8291
 4220SOL    HW214112   7.454   8.747   8.262 -1.8230  2.0380 -0.2297
 4221SOL     OW14113   2.004   5.697   3.786 -0.0507 -0.1485  0.9502
 4221SOL    HW114114   2.003   5.759   3.712 -1.2889 -1.9187 -0.6121
 4221SOL    HW214115   1.950   5.739   3.853  0.5312  1.1996  0.6162
 4222SOL     OW14116   3.288   6.661   4.775  0.7551  0.0976 -0.0930
 4222SOL    HW114117   3.305   6.567   4.774 -0.9967 -0.2884  1.2025
 4222SOL    HW214118   3.204   6.671   4.731 -0.0577  0.7658  1.5015
 4223SOL     OW14119   0.170   1.806   9.026  0.3560 -0.1390 -0.4111
 4223SOL    HW114120   0.125   1.891   9.029  0.5477 -0.0340 -0.5192
 4223SOL    HW214121   0.108   1.748   8.982  0.2712 -0.0257 -0.4415
 4224SOL     OW14122   9.025   7.914   5.841  0.6163 -0.1563  0.3899
 4224SOL    HW114123   9.104   7.968   5.839  0.9248 -0.5715  1.0719
 4224SOL    HW214124   9.053   7.827   5.814  0.4814 -0.4014  1.0089
 4225SOL     OW14125   0.918   4.668   0.989 -0.3990 -0.1371  0.6619
 4225SOL    HW114126   0.970   4.742   0.957 -2.2840  0.3342 -1.5006
 4225SOL    HW214127   0.975   4.592   0.975  0.3208  0.5309 -0.1687
 4226SOL     OW14128   7.893   8.454   4.324  0.4044  0.2631 -0.0055
 4226SOL    HW114129   7.982   8.436   4.355  0.5437  1.8808  0.6757
 4226SOL    HW214130   7.892   8.549   4.309 -0.7716  0.0556 -1.4791
 4227SOL     OW14131   4.657   0.835   2.371 -0.3503  0.1651  0.0846
 4227SOL    HW114132   4.700   0.883   2.442  0.2309  1.3863 -1.0468
 4227SOL    HW214133   4.566   0.866   2.372 -0.5703 -0.4662  0.8152
 4228SOL     OW14134   6.035   0.143   0.091 -0.2429  0.3431  0.0068
 4228SOL    HW114135   6.006   0.229   0.120 -2.0720 -0.2739  0.0785
 4228SOL    HW214136   5.993   0.082   0.151  2.2324 -0.5809  0.9206
 4229SOL     OW14137   6.148   7.748   5.510  0.5216  0.0167  0.5578
 4229SOL    HW114138   6.065   7.700   5.511 -0.1985  1.0294  3.9326
 4229SOL    HW214139   6.136   7.816   5.443 -0.3663 -1.3753 -0.7466
 4230SOL     OW14140   5.821   3.470   8.420 -0.3633 -0.4887 -0.3207
 4230SOL    HW114141   5.811   3.463   8.325 -0.8184  1.0497 -0.4053
 4230SOL    HW214142   5.910   3.501   8.433 -1.2549  2.3884 -0.4565
 4231SOL     OW14143   5.311   3.714   0.905  0.0801 -0.5116 -0.3976
 4231SOL    HW114144   5.222   3.687   0.883 -0.1212  0.9338 -1.5297
 4231SOL    HW214145   5.356   3.720   0.821  0.7673  0.3637  0.0153
 4232SOL     OW14146   0.703   3.374   0.386  0.2231  0.2078 -0.1959
 4232SOL    HW114147   0.792   3.408   0.378  0.5672 -0.5735  0.1500
 4232SOL    HW214148   0.714   3.279   0.381 -0.8099  0.1417 -2.3089
 4233SOL     OW14149   0.432   5.374   1.291  0.2526  1.3896  0.3107
 4233SOL    HW114150   0.488   5.299   1.308  0.4784  1.1524 -1.3009
 4233SOL    HW214151   0.376   5.381   1.368 -0.8632 -1.4032 -0.1566
 4234SOL     OW14152   2.704   1.425   1.729  0.1900 -0.0598  0.2061
 4234SOL    HW114153   2.779   1.452   1.676  0.9594 -1.0450  0.7624
 4234SOL    HW214154   2.688   1.334   1.703  1.5423 -1.0957  2.6488
 4235SOL     OW14155   8.956   1.488   1.249  0.1003  0.1285 -0.2131
 4235SOL    HW114156   9.032   1.535   1.213  0.4690  0.0153  0.4131
 4235SOL    HW214157   8.922   1.546   1.317  0.2531 -0.2836  0.2175
 4236SOL     OW14158   5.158   1.942   4.928 -0.3909 -0.2056 -0.7860
 4236SOL    HW114159   5.158   2.037   4.928  2.0744 -0.1304 -1.9573
 4236SOL    HW214160   5.115   1.918   4.846 -0.8416 -0.1153 -0.5800
 4237SOL     OW14161   6.383   8.360   8.948  0.0782  0.2375 -0.1161
 4237SOL    HW114162   6.340   8.443   8.970 -0.4434  0.0795 -0.5549
 4237SOL    HW214163   6.330   8.293   8.991 -0.2979  0.0185 -0.9044
 4238SOL     OW14164   2.316   8.790   0.913 -0.9599  0.2486 -0.2315
 4238SOL    HW114165   2.315   8.885   0.923  0.8804  0.4350 -1.3580
 4238SOL    HW214166   2.408   8.769   0.898 -1.5156 -1.5508 -1.3727
 4239SOL     OW14167   5.966   8.911   6.649  0.1541  0.2343  0.1532
 4239SOL    HW114168   5.971   8.966   6.727 -0.2952 -0.6400  0.8240
 4239SOL    HW214169   6.051   8.920   6.607  0.1848  1.2002  0.4083
 4240SOL     OW14170   7.962   2.927   5.602 -0.2944  0.2546  0.4486
 4240SOL    HW114171   8.055   2.918   5.619 -0.3552 -0.2198  0.5386
 4240SOL    HW214172   7.956   2.995   5.535  0.1447 -0.0258  0.1195
 4241SOL     OW14173   4.190   5.092   3.596  0.3503 -0.3314  0.0081
 4241SOL    HW114174   4.134   5.082   3.673 -0.6285  1.8272 -0.3496
 4241SOL    HW214175   4.271   5.129   3.630  0.9470 -1.8230  0.2943
 4242SOL     OW14176   6.331   4.063   3.351 -0.4359 -0.8158  0.2619
 4242SOL    HW114177   6.311   4.013   3.272 -0.5958  1.3251 -1.1401
 4242SOL    HW214178   6.273   4.026   3.418 -0.5661 -2.4445 -0.6866
 4243SOL     OW14179   6.111   4.619   7.116 -0.1017 -0.4665  0.4747
 4243SOL    HW114180   6.071   4.554   7.174 -0.3751  0.3104  1.1771
 4243SOL    HW214181   6.077   4.598   7.029  0.3743 -1.6961  0.5630
 4244SOL     OW14182   9.271   5.494   0.336  0.2036  0.2996  0.3608
 4244SOL    HW114183   9.359   5.507   0.371  1.0893 -2.2913 -0.6507
 4244SOL    HW214184   9.239   5.417   0.383 -1.6791  1.3586  0.8984
 4245SOL     OW14185   0.197   7.029   6.476  0.2780  0.4667 -0.0655
 4245SOL    HW114186   0.243   7.107   6.506  1.1884  0.6330 -1.8166
 4245SOL    HW214187   0.105   7.055   6.472  0.1835  0.6099  1.9163
 4246SOL     OW14188   3.785   3.295   2.011 -0.3331 -0.1790 -0.0559
 4246SOL    HW114189   3.867   3.338   2.033 -0.7597  0.3360  0.6024
 4246SOL    HW214190   3.808   3.228   1.947  1.0544 -2.0158  2.2252
 4247SOL     OW14191   5.273   1.555   8.287  0.1712 -0.0786  0.0741
 4247SOL    HW114192   5.367   1.570   8.298  0.0408  0.6652  0.2719
 4247SOL    HW214193   5.267   1.469   8.246  0.9844  0.2614 -0.8261
 4248SOL     OW14194   4.948   8.227   2.593 -0.1481  0.0439  0.2281
 4248SOL    HW114195   4.940   8.299   2.656 -0.3007 -0.8182  1.2241
 4248SOL    HW214196   5.041   8.204   2.593 -0.1274  0.1266  0.0448
 4249SOL     OW14197   2.499   7.252   2.220 -0.2448 -0.0066  0.1146
 4249SOL    HW114198   2.587   7.218   2.203 -0.7414 -0.9532 -0.6026
 4249SOL    HW214199   2.499   7.339   2.181  0.1972 -0.2345 -0.4086
 4250SOL     OW14200   6.215   1.716   5.601  0.4006 -0.1590  0.2142
 4250SOL    HW114201   6.162   1.696   5.524  1.8544 -0.3890 -0.7560
 4250SOL    HW214202   6.243   1.631   5.634 -1.0643 -0.1386  1.6836
 4251SOL     OW14203   7.839   2.155   4.599  0.2902  0.0574 -0.4263
 4251SOL    HW114204   7.914   2.179   4.653 -0.4175 -0.4321  0.8195
 4251SOL    HW214205   7.837   2.059   4.603 -1.6759  0.1125  1.4254
 4252SOL     OW14206   3.431   3.355   0.210  0.0130  0.1218  0.2872
 4252SOL    HW114207   3.411   3.411   0.135  1.3667 -1.2610 -1.1492
 4252SOL    HW214208   3.476   3.413   0.272 -0.0890  1.0075 -0.4545
 4253SOL     OW14209   8.147   2.629   8.621 -0.2123 -0.0906 -0.3393
 4253SOL    HW114210   8.141   2.724   8.606 -2.6100 -0.1115  0.1372
 4253SOL    HW214211   8.121   2.591   8.537 -1.6991 -0.2767  0.1792
 4254SOL     OW14212   1.769   8.398   8.199  0.4269  0.1330 -0.7094
 4254SOL    HW114213   1.843   8.459   8.196  0.4381  0.1774  0.3622
 4254SOL    HW214214   1.746   8.392   8.291 -0.0270 -0.9491 -0.8785
 4255SOL     OW14215   5.175   5.513   5.336  0.0111 -0.0564 -0.0182
 4255SOL    HW114216   5.187   5.529   5.430  1.4682  1.8392 -0.4553
 4255SOL    HW214217   5.100   5.567   5.312  0.7152  0.8284 -0.2507
 4256SOL     OW14218   5.685   8.450   9.226 -0.1940 -0.1674  0.0612
 4256SOL    HW114219   5.648   8.391   9.291 -2.2349  1.5250  0.5123
 4256SOL    HW214220   5.631   8.529   9.230  0.7077  0.6858 -2.4516
 4257SOL     OW14221   4.234   2.933   1.423 -0.0887  0.4798 -0.2635
 4257SOL    HW114222   4.239   2.859   1.362 -0.3511  0.1934  0.0577
 4257SOL    HW214223   4.147   2.969   1.411 -0.1275  0.4463 -0.0884
 4258SOL     OW14224   7.517   6.153   7.862  0.3566  0.4064  0.6552
 4258SOL    HW114225   7.526   6.246   7.882 -0.4252  0.1156  2.5426
 4258SOL    HW214226   7.426   6.133   7.882  0.8519 -1.0447  1.6344
 4259SOL     OW14227   2.763   7.989   8.879  0.0702 -0.4099 -0.0310
 4259SOL    HW114228   2.674   8.022   8.876 -0.2154 -1.2324 -2.0818
 4259SOL    HW214229   2.810   8.039   8.812  0.5910 -1.4669 -0.4822
 4260SOL     OW14230   6.842   1.075   1.514  0.4566 -0.1072 -0.2214
 4260SOL    HW114231   6.809   0.987   1.529  2.0825 -0.9666 -1.3370
 4260SOL    HW214232   6.805   1.127   1.585 -0.8074 -1.6015  0.2669
 4261SOL     OW14233   1.919   7.184   3.925  0.5171 -0.2777 -0.0891
 4261SOL    HW114234   1.976   7.172   4.001 -0.5198  0.6936  0.8638
 4261SOL    HW214235   1.865   7.106   3.922  0.0444  0.0152  0.6363
 4262SOL     OW14236   3.241   0.530   5.021 -0.3229 -0.5336  0.1163
 4262SOL    HW114237   3.273   0.620   5.032  0.9083 -1.0455  1.0003
 4262SOL    HW214238   3.317   0.482   4.988 -1.2034 -1.1061 -1.1569
 4263SOL     OW14239   2.411   3.411   6.830 -0.0800  0.2332  0.3119
 4263SOL    HW114240   2.487   3.462   6.803 -0.8085  0.5089 -1.3183
 4263SOL    HW214241   2.448   3.338   6.879  0.9932  2.2229  2.6673
 4264SOL     OW14242   0.702   8.576   5.094  0.1425 -0.0122  0.4527
 4264SOL    HW114243   0.692   8.640   5.165  1.0444  1.2862 -0.5273
 4264SOL    HW214244   0.634   8.600   5.031  1.3803  0.9301 -0.5696
 4265SOL     OW14245   8.829   0.768   8.714  0.3577 -1.0729 -0.6474
 4265SOL    HW114246   8.897   0.774   8.647 -0.9020 -0.7435 -1.9534
 4265SOL    HW214247   8.812   0.675   8.724 -0.6452 -1.0711 -2.0878
 4266SOL     OW14248   6.357   2.866   6.355  0.2604  0.3454  0.1933
 4266SOL    HW114249   6.283   2.828   6.308  0.6289  1.1053 -1.0467
 4266SOL    HW214250   6.426   2.876   6.289  1.3952 -0.0989  1.2564
 4267SOL     OW14251   7.055   1.536   8.946 -0.1614  0.1211 -0.2101
 4267SOL    HW114252   6.999   1.480   8.892 -1.5785  1.0103  0.2718
 4267SOL    HW214253   7.143   1.502   8.932 -0.8581 -1.6757 -0.6073
 4268SOL     OW14254   3.194   1.140   6.212 -0.0978  0.0590 -0.0756
 4268SOL    HW114255   3.169   1.230   6.193  1.9110  0.8614  0.8149
 4268SOL    HW214256   3.286   1.145   6.235 -0.0842 -2.1560  0.5814
 4269SOL     OW14257   7.652   3.462   8.519  0.0616 -0.1988  0.4004
 4269SOL    HW114258   7.680   3.549   8.490 -1.3921 -0.1024 -0.8606
 4269SOL    HW214259   7.695   3.449   8.604  1.0240  1.3554  0.1795
 4270SOL     OW14260   5.871   8.780   1.832 -0.2114  0.3445  0.1580
 4270SOL    HW114261   5.805   8.841   1.864 -0.5889  0.1661 -0.2650
 4270SOL    HW214262   5.862   8.703   1.888 -2.5216 -0.9529 -1.7787
 4271SOL     OW14263   3.450   4.575   8.705 -0.0201  0.1326  0.5863
 4271SOL    HW114264   3.377   4.609   8.653 -0.0038  1.4652  1.3947
 4271SOL    HW214265   3.409   4.522   8.773 -0.1772  0.1587  0.5118
 4272SOL     OW14266   5.809   8.269   0.141  0.0360 -0.5586 -0.0279
 4272SOL    HW114267   5.816   8.357   0.178 -0.2253  0.0968 -1.4824
 4272SOL    HW214268   5.718   8.245   0.158  0.2621 -0.8050  0.8937
 4273SOL     OW14269   1.092   7.883   5.048  0.6577  0.2400  0.0374
 4273SOL    HW114270   1.156   7.872   4.978  1.3285 -0.1544  0.6998
 4273SOL    HW214271   1.140   7.925   5.118  0.1626  0.0374  0.5054
 4274SOL     OW14272   2.212   2.241   9.181  0.7499  0.1196 -0.1189
 4274SOL    HW114273   2.272   2.269   9.250  2.8052  0.4758 -1.9620
 4274SOL    HW214274   2.169   2.321   9.152  0.1994  0.0289  0.4128
 4275SOL     OW14275   8.277   0.431   3.137  0.1544  0.4993  0.4256
 4275SOL    HW114276   8.243   0.495   3.074  1.1790  0.3084 -0.3563
 4275SOL    HW214277   8.237   0.455   3.220 -1.0339  0.9197 -0.2452
 4276SOL     OW14278   3.236   0.668   2.578  0.2602 -0.0793 -0.3911
 4276SOL    HW114279   3.253   0.575   2.596  1.8190 -0.0740 -1.5566
 4276SOL    HW214280   3.140   0.674   2.571  0.1684 -1.8002 -1.2008
 4277SOL     OW14281   1.915   1.214   8.466 -0.2655 -0.1545 -0.1269
 4277SOL    HW114282   1.949   1.134   8.428  1.1334  0.2349  0.2334
 4277SOL    HW214283   1.959   1.284   8.418 -0.2580  0.3640  0.6133
 4278SOL     OW14284   2.976   6.259   0.428  0.2095  0.8872 -0.2730
 4278SOL    HW114285   3.048   6.291   0.373  2.1845  0.1110  1.7130
 4278SOL    HW214286   3.006   6.276   0.517 -2.9772  2.3106  0.6480
 4279SOL     OW14287   1.845   3.567   4.997 -0.5479  0.1020  0.2773
 4279SOL    HW114288   1.812   3.651   4.964  1.1400  0.4944 -0.5396
 4279SOL    HW214289   1.827   3.505   4.926 -1.5650 -0.1945  0.7771
 4280SOL     OW14290   2.934   6.986   4.071 -0.0796 -0.6170  0.1189
 4280SOL    HW114291   2.954   7.002   4.163  0.1196  0.1913 -0.0503
 4280SOL    HW214292   2.865   6.921   4.072 -0.1336 -0.5557  0.8473
 4281SOL     OW14293   6.868   3.545   6.755 -0.0888  0.4245  0.2738
 4281SOL    HW114294   6.876   3.576   6.846 -1.4266  0.8157  0.2742
 4281SOL    HW214295   6.956   3.515   6.733  0.6817  1.8772  1.1437
 4282SOL     OW14296   6.427   0.325   7.077  0.1655 -0.2754 -0.1024
 4282SOL    HW114297   6.463   0.388   7.138 -0.3272 -0.9460  0.9097
 4282SOL    HW214298   6.486   0.328   7.001  1.5810 -0.3965  0.9564
 4283SOL     OW14299   3.570   0.226   0.928  0.0659  0.3974  0.3832
 4283SOL    HW114300   3.521   0.233   1.010 -1.2767 -0.3443 -0.3292
 4283SOL    HW214301   3.580   0.317   0.899 -0.3876  0.6001  0.8378
 4284SOL     OW14302   8.697   4.770   1.949  0.5691 -0.2319  0.2267
 4284SOL    HW114303   8.665   4.856   1.924 -0.0538 -1.1259 -2.3834
 4284SOL    HW214304   8.624   4.729   1.994  1.3883  1.0758  2.9442
 4285SOL     OW14305   0.171   1.643   6.622  0.0916  0.4878  0.5702
 4285SOL    HW114306   0.090   1.695   6.622 -0.2837 -0.0811  0.2692
 4285SOL    HW214307   0.146   1.562   6.578  1.2281  0.9217 -0.9675
 4286SOL     OW14308   0.691   3.443   1.450  0.0139  0.1157  0.6534
 4286SOL    HW114309   0.614   3.414   1.401  0.0717  0.2522  0.4793
 4286SOL    HW214310   0.658   3.462   1.537 -0.0995 -0.0872  0.6552
 4287SOL     OW14311   3.474   3.752   5.178 -0.1584 -0.2394  0.0768
 4287SOL    HW114312   3.431   3.674   5.143  0.9354 -0.5494 -0.6440
 4287SOL    HW214313   3.498   3.729   5.268 -0.5258 -0.4569  0.1182
 4288SOL     OW14314   5.525   1.235   1.058 -0.5784 -0.5210  1.1116
 4288SOL    HW114315   5.574   1.232   1.140  0.6488 -1.2953  0.3798
 4288SOL    HW214316   5.555   1.158   1.009  1.8124  1.9511 -1.7628
 4289SOL     OW14317   4.679   3.325   8.088 -0.3207 -0.1152  0.3044
 4289SOL    HW114318   4.760   3.353   8.131 -0.6033 -0.8713  1.3518
 4289SOL    HW214319   4.689   3.231   8.075 -0.2383  0.0845 -1.3385
 4290SOL     OW14320   7.898   8.003   8.172 -0.4603 -0.3562  0.1355
 4290SOL    HW114321   7.809   7.970   8.187  0.2114 -1.7480  1.2737
 4290SOL    HW214322   7.951   7.960   8.239  0.7177  2.1584  0.9059
 4291SOL     OW14323   1.801   0.815   7.584  1.4312  0.2595 -0.1094
 4291SOL    HW114324   1.827   0.807   7.676  1.6666  1.6083 -0.0438
 4291SOL    HW214325   1.807   0.909   7.565 -1.2159  0.3816 -0.7305
 4292SOL     OW14326   7.133   6.581   4.988 -0.1856  0.5235 -0.2262
 4292SOL    HW114327   7.166   6.615   4.905 -0.2939 -1.7483 -1.2785
 4292SOL    HW214328   7.190   6.619   5.054  0.9410  1.1229 -1.4884
 4293SOL     OW14329   8.374   7.634   0.752  0.0679  0.6079  0.1482
 4293SOL    HW114330   8.466   7.623   0.729  0.4750  1.1657  1.4132
 4293SOL    HW214331   8.338   7.546   0.752  0.8099  0.2918  0.4173
 4294SOL     OW14332   7.868   5.563   3.555  0.3882 -0.5166 -0.1511
 4294SOL    HW114333   7.886   5.652   3.524  2.1029 -0.6455  0.3602
 4294SOL    HW214334   7.879   5.508   3.478  0.7878 -0.4303 -0.1590
 4295SOL     OW14335   3.104   1.809   3.671  0.2089  0.0822  0.8084
 4295SOL    HW114336   3.113   1.721   3.634  3.0739 -0.3568  2.2636
 4295SOL    HW214337   3.116   1.868   3.596  0.7092 -0.7672  0.1979
 4296SOL     OW14338   3.491   2.452   7.619 -0.2722  0.2256 -0.2588
 4296SOL    HW114339   3.554   2.521   7.637 -2.6709  2.2330  1.0118
 4296SOL    HW214340   3.511   2.423   7.530  1.9372  1.2754 -0.1436
 4297SOL     OW14341   8.058   8.455   7.304 -0.2523  0.0761 -0.0986
 4297SOL    HW114342   8.079   8.413   7.220 -0.9599  0.5978 -0.5487
 4297SOL    HW214343   7.968   8.485   7.294 -1.0725 -1.6945  1.6366
 4298SOL     OW14344   1.320   4.468   8.527 -1.0502  0.0233 -0.5472
 4298SOL    HW114345   1.388   4.419   8.575 -0.3216 -0.1138 -1.6713
 4298SOL    HW214346   1.342   4.560   8.542 -1.2013 -0.0115 -0.1042
 4299SOL     OW14347   6.493   1.508   7.894  0.7577  0.4284  0.4809
 4299SOL    HW114348   6.429   1.534   7.828  0.0065  1.3426  1.5447
 4299SOL    HW214349   6.442   1.490   7.972  1.5846 -1.1409  0.7089
 4300SOL     OW14350   1.624   1.478   3.804  0.1438  0.0689  0.8433
 4300SOL    HW114351   1.560   1.506   3.869 -0.2082  2.4972 -0.4238
 4300SOL    HW214352   1.673   1.408   3.847 -0.7872  0.8096  3.2727
 4301SOL     OW14353   6.644   3.322   7.576 -0.5329  0.2964  0.0771
 4301SOL    HW114354   6.733   3.332   7.611 -1.3795  0.8145  2.1837
 4301SOL    HW214355   6.649   3.362   7.489  0.8991  1.8612  0.8039
 4302SOL     OW14356   0.838   1.459   0.011 -0.3350 -0.7467 -0.2267
 4302SOL    HW114357   0.791   1.386  -0.027  0.5359 -1.9352  0.8755
 4302SOL    HW214358   0.805   1.536  -0.035 -3.2231 -1.5015  0.3959
 4303SOL     OW14359   0.906   4.824   4.568  0.4856 -0.0780 -0.1613
 4303SOL    HW114360   0.930   4.903   4.519 -0.0420 -0.0919 -0.4382
 4303SOL    HW214361   0.908   4.754   4.503 -0.7022 -0.0159 -0.2749
 4304SOL     OW14362   6.767   5.137   4.706 -0.1983 -0.5212 -0.4058
 4304SOL    HW114363   6.781   5.198   4.634 -0.2377  2.4371  1.8752
 4304SOL    HW214364   6.672   5.134   4.717 -0.1631 -0.2181  0.0382
 4305SOL     OW14365   7.273   6.771   4.774 -0.0149 -0.2260  0.0860
 4305SOL    HW114366   7.293   6.693   4.722 -1.2907  0.0290 -0.8158
 4305SOL    HW214367   7.244   6.836   4.710 -1.4561  0.1598  1.0939
 4306SOL     OW14368   5.444   5.650   7.398  0.3761  0.1831  0.5271
 4306SOL    HW114369   5.455   5.571   7.450  0.5838 -0.0132  0.1851
 4306SOL    HW214370   5.528   5.695   7.405 -0.0805  0.9158  1.6034
 4307SOL     OW14371   0.489   1.109   6.344 -0.7183 -0.6354 -0.3965
 4307SOL    HW114372   0.509   1.189   6.295 -1.9820  0.3363  0.5948
 4307SOL    HW214373   0.575   1.073   6.367 -0.1244  0.2710 -1.1234
 4308SOL     OW14374   4.782   7.748   5.461  0.3026  0.4374  0.2924
 4308SOL    HW114375   4.718   7.716   5.525  0.3204  1.6000  0.9249
 4308SOL    HW214376   4.778   7.685   5.390 -1.9144  0.7254  0.0752
 4309SOL     OW14377   4.996   2.662   4.266  0.9718 -0.1527 -0.5395
 4309SOL    HW114378   5.013   2.576   4.303 -0.0810 -0.5057 -0.8359
 4309SOL    HW214379   5.059   2.720   4.309  1.2775 -0.9534  0.1138
 4310SOL     OW14380   8.839   5.987   8.186 -0.1557  0.0737 -0.4271
 4310SOL    HW114381   8.910   5.994   8.121 -0.5494  1.0604 -0.7712
 4310SOL    HW214382   8.780   5.921   8.149  0.8792 -1.2335  0.1724
 4311SOL     OW14383   1.342   6.044   5.876  0.0711 -0.2573  0.1844
 4311SOL    HW114384   1.351   6.139   5.882  2.7336 -0.4100  0.0871
 4311SOL    HW214385   1.253   6.026   5.905 -0.7650  2.3143 -0.5240
 4312SOL     OW14386   1.038   3.646   2.366  0.7150 -0.0183  0.4740
 4312SOL    HW114387   0.994   3.617   2.446  0.3938  1.7258  0.9647
 4312SOL    HW214388   0.967   3.652   2.301  0.6304  0.4907  0.6112
 4313SOL     OW14389   1.218   6.251   5.646  0.0079 -0.0495  0.0863
 4313SOL    HW114390   1.143   6.264   5.704 -0.0375  0.5246 -0.0923
 4313SOL    HW214391   1.181   6.218   5.565 -0.1412  0.8886 -0.2416
 4314SOL     OW14392   4.871   8.668   1.931  0.2321 -0.0009  0.3534
 4314SOL    HW114393   4.785   8.711   1.931 -0.1764 -0.7816  0.0693
 4314SOL    HW214394   4.887   8.648   2.023  1.1162  2.0387  0.6834
 4315SOL     OW14395   7.623   2.201   6.885  0.2048  0.1429 -0.2381
 4315SOL    HW114396   7.647   2.115   6.851  3.0321  1.5168 -2.0543
 4315SOL    HW214397   7.688   2.220   6.952  0.0737  1.1702 -0.3846
 4316SOL     OW14398   5.270   5.441   2.879  0.5929 -0.4504 -0.6786
 4316SOL    HW114399   5.341   5.381   2.899  0.8463  0.4779  1.5749
 4316SOL    HW214400   5.191   5.387   2.882  0.9529 -0.9516 -0.1873
 4317SOL     OW14401   1.846   2.794   7.544 -0.4013 -0.5125  0.2784
 4317SOL    HW114402   1.844   2.702   7.572 -5.1794 -0.5993  0.4646
 4317SOL    HW214403   1.786   2.838   7.604  0.4405  2.4242 -0.8868
 4318SOL     OW14404   0.448   5.513   2.232  0.0955  0.4403 -0.2271
 4318SOL    HW114405   0.395   5.482   2.159  0.6508  0.5491 -0.6857
 4318SOL    HW214406   0.536   5.478   2.214  0.1214  0.0232  0.6588
 4319SOL     OW14407   8.487   5.175   7.973 -0.3269  0.4118  0.0341
 4319SOL    HW114408   8.472   5.267   7.952  2.9670  0.5053 -2.7544
 4319SOL    HW214409   8.553   5.177   8.042  0.6690  0.1975 -0.8902
 4320SOL     OW14410   4.233   6.107   8.679  0.4146 -0.0054 -0.0391
 4320SOL    HW114411   4.196   6.026   8.714  0.8762  0.0166  0.5246
 4320SOL    HW214412   4.162   6.171   8.686  0.6705  0.1582  1.4584
 4321SOL     OW14413   2.214   2.003   2.762  0.1172 -0.6653  0.2699
 4321SOL    HW114414   2.184   1.912   2.756  0.3284 -0.8995  2.1516
 4321SOL    HW214415   2.282   2.002   2.830 -1.0809  1.1749  1.5937
 4322SOL     OW14416   9.111   1.100   6.620 -0.8485  0.2301  0.2532
 4322SOL    HW114417   9.199   1.064   6.620 -1.2210 -0.7134  1.1509
 4322SOL    HW214418   9.114   1.170   6.554  0.6909  0.5560  0.6298
 4323SOL     OW14419   1.473   2.892   1.675  0.2415 -0.6323  0.2851
 4323SOL    HW114420   1.443   2.823   1.734 -1.9638  0.5052  0.6040
 4323SOL    HW214421   1.457   2.974   1.723  3.3569  0.1696  0.1827
 4324SOL     OW14422   6.915   6.788   8.395  0.2942 -0.2262  0.3236
 4324SOL    HW114423   6.896   6.695   8.381  0.6141 -0.3080  0.4137
 4324SOL    HW214424   6.955   6.816   8.313 -1.5508  0.3239 -0.4382
 4325SOL     OW14425   3.787   3.880   7.084  0.0764  0.0553 -0.1577
 4325SOL    HW114426   3.750   3.867   7.171  1.2468  0.9523  0.5098
 4325SOL    HW214427   3.721   3.932   7.038  0.7278  2.3174  1.2709
 4326SOL     OW14428   1.644   0.779   2.429  0.0193 -0.2134  0.1097
 4326SOL    HW114429   1.567   0.732   2.460  0.0817  0.6292  1.6475
 4326SOL    HW214430   1.619   0.872   2.436  0.8846  0.0461 -0.1511
 4327SOL     OW14431   7.671   3.050   7.262  0.1942 -0.3617 -0.3161
 4327SOL    HW114432   7.670   3.056   7.357  1.5629  1.8407 -0.3582
 4327SOL    HW214433   7.579   3.058   7.236 -0.0557  0.5002  0.7744
 4328SOL     OW14434   8.027   3.597   1.337  0.3815  0.2315 -0.3921
 4328SOL    HW114435   8.093   3.545   1.383  1.1378  1.8095  0.4072
 4328SOL    HW214436   7.943   3.557   1.361  0.9232 -0.5446  0.2618
 4329SOL     OW14437   0.173   0.158   0.803 -0.3328  0.3045  1.0608
 4329SOL    HW114438   0.179   0.165   0.708 -1.0992 -1.4561  0.8460
 4329SOL    HW214439   0.260   0.181   0.835 -0.1548  1.2076 -0.0254
 4330SOL     OW14440   5.762   8.659   2.512 -0.6709 -0.3525 -0.1592
 4330SOL    HW114441   5.697   8.603   2.471 -1.7036 -0.1922  1.1925
 4330SOL    HW214442   5.746   8.650   2.606  1.5201 -0.6060  0.2445
 4331SOL     OW14443   6.754   2.193   3.759 -0.2247  0.2534  0.2716
 4331SOL    HW114444   6.708   2.115   3.790 -1.3876  0.8854  0.2075
 4331SOL    HW214445   6.767   2.246   3.838  0.1127  0.2210  0.2381
 4332SOL     OW14446   4.692   6.314   1.707  0.0972 -0.6486 -0.3537
 4332SOL    HW114447   4.721   6.235   1.753  1.4460 -1.0522 -1.8185
 4332SOL    HW214448   4.634   6.282   1.637  0.2792 -0.3031 -0.6672
 4333SOL     OW14449   2.929   9.189   3.692 -0.2276 -0.0282  0.2543
 4333SOL    HW114450   2.950   9.140   3.771  0.8743  0.5299  0.3326
 4333SOL    HW214451   2.865   9.135   3.646  2.2065 -2.5087 -0.5625
 4334SOL     OW14452   8.169   2.479   8.856  0.1930  0.2222  0.6161
 4334SOL    HW114453   8.239   2.528   8.899  0.2485  0.5795  0.1163
 4334SOL    HW214454   8.147   2.530   8.778 -0.2998 -0.1307  0.5172
 4335SOL     OW14455   7.812   7.685   2.336  0.1602  0.2737 -0.1129
 4335SOL    HW114456   7.717   7.678   2.342  0.2758 -0.0994  1.5903
 4335SOL    HW214457   7.839   7.602   2.295 -0.1750 -0.0597  0.3333
 4336SOL     OW14458   4.991   2.247   5.225  0.2461  0.2013  0.2289
 4336SOL    HW114459   4.992   2.171   5.168 -0.3267 -0.6779  1.3385
 4336SOL    HW214460   5.074   2.291   5.209 -0.0159  0.1254 -1.4324
 4337SOL     OW14461   6.831   1.489   3.166  0.0592 -0.2278  0.1077
 4337SOL    HW114462   6.916   1.485   3.211  0.3069  0.9930 -0.2233
 4337SOL    HW214463   6.844   1.553   3.096 -0.6155 -1.3899 -1.1026
 4338SOL     OW14464   6.534   6.627   0.623 -0.2021 -0.1413 -0.0022
 4338SOL    HW114465   6.442   6.635   0.648 -0.1920  1.1451 -0.3354
 4338SOL    HW214466   6.575   6.585   0.698 -0.7298  0.9621  0.9358
 4339SOL     OW14467   7.865   2.809   3.726  0.0543  0.3519 -0.1575
 4339SOL    HW114468   7.837   2.767   3.808  0.3036 -1.1510 -0.8239
 4339SOL    HW214469   7.922   2.745   3.684 -0.1996  1.0359 -1.6018
 4340SOL     OW14470   8.989   4.102   7.736 -0.2798 -0.0738  0.0975
 4340SOL    HW114471   8.980   4.095   7.831  1.6574 -0.3937  0.3043
 4340SOL    HW214472   8.964   4.192   7.715  0.9363  0.5394  1.1667
 4341SOL     OW14473   6.937   5.489   1.893  0.1284  0.0717 -0.4547
 4341SOL    HW114474   7.011   5.497   1.832 -0.2838  2.4747 -0.7126
 4341SOL    HW214475   6.951   5.405   1.936  1.7053 -0.6301 -2.1941
 4342SOL     OW14476   4.579   1.420   2.966  0.0272 -0.2288 -0.5872
 4342SOL    HW114477   4.532   1.489   3.012 -0.1052 -0.2132 -0.7447
 4342SOL    HW214478   4.638   1.467   2.907  0.6091 -0.2439 -0.0219
 4343SOL     OW14479   2.367   6.141   3.813 -0.4153 -0.0840 -0.3097
 4343SOL    HW114480   2.402   6.117   3.728 -1.8672 -1.8119 -0.4965
 4343SOL    HW214481   2.374   6.061   3.865 -2.9048 -0.2092 -0.0217
 4344SOL     OW14482   6.636   0.909   8.853 -0.2953 -0.4065 -0.4922
 4344SOL    HW114483   6.659   0.968   8.924 -2.0729 -0.0987 -0.1107
 4344SOL    HW214484   6.644   0.961   8.774 -2.2169  0.5171 -0.1272
 4345SOL     OW14485   3.119   5.109   6.684  0.4189 -0.3944 -0.0026
 4345SOL    HW114486   3.177   5.149   6.749  1.1056  2.2208 -2.0641
 4345SOL    HW214487   3.031   5.133   6.713  0.7949  3.2864 -1.3366
 4346SOL     OW14488   9.254   2.691   8.461 -0.1489  0.0516 -0.0056
 4346SOL    HW114489   9.293   2.645   8.386  1.9558  1.0399  0.3951
 4346SOL    HW214490   9.283   2.782   8.451 -1.2453  0.5456  1.1076
 4347SOL     OW14491   3.734   2.647   5.729  0.0124  0.3628 -0.0085
 4347SOL    HW114492   3.676   2.655   5.653  1.0695 -0.6046 -0.9560
 4347SOL    HW214493   3.787   2.569   5.711 -0.4648 -0.5811  2.2505
 4348SOL     OW14494   5.670   6.298   0.674 -0.0079  0.5026 -0.5982
 4348SOL    HW114495   5.637   6.218   0.633 -2.0529  1.4104 -0.8565
 4348SOL    HW214496   5.699   6.270   0.761  2.0188 -0.9949 -1.6955
 4349SOL     OW14497   5.044   0.193   3.682  0.3395 -0.1056 -1.1080
 4349SOL    HW114498   5.066   0.285   3.664  1.3386  0.0131  0.4890
 4349SOL    HW214499   5.123   0.144   3.658 -0.4708 -0.6851 -2.7253
 4350SOL     OW14500   8.591   4.337   0.485 -0.4698 -0.2771 -0.1771
 4350SOL    HW114501   8.538   4.331   0.565 -1.0086  1.4445 -0.3830
 4350SOL    HW214502   8.545   4.282   0.422 -0.8650 -0.4464  0.2458
 4351SOL     OW14503   9.100   3.936   1.044 -0.3125 -0.5288 -0.4714
 4351SOL    HW114504   9.156   3.976   1.109 -0.9260  0.8519 -0.7559
 4351SOL    HW214505   9.077   4.007   0.984 -2.6554 -0.9173 -0.1625
 4352SOL     OW14506   6.506   1.524   3.010  0.0002  0.7341 -0.7009
 4352SOL    HW114507   6.500   1.597   3.072  0.1344 -0.0691  0.2813
 4352SOL    HW214508   6.593   1.535   2.970  0.2685  0.7832 -0.1235
 4353SOL     OW14509   6.672   3.640   7.803  0.0532  0.1182  0.0824
 4353SOL    HW114510   6.760   3.626   7.767  0.3292 -1.5164  1.2614
 4353SOL    HW214511   6.626   3.689   7.735  1.1237 -1.1464 -1.6380
 4354SOL     OW14512   2.714   7.188   7.459 -0.5362  0.0841  0.2864
 4354SOL    HW114513   2.672   7.102   7.466  0.7473 -0.4538  2.0290
 4354SOL    HW214514   2.734   7.196   7.366 -3.7521  0.0862 -0.5432
 4355SOL     OW14515   2.237   3.381   4.953  0.6394 -0.1943  0.3374
 4355SOL    HW114516   2.176   3.396   5.025  1.3813 -0.5894  1.0621
 4355SOL    HW214517   2.192   3.318   4.896  0.1062  0.0153  0.5222
 4356SOL     OW14518   7.608   8.186   7.722  0.0595  0.1063  0.0788
 4356SOL    HW114519   7.695   8.216   7.697 -0.1252  0.1628 -0.5405
 4356SOL    HW214520   7.611   8.091   7.713  0.6104 -0.0857  1.9277
 4357SOL     OW14521   7.543   6.274   5.753  0.5309  0.3017 -0.1344
 4357SOL    HW114522   7.550   6.185   5.789 -1.4765  0.3841  0.6097
 4357SOL    HW214523   7.584   6.330   5.819 -0.6723  0.1629  0.7783
 4358SOL     OW14524   7.917   1.531   4.739 -0.1456 -0.0461 -0.3436
 4358SOL    HW114525   7.866   1.514   4.659 -1.4158  1.1479  0.1783
 4358SOL    HW214526   7.984   1.595   4.712 -1.2861  1.2316 -0.2387
 4359SOL     OW14527   5.767   8.820   1.588 -0.2482  0.5850  0.0462
 4359SOL    HW114528   5.679   8.854   1.604  0.3560  1.5585  1.4160
 4359SOL    HW214529   5.804   8.806   1.675  0.7458 -0.3968 -0.5129
 4360SOL     OW14530   7.297   8.543   4.303  0.2185  0.0780 -0.0287
 4360SOL    HW114531   7.227   8.513   4.361  1.0565  0.5862  1.2980
 4360SOL    HW214532   7.282   8.497   4.221  0.6081 -2.9326  1.4445
 4361SOL     OW14533   8.154   6.927   3.174 -0.2248  0.3426  0.6094
 4361SOL    HW114534   8.076   6.909   3.227 -2.0993  0.1250 -2.0529
 4361SOL    HW214535   8.198   6.998   3.221 -1.3203 -0.3575  2.8503
 4362SOL     OW14536   2.279   7.016   8.167  0.7637 -0.0923  0.7395
 4362SOL    HW114537   2.249   7.084   8.106  1.2503  1.2363  1.9248
 4362SOL    HW214538   2.224   7.028   8.245 -0.9167 -2.7519  0.1014
 4363SOL     OW14539   2.009   5.516   4.604  0.0749 -0.4575  0.0136
 4363SOL    HW114540   1.965   5.486   4.683  1.7008  0.7669  1.4707
 4363SOL    HW214541   2.094   5.548   4.635 -0.6924  3.7678 -1.5605
 4364SOL     OW14542   7.690   5.221   5.351  0.0775 -0.1205 -0.4434
 4364SOL    HW114543   7.735   5.215   5.435  1.0404  0.3880 -0.9030
 4364SOL    HW214544   7.738   5.288   5.302 -0.2777 -0.6104 -1.5046
 4365SOL     OW14545   2.609   6.458   5.037 -1.0016 -0.3907  0.1337
 4365SOL    HW114546   2.672   6.491   4.974 -1.2549 -0.4157 -0.1312
 4365SOL    HW214547   2.572   6.380   4.996  0.1480 -1.4798  1.0593
 4366SOL     OW14548   2.370   7.038   5.841 -0.6749 -0.2428  0.2753
 4366SOL    HW114549   2.433   6.990   5.786  0.3771 -0.2056  1.4039
 4366SOL    HW214550   2.289   6.987   5.835 -0.9639  0.3528 -2.1783
 4367SOL     OW14551   0.533   5.797   8.698  0.0358  0.0160 -0.1229
 4367SOL    HW114552   0.465   5.773   8.761  1.1146  1.1159  1.5141
 4367SOL    HW214553   0.552   5.716   8.651 -1.9901 -0.4355 -0.2464
 4368SOL     OW14554   2.109   4.913   4.830  0.2919 -0.2178  0.5624
 4368SOL    HW114555   2.053   4.929   4.754  0.1928 -2.2981  0.1634
 4368SOL    HW214556   2.147   4.999   4.850  0.8858  0.2740 -2.2817
 4369SOL     OW14557   6.060   7.019   0.775  0.1076  0.0482  0.4920
 4369SOL    HW114558   5.990   7.033   0.838  0.4388  0.7715  0.7078
 4369SOL    HW214559   6.138   7.053   0.817  0.9806 -2.3492  0.9879
 4370SOL     OW14560   9.190   4.263   8.134  0.1849  0.0104  0.4240
 4370SOL    HW114561   9.102   4.268   8.172 -0.0638  1.5662 -0.3170
 4370SOL    HW214562   9.225   4.352   8.140  1.7220 -0.5630  0.6768
 4371SOL     OW14563   1.230   6.539   4.876 -0.6804  0.1415 -0.2516
 4371SOL    HW114564   1.295   6.477   4.840 -1.5361 -0.3239 -1.0263
 4371SOL    HW214565   1.156   6.534   4.816 -0.5959  2.3017 -0.5984
 4372SOL     OW14566   8.631   2.654   5.421  0.5009  0.3146  0.3510
 4372SOL    HW114567   8.587   2.713   5.360 -1.3839  0.8392  2.1069
 4372SOL    HW214568   8.574   2.577   5.424  1.5222 -0.4633  0.1242
 4373SOL     OW14569   4.429   3.519   5.098  0.3701 -0.7537  0.3381
 4373SOL    HW114570   4.372   3.577   5.147  1.1603 -0.5330  1.0211
 4373SOL    HW214571   4.395   3.431   5.117  0.4201 -0.6446  0.9753
 4374SOL     OW14572   2.611   5.069   4.400 -0.1042 -0.0682  0.0214
 4374SOL    HW114573   2.647   5.149   4.438 -2.3025  0.8891  0.3051
 4374SOL    HW214574   2.673   5.001   4.422  0.8466  1.2304  1.5537
 4375SOL     OW14575   7.566   1.655   6.344 -0.0829 -0.0181 -0.7996
 4375SOL    HW114576   7.567   1.566   6.307  0.1934 -0.1425 -0.5027
 4375SOL    HW214577   7.537   1.642   6.434  0.1715  0.1656 -0.6893
 4376SOL     OW14578   6.729   1.095   9.033  0.2668  0.2115  0.3306
 4376SOL    HW114579   6.713   1.183   9.000  0.7148  0.7673  1.5377
 4376SOL    HW214580   6.677   1.089   9.113  1.6527  0.0505  1.2560
 4377SOL     OW14581   6.762   8.801   2.485 -0.0747  0.0072  0.1570
 4377SOL    HW114582   6.698   8.771   2.548 -1.4790  0.1219 -1.1544
 4377SOL    HW214583   6.762   8.734   2.416 -0.0296  0.8195 -0.6605
 4378SOL     OW14584   4.055   0.245   4.750  0.3112 -0.1393  0.2144
 4378SOL    HW114585   4.054   0.152   4.772  0.0262  0.1151  1.3556
 4378SOL    HW214586   4.131   0.256   4.694 -0.0351 -1.1717 -0.4892
 4379SOL     OW14587   6.073   4.753   8.363  0.2268  0.0557  0.4448
 4379SOL    HW114588   6.018   4.694   8.415  0.8512  0.5030  1.6619
 4379SOL    HW214589   6.098   4.822   8.425  0.8831  0.6892 -0.5044
 4380SOL     OW14590   6.160   1.056   0.181  0.3963 -0.0714  0.3225
 4380SOL    HW114591   6.227   0.988   0.181  2.0001  1.4036  1.7357
 4380SOL    HW214592   6.175   1.105   0.100  0.6001 -0.1580  0.3064
 4381SOL     OW14593   5.025   4.375   9.186  0.7535 -0.4783 -0.1465
 4381SOL    HW114594   5.074   4.436   9.131  0.1512  1.4247  1.2918
 4381SOL    HW214595   5.091   4.316   9.222  1.4438 -0.3113 -1.1062
 4382SOL     OW14596   6.338   0.029   5.163  0.4535 -0.1457 -0.3583
 4382SOL    HW114597   6.348   0.099   5.098  1.5492 -0.5474 -0.6400
 4382SOL    HW214598   6.347  -0.052   5.113  0.6699 -0.4650  0.1891
 4383SOL     OW14599   3.787   4.699   7.352  0.1308 -0.7432  0.2016
 4383SOL    HW114600   3.720   4.675   7.416 -0.5333 -2.1382 -0.9436
 4383SOL    HW214601   3.771   4.791   7.333 -0.4165 -0.6310  1.1609
 4384SOL     OW14602   0.958   1.834   7.607  0.5434  0.3891 -0.5832
 4384SOL    HW114603   0.920   1.748   7.588  0.6931  0.3363 -0.6450
 4384SOL    HW214604   1.005   1.858   7.527  1.2019  0.1544 -0.2677
 4385SOL     OW14605   3.109   3.226   0.545  0.1760 -0.2456 -0.2259
 4385SOL    HW114606   3.177   3.190   0.489  0.1759  0.9420 -1.0345
 4385SOL    HW214607   3.146   3.309   0.577  0.3168 -1.0479  1.8360
 4386SOL     OW14608   4.576   7.903   5.697 -0.1084 -0.1996  0.1683
 4386SOL    HW114609   4.653   7.942   5.656  1.8212 -1.2972  2.5175
 4386SOL    HW214610   4.524   7.978   5.726  1.1167  0.6025  0.3626
 4387SOL     OW14611   7.608   4.486   6.921 -0.1160 -0.5332  0.2646
 4387SOL    HW114612   7.520   4.480   6.958  0.5916 -0.7422  1.9677
 4387SOL    HW214613   7.653   4.550   6.976  0.7798 -0.3525 -0.6593
 4388SOL     OW14614   4.033   0.999   2.766  0.7131 -0.4233  0.1085
 4388SOL    HW114615   3.939   1.000   2.781  0.7328  1.2161  0.3108
 4388SOL    HW214616   4.072   1.000   2.854  0.8992 -0.1166  0.0267
 4389SOL     OW14617   7.748   1.472   2.792 -0.4842 -0.2848  0.2195
 4389SOL    HW114618   7.684   1.418   2.744 -0.8723  0.8092 -0.5478
 4389SOL    HW214619   7.820   1.483   2.730  0.2854 -1.1759  0.9378
 4390SOL     OW14620   3.156   3.062   2.760 -0.7578  0.2461 -0.1478
 4390SOL    HW114621   3.223   3.094   2.699  0.5511 -1.9532  0.0353
 4390SOL    HW214622   3.093   3.016   2.705 -0.6675 -0.0028 -0.0433
 4391SOL     OW14623   7.630   1.942   4.792 -0.5585 -0.5031  0.3698
 4391SOL    HW114624   7.575   1.997   4.736 -0.5147  0.4373  1.2315
 4391SOL    HW214625   7.653   1.868   4.736  0.7787  1.1521 -1.4208
 4392SOL     OW14626   2.016   3.717   7.792 -0.0504  0.6334  0.0873
 4392SOL    HW114627   2.074   3.793   7.790  1.0205 -0.1472  0.7723
 4392SOL    HW214628   1.937   3.747   7.747  1.4794  1.2326 -2.4033
 4393SOL     OW14629   0.966   1.193   8.854  0.3754  0.3908  0.0857
 4393SOL    HW114630   0.950   1.236   8.938  2.5458 -1.9274  1.8423
 4393SOL    HW214631   1.041   1.239   8.818  1.4916 -0.6048  1.0475
 4394SOL     OW14632   3.928   2.192   0.123  0.3939  0.0023 -0.0828
 4394SOL    HW114633   3.877   2.254   0.174  0.3520  1.0120 -1.2796
 4394SOL    HW214634   3.952   2.123   0.184 -0.6259  0.5723  0.9897
 4395SOL     OW14635   1.587   6.072   4.588  0.0779 -0.6060  0.7382
 4395SOL    HW114636   1.580   5.996   4.531 -1.0610 -1.4421  1.9421
 4395SOL    HW214637   1.501   6.078   4.631 -0.1305  1.7987  0.1474
 4396SOL     OW14638   8.900   5.652   0.538  0.0157 -0.1206 -0.0136
 4396SOL    HW114639   8.947   5.706   0.474  0.1501 -2.7023 -2.2584
 4396SOL    HW214640   8.816   5.633   0.496 -0.4524 -0.7803  1.1818
 4397SOL     OW14641   6.986   4.695   5.715  0.4286 -0.0858  0.4109
 4397SOL    HW114642   7.045   4.770   5.705 -0.9386  0.8098 -1.2861
 4397SOL    HW214643   6.915   4.727   5.770 -0.6622  0.2066 -1.1270
 4398SOL     OW14644   5.748   3.900   8.179 -0.4932  0.3176 -0.1994
 4398SOL    HW114645   5.798   3.891   8.260 -0.6624  1.3093  0.0211
 4398SOL    HW214646   5.672   3.843   8.192 -0.0019 -0.3275 -0.0906
 4399SOL     OW14647   2.080   0.535   4.419  0.2568 -0.1497  0.8672
 4399SOL    HW114648   2.024   0.580   4.481  0.5402  0.8582  0.4103
 4399SOL    HW214649   2.081   0.444   4.449 -1.1394 -0.0736  1.2145
 4400SOL     OW14650   6.204   5.007   7.459 -0.1906 -0.2642 -0.4960
 4400SOL    HW114651   6.294   4.978   7.470 -0.7965 -2.0134  0.2794
 4400SOL    HW214652   6.211   5.098   7.432  1.8000 -0.3956 -0.5699
 4401SOL     OW14653   3.494   6.291   6.804  0.1267  0.1160  0.0593
 4401SOL    HW114654   3.517   6.320   6.716 -2.6647 -1.2018 -1.2270
 4401SOL    HW214655   3.411   6.334   6.823 -0.1934 -0.9896  1.3004
 4402SOL     OW14656   1.681   3.155   2.039 -0.3218  0.0401 -0.2396
 4402SOL    HW114657   1.695   3.115   1.953  1.9286  0.6537 -0.2371
 4402SOL    HW214658   1.752   3.219   2.048 -0.1922 -0.3172  2.2486
 4403SOL     OW14659   2.078   1.858   1.382  0.0070  0.1721  0.2960
 4403SOL    HW114660   2.113   1.877   1.469  1.7447 -1.2728 -0.0381
 4403SOL    HW214661   2.070   1.763   1.380 -1.4045  0.2726 -0.6444
 4404SOL     OW14662   6.940   9.112   8.400  0.3083 -0.4353 -0.1052
 4404SOL    HW114663   6.928   9.166   8.322 -1.4993 -1.4076 -0.5447
 4404SOL    HW214664   6.905   9.165   8.472 -0.5717 -0.6027 -0.3933
 4405SOL     OW14665   8.136   3.634   3.021 -0.8593  0.1879 -0.4678
 4405SOL    HW114666   8.079   3.703   3.051 -0.0119  1.4445 -1.6024
 4405SOL    HW214667   8.174   3.668   2.939 -0.0894 -1.4317 -0.8334
 4406SOL     OW14668   1.017   8.387   3.182  0.2378 -0.0199  0.1942
 4406SOL    HW114669   1.019   8.432   3.098 -1.2699 -0.8345 -0.3105
 4406SOL    HW214670   1.046   8.453   3.245  1.3169  0.6225 -0.9345
 4407SOL     OW14671   8.856   4.997   4.544  0.6785 -0.0239 -0.4809
 4407SOL    HW114672   8.790   4.992   4.613  1.7276 -0.1744  0.5459
 4407SOL    HW214673   8.926   5.051   4.582  2.3235 -2.0236 -0.4832
 4408SOL     OW14674   0.097   6.644   9.229 -0.3793 -0.0634  0.7407
 4408SOL    HW114675   0.127   6.665   9.141  0.4871  0.3327  1.1155
 4408SOL    HW214676   0.002   6.657   9.226 -0.2999  0.4019 -0.0038
 4409SOL     OW14677   8.258   7.533   9.011  0.0244  0.3494 -0.1191
 4409SOL    HW114678   8.328   7.503   9.069 -0.5164  3.0349  2.0659
 4409SOL    HW214679   8.298   7.601   8.957 -0.3846  0.3847 -0.3880
 4410SOL     OW14680   8.381   8.295   6.450  0.3013 -0.1996 -0.4372
 4410SOL    HW114681   8.308   8.332   6.500  0.0622 -0.0734 -0.8672
 4410SOL    HW214682   8.455   8.352   6.470  0.6337 -1.0926  1.0301
 4411SOL     OW14683   6.288   3.484   8.550 -0.3900 -0.3342  0.1823
 4411SOL    HW114684   6.337   3.511   8.627  0.8292  0.0355 -0.6966
 4411SOL    HW214685   6.290   3.388   8.553  0.9678 -0.3308 -0.1864
 4412SOL     OW14686   7.049   1.543   0.295 -0.1901  0.0539  0.2232
 4412SOL    HW114687   7.042   1.535   0.200  0.7869  1.4611 -0.0105
 4412SOL    HW214688   7.035   1.455   0.329 -2.8451 -0.1068 -1.0511
 4413SOL     OW14689   3.542   8.949   2.949  0.3066 -0.0097  0.5095
 4413SOL    HW114690   3.455   8.985   2.930  0.1048 -0.3773  0.7100
 4413SOL    HW214691   3.603   9.013   2.914 -0.0309  1.0809  1.8341
 4414SOL     OW14692   4.010   7.855   7.699  0.4374  0.7273  0.1957
 4414SOL    HW114693   3.975   7.835   7.786  0.7966  0.8855  0.3794
 4414SOL    HW214694   3.937   7.894   7.652 -0.0777 -0.3498  0.0653
 4415SOL     OW14695   6.751   1.209   4.154  0.2966  0.2426 -0.5911
 4415SOL    HW114696   6.841   1.179   4.169 -0.3943 -1.0097  1.4073
 4415SOL    HW214697   6.738   1.200   4.060  1.9722 -0.3922 -0.8012
 4416SOL     OW14698   4.364   7.648   4.340 -0.1005 -0.0992  0.0406
 4416SOL    HW114699   4.325   7.676   4.423 -2.0199  1.3537 -1.2550
 4416SOL    HW214700   4.454   7.681   4.343 -0.5660  1.1658  0.9889
 4417SOL     OW14701   5.334   7.530   3.807  0.3557 -0.2820  0.2560
 4417SOL    HW114702   5.340   7.622   3.833  2.1377  0.0090 -0.9676
 4417SOL    HW214703   5.244   7.520   3.776 -0.2849  0.6538  1.7059
 4418SOL     OW14704   6.132   8.215   7.729  0.4940 -0.1132 -0.2764
 4418SOL    HW114705   6.161   8.151   7.794 -3.1774 -2.2181 -0.4825
 4418SOL    HW214706   6.164   8.181   7.646 -1.0876 -1.6028 -0.3341
 4419SOL     OW14707   7.046   6.100   2.210  0.0468  0.8785 -0.4686
 4419SOL    HW114708   6.959   6.060   2.202  0.3407  0.5617 -2.5847
 4419SOL    HW214709   7.092   6.073   2.131  1.3251  2.8790 -0.4752
 4420SOL     OW14710   0.478   3.350   0.116  0.0179  0.2777  0.0966
 4420SOL    HW114711   0.534   3.335   0.193  0.1705 -0.9637 -0.2357
 4420SOL    HW214712   0.471   3.445   0.110  0.9835  0.4245  0.9539
 4421SOL     OW14713   4.011   6.292   3.861  0.2378 -0.0930 -0.0098
 4421SOL    HW114714   4.097   6.325   3.834  0.2542 -0.0796  0.0569
 4421SOL    HW214715   3.985   6.232   3.791 -0.2051  0.7464 -0.5756
 4422SOL     OW14716   8.437   3.584   2.094 -0.6411  0.0776  0.2905
 4422SOL    HW114717   8.359   3.545   2.055  0.0031 -0.7801 -0.1762
 4422SOL    HW214718   8.490   3.612   2.019  0.1034 -0.5761  0.5560
 4423SOL     OW14719   8.941   8.053   1.187  0.3415 -1.0036 -0.2258
 4423SOL    HW114720   8.897   8.125   1.232  0.9384 -1.0225  0.4070
 4423SOL    HW214721   8.973   7.996   1.258  2.0197 -0.6072 -0.6258
 4424SOL     OW14722   5.301   2.840   4.032  0.3177 -0.3441  0.4189
 4424SOL    HW114723   5.379   2.844   3.977 -0.4762  3.7560 -0.7721
 4424SOL    HW214724   5.334   2.842   4.122  1.5826 -0.7157 -0.0229
 4425SOL     OW14725   4.157   4.366   6.374  0.1660 -0.6925  0.3093
 4425SOL    HW114726   4.182   4.447   6.419  1.0410  0.1445 -1.5355
 4425SOL    HW214727   4.195   4.376   6.286 -1.3984 -2.2386 -0.5969
 4426SOL     OW14728   3.760   0.828   4.004  0.7534 -0.4880 -0.1948
 4426SOL    HW114729   3.752   0.777   3.924  0.4665  1.7609 -1.7190
 4426SOL    HW214730   3.807   0.907   3.976 -2.0216  1.7832  1.0865
 4427SOL     OW14731   1.776   2.340   8.235  0.5033  0.3898  0.8015
 4427SOL    HW114732   1.808   2.251   8.217 -0.1946 -0.2064  2.3148
 4427SOL    HW214733   1.761   2.378   8.148 -0.6626 -1.5222  0.1010
 4428SOL     OW14734   0.042   9.069   5.049 -1.2146  0.0214 -0.2104
 4428SOL    HW114735   0.039   9.063   5.144 -0.9299  0.0754 -0.1990
 4428SOL    HW214736  -0.037   9.022   5.020 -0.0370 -2.1782 -0.0568
 4429SOL     OW14737   2.101   8.025   1.250 -0.4264  0.2120 -0.0187
 4429SOL    HW114738   2.114   7.930   1.241 -0.0631  0.4926 -3.5235
 4429SOL    HW214739   2.074   8.036   1.342 -0.8795 -3.2933  0.4176
 4430SOL     OW14740   0.196   8.193   7.060  0.2355  0.1076 -0.4054
 4430SOL    HW114741   0.103   8.175   7.047  0.5379 -0.7256 -1.5877
 4430SOL    HW214742   0.236   8.107   7.074  0.8358  0.4549  0.0702
 4431SOL     OW14743   8.753   0.470   6.493 -0.1304  0.1547  0.4265
 4431SOL    HW114744   8.705   0.503   6.569 -1.3156  0.3120 -0.3646
 4431SOL    HW214745   8.741   0.537   6.426 -0.0415 -0.4890 -0.2491
 4432SOL     OW14746   1.910   4.355   6.240  0.1316 -0.1706  0.4670
 4432SOL    HW114747   1.925   4.372   6.333 -1.8816  0.5507  0.7164
 4432SOL    HW214748   1.854   4.427   6.211 -1.4487 -1.7445 -0.6349
 4433SOL     OW14749   3.218   0.468   7.440 -0.4913  0.6453 -0.1899
 4433SOL    HW114750   3.155   0.528   7.400  0.5678  0.2783 -2.5751
 4433SOL    HW214751   3.219   0.392   7.383  0.8146 -0.1071  0.7779
 4434SOL     OW14752   6.431   3.620   0.367  0.6458  0.0774  0.1406
 4434SOL    HW114753   6.462   3.710   0.355 -0.5784  0.6368  0.9439
 4434SOL    HW214754   6.349   3.616   0.317  1.2976 -0.9659 -0.8772
 4435SOL     OW14755   5.680   1.026   8.011 -0.0938 -0.0363  0.3288
 4435SOL    HW114756   5.775   1.037   8.011  0.2747 -2.3960 -1.5951
 4435SOL    HW214757   5.658   1.006   8.102  0.9609  2.1338  1.1288
 4436SOL     OW14758   2.654   4.618   9.171 -0.0382 -0.1059  0.1016
 4436SOL    HW114759   2.675   4.525   9.184 -0.9329 -0.1322  1.5814
 4436SOL    HW214760   2.622   4.622   9.081 -0.4368 -1.3381  0.1676
 4437SOL     OW14761   6.233   1.882   5.256 -0.0893  0.1051  0.6234
 4437SOL    HW114762   6.254   1.950   5.192 -0.1925 -0.1619  0.3024
 4437SOL    HW214763   6.282   1.907   5.335 -1.1010  1.2607  0.9354
 4438SOL     OW14764   6.094   4.082   4.208 -0.2918 -0.1541 -0.1307
 4438SOL    HW114765   6.158   4.026   4.165  0.5588  1.1087 -0.5679
 4438SOL    HW214766   6.113   4.072   4.302  1.2636  0.9695 -0.2851
 4439SOL     OW14767   5.388   6.210   5.225 -0.0263 -0.0968 -0.1033
 4439SOL    HW114768   5.425   6.180   5.142 -0.5264  1.0181 -0.7382
 4439SOL    HW214769   5.355   6.298   5.207  2.2427  1.2987  1.9496
 4440SOL     OW14770   7.255   1.204   1.653 -0.1337 -0.1694 -0.1212
 4440SOL    HW114771   7.245   1.294   1.681  1.8818 -0.2395  1.0281
 4440SOL    HW214772   7.205   1.198   1.572  0.8133  2.3603 -0.9812
 4441SOL     OW14773   0.554   3.970   5.077 -0.1221  0.0826  0.6556
 4441SOL    HW114774   0.635   3.927   5.105 -0.0207 -0.0154  0.2247
 4441SOL    HW214775   0.504   3.982   5.157 -0.9082 -2.3649  0.5996
 4442SOL     OW14776   6.026   6.839   5.618 -0.0937  0.0263 -0.0896
 4442SOL    HW114777   6.003   6.746   5.616  1.4609 -0.3989 -0.8705
 4442SOL    HW214778   5.996   6.873   5.534 -0.6019  0.2110  0.1676
 4443SOL     OW14779   2.974   8.333   6.294 -0.3299  0.2003  0.2120
 4443SOL    HW114780   2.961   8.271   6.365 -2.3918 -0.1055 -0.3610
 4443SOL    HW214781   2.985   8.278   6.216 -2.5900  0.4895 -0.3674
 4444SOL     OW14782   7.135   8.764   7.217 -0.6035  0.2798 -0.0863
 4444SOL    HW114783   7.125   8.858   7.204 -1.8409  0.0357 -1.0204
 4444SOL    HW214784   7.059   8.738   7.269 -0.9773 -0.3899 -0.9272
 4445SOL     OW14785   3.718   6.260   7.636  0.1729 -0.2187  0.5626
 4445SOL    HW114786   3.785   6.241   7.570 -0.7360 -0.6782 -0.2475
 4445SOL    HW214787   3.671   6.336   7.600 -0.4571 -0.5977  0.5847
 4446SOL     OW14788   4.541   7.566   3.770  0.1873 -0.1763 -0.1643
 4446SOL    HW114789   4.488   7.537   3.844  1.5619  1.4851  1.5801
 4446SOL    HW214790   4.496   7.644   3.736  0.4438  0.0587  0.0297
 4447SOL     OW14791   3.922   0.137   7.775  0.5483 -0.7197  0.0028
 4447SOL    HW114792   3.885   0.219   7.743 -0.5288 -1.6937 -1.3864
 4447SOL    HW214793   3.883   0.125   7.862 -1.8960 -1.3093 -1.0895
 4448SOL     OW14794   1.261   3.147   0.698  0.5045 -0.0804 -0.1984
 4448SOL    HW114795   1.214   3.207   0.755  1.3437 -0.6187  1.0973
 4448SOL    HW214796   1.216   3.154   0.614 -0.6084  0.9095  0.4502
 4449SOL     OW14797   2.928   1.127   8.925  0.4209 -0.3569 -0.1531
 4449SOL    HW114798   2.882   1.160   9.002  0.5286 -1.8512  0.5973
 4449SOL    HW214799   3.015   1.104   8.957  1.6826  2.1720 -1.4916
 4450SOL     OW14800   7.519   4.604   3.738 -0.9502 -0.2540 -0.7610
 4450SOL    HW114801   7.591   4.543   3.721  0.0335  0.7469 -0.2378
 4450SOL    HW214802   7.481   4.573   3.821  0.5990  0.7872  0.3816
 4451SOL     OW14803   5.030   1.804   5.154  0.1178  0.1710  0.2404
 4451SOL    HW114804   5.057   1.870   5.090  2.2973 -1.8696 -1.1146
 4451SOL    HW214805   5.015   1.725   5.102 -0.2661 -0.9877  2.0272
 4452SOL     OW14806   5.283   2.662   7.495  0.8148 -0.3052 -0.1134
 4452SOL    HW114807   5.328   2.717   7.559  0.4160  0.1861 -0.2438
 4452SOL    HW214808   5.260   2.583   7.543 -0.7090  0.6197  0.7614
 4453SOL     OW14809   3.633   8.983   1.394 -0.2233  0.5521 -0.2371
 4453SOL    HW114810   3.650   8.940   1.311 -0.3992  0.7247 -0.3640
 4453SOL    HW214811   3.587   9.064   1.371 -1.9608 -0.2728  0.1204
 4454SOL     OW14812   7.978   0.716   6.188 -0.1444  0.3044  0.4333
 4454SOL    HW114813   7.886   0.728   6.213 -0.3440 -1.3980  0.6423
 4454SOL    HW214814   7.975   0.681   6.099  0.3859  1.7555 -0.1804
 4455SOL     OW14815   8.711   8.793   0.490  0.5324  0.4378  0.0178
 4455SOL    HW114816   8.761   8.713   0.479  0.9220  0.4039  1.8411
 4455SOL    HW214817   8.648   8.792   0.418  2.5694  0.0906 -1.8464
 4456SOL     OW14818   1.241   4.543   2.637 -0.6167 -0.0522 -0.5142
 4456SOL    HW114819   1.332   4.519   2.619 -0.6391 -0.4495 -0.1048
 4456SOL    HW214820   1.247   4.612   2.703 -0.6116 -0.0666 -0.4998
 4457SOL     OW14821   6.902   1.161   6.233  0.2415  0.4018 -0.2430
 4457SOL    HW114822   6.893   1.068   6.257  4.2148  0.1516  0.9130
 4457SOL    HW214823   6.909   1.160   6.137 -0.4804 -0.3782 -0.3004
 4458SOL     OW14824   3.293   4.754   3.529 -0.3676 -0.0777 -0.0380
 4458SOL    HW114825   3.235   4.713   3.594 -1.8183 -0.1880 -1.3363
 4458SOL    HW214826   3.302   4.844   3.559 -0.1578 -0.3800  0.8606
 4459SOL     OW14827   1.599   3.989   9.125  0.6245  0.0037 -0.1804
 4459SOL    HW114828   1.631   3.917   9.180 -0.9533  0.7779  1.8998
 4459SOL    HW214829   1.506   3.997   9.148  0.2152  1.2275 -2.0526
 4460SOL     OW14830   8.592   2.141   6.753 -0.0098  0.4260 -0.3405
 4460SOL    HW114831   8.540   2.073   6.710  2.7511 -3.2897  1.6083
 4460SOL    HW214832   8.571   2.133   6.846  0.3263  2.3810 -0.0583
 4461SOL     OW14833   1.126   4.499   9.107 -0.0202 -0.4001  0.3594
 4461SOL    HW114834   1.188   4.508   9.035  1.0181 -2.0213  0.9999
 4461SOL    HW214835   1.044   4.473   9.064 -0.5596  2.5103 -0.5684
 4462SOL     OW14836   4.172   5.290   4.202  0.5604  0.2729 -0.4050
 4462SOL    HW114837   4.099   5.333   4.158 -1.5915 -1.1026  1.5899
 4462SOL    HW214838   4.216   5.360   4.250  0.5539  1.0997 -1.5567
 4463SOL     OW14839   8.361   8.959   0.415 -0.8565 -0.5202 -0.3290
 4463SOL    HW114840   8.434   8.913   0.374 -0.8580 -1.1929  0.3767
 4463SOL    HW214841   8.343   8.907   0.494 -1.1407  0.4624  0.2681
 4464SOL     OW14842   0.850   6.509   1.776 -0.2531 -0.9046  0.0221
 4464SOL    HW114843   0.834   6.494   1.869 -1.0491 -0.6419 -0.0702
 4464SOL    HW214844   0.934   6.466   1.760  0.7252  0.4657  1.2161
 4465SOL     OW14845   4.766   1.857   5.334  0.0934  0.3533 -0.2569
 4465SOL    HW114846   4.748   1.767   5.306 -0.1372  0.2609  0.1769
 4465SOL    HW214847   4.850   1.852   5.380  0.0863  0.3609 -0.2429
 4466SOL     OW14848   4.529   3.247   4.547  0.4905 -0.0193  0.0011
 4466SOL    HW114849   4.506   3.336   4.575  0.6662  0.3137 -0.8969
 4466SOL    HW214850   4.447   3.197   4.557 -0.1929  0.7494 -1.5075
 4467SOL     OW14851   4.112   6.815   2.458 -0.0918  0.2622 -0.4703
 4467SOL    HW114852   4.056   6.869   2.514 -0.1632 -0.1078 -0.1818
 4467SOL    HW214853   4.054   6.748   2.422  0.3417 -0.7296  0.6084
 4468SOL     OW14854   5.531   4.092   9.057 -0.4629  0.0161  1.1539
 4468SOL    HW114855   5.568   4.007   9.082 -1.1281 -0.7397 -0.2968
 4468SOL    HW214856   5.574   4.113   8.974  0.8400  1.8896  2.2291
 4469SOL     OW14857   6.884   8.121   1.792  0.2795  0.0643  0.1438
 4469SOL    HW114858   6.795   8.088   1.805  0.4264 -1.1627 -1.6973
 4469SOL    HW214859   6.927   8.108   1.876 -0.4599 -1.9908  0.2474
 4470SOL     OW14860   3.027   3.010   1.523 -0.2912 -0.2455  0.2571
 4470SOL    HW114861   3.041   2.934   1.579 -2.5393  0.1952  1.5465
 4470SOL    HW214862   3.001   3.080   1.583 -1.9981  0.4748 -1.2035
 4471SOL     OW14863   6.719   5.181   4.009  0.1682 -0.6252  0.1105
 4471SOL    HW114864   6.695   5.092   3.983  1.0332 -0.5744 -0.9004
 4471SOL    HW214865   6.691   5.236   3.936  0.8899 -0.2364  0.1200
 4472SOL     OW14866   1.428   1.147   3.904 -0.0189  0.0909  0.0964
 4472SOL    HW114867   1.359   1.189   3.955  0.7370 -0.9610  2.0943
 4472SOL    HW214868   1.390   1.063   3.878 -0.2472  0.4419 -0.7388
 4473SOL     OW14869   7.171   4.815   4.757  0.4687 -0.4616  0.1547
 4473SOL    HW114870   7.200   4.845   4.671  1.0602  1.4764  0.9713
 4473SOL    HW214871   7.088   4.859   4.772  0.6232 -0.3683  0.7801
 4474SOL     OW14872   1.690   0.968   0.791  0.3244  0.6872  0.4432
 4474SOL    HW114873   1.764   0.987   0.848 -0.8527  0.1088  2.2801
 4474SOL    HW214874   1.613   0.978   0.848 -0.9454  0.3261 -1.1218
 4475SOL     OW14875   1.260   2.087   0.596  0.4866  0.0685 -0.0259
 4475SOL    HW114876   1.289   2.172   0.563  0.0986 -0.0560 -0.7024
 4475SOL    HW214877   1.228   2.106   0.684  0.2302  0.6631 -0.2409
 4476SOL     OW14878   5.407   0.472   6.330  0.7735  0.1727  0.2865
 4476SOL    HW114879   5.475   0.430   6.382  0.8727 -2.5886 -1.7998
 4476SOL    HW214880   5.360   0.399   6.288 -2.1088  2.0359 -0.0539
 4477SOL     OW14881   3.546   8.379   4.449 -0.1811 -0.3071  0.2202
 4477SOL    HW114882   3.559   8.355   4.541 -1.0764 -2.6688 -0.1891
 4477SOL    HW214883   3.464   8.428   4.448  0.6384  1.1324  0.8405
 4478SOL     OW14884   1.528   5.548   8.724  0.4024 -0.0969  0.2131
 4478SOL    HW114885   1.565   5.628   8.687  0.2075 -0.2679 -0.3735
 4478SOL    HW214886   1.435   5.569   8.738  0.5915  0.1521  1.1578
 4479SOL     OW14887   4.402   7.316   6.813  0.5179 -0.3395  0.5499
 4479SOL    HW114888   4.469   7.257   6.779  0.1673  0.6944 -2.1779
 4479SOL    HW214889   4.321   7.265   6.813  0.6654 -0.5737  0.6158
 4480SOL     OW14890   6.880   1.555   7.537  0.4730  0.2324  1.1795
 4480SOL    HW114891   6.824   1.617   7.583 -1.4031 -0.1366 -0.4670
 4480SOL    HW214892   6.889   1.481   7.596 -3.6776 -1.1897  0.3413
 4481SOL     OW14893   6.655   0.321   3.342 -0.3698 -0.3242 -0.0290
 4481SOL    HW114894   6.738   0.275   3.333 -0.7863 -0.8489 -1.4367
 4481SOL    HW214895   6.679   0.407   3.376  0.6797 -0.6597  0.1240
 4482SOL     OW14896   4.241   4.494   7.233 -0.2355 -0.0557  0.2680
 4482SOL    HW114897   4.166   4.545   7.264 -0.1493  0.6453 -0.6240
 4482SOL    HW214898   4.204   4.411   7.205 -0.4052 -0.4527  1.5756
 4483SOL     OW14899   4.255   3.114   0.219 -0.1881 -0.0084  0.2086
 4483SOL    HW114900   4.227   3.200   0.249  2.6409  1.9406 -2.1242
 4483SOL    HW214901   4.330   3.092   0.275 -0.6255 -0.7950  0.5077
 4484SOL     OW14902   1.118   0.719   7.292  0.8074  0.6930 -0.0739
 4484SOL    HW114903   1.125   0.667   7.372  0.4988 -2.7168 -2.0558
 4484SOL    HW214904   1.208   0.738   7.268  1.1443 -1.2880 -0.6026
 4485SOL     OW14905   0.762   3.544   1.098  0.1341  0.5100  0.0559
 4485SOL    HW114906   0.691   3.524   1.159 -0.4512  1.0846 -0.4231
 4485SOL    HW214907   0.841   3.519   1.144 -0.4313 -1.0552  0.2446
 4486SOL     OW14908   3.399   6.152   0.515 -0.6455 -0.2050 -0.0703
 4486SOL    HW114909   3.395   6.096   0.437  1.5080 -0.5168  0.0026
 4486SOL    HW214910   3.471   6.213   0.497  0.5361 -0.8993  2.0431
 4487SOL     OW14911   2.940   6.995   7.535 -0.6952 -0.0814 -0.7638
 4487SOL    HW114912   2.861   7.046   7.551 -0.1286  0.5203  0.2403
 4487SOL    HW214913   2.918   6.907   7.567 -0.9403  0.0955 -0.4376
 4488SOL     OW14914   1.285   4.542   5.630 -0.1267  0.3813 -0.0718
 4488SOL    HW114915   1.346   4.479   5.669 -0.4363  0.8840  1.2718
 4488SOL    HW214916   1.338   4.620   5.615 -0.5001  0.9871  1.5475
 4489SOL     OW14917   2.716   7.341   6.089 -0.3974  0.2732 -0.9223
 4489SOL    HW114918   2.753   7.253   6.090  2.4798  1.3514  0.8663
 4489SOL    HW214919   2.634   7.333   6.138  0.7353 -1.1409  0.8995
 4490SOL     OW14920   4.647   4.623   6.383  0.1923 -0.6520  0.3742
 4490SOL    HW114921   4.730   4.669   6.371  1.0627 -1.4973  2.6046
 4490SOL    HW214922   4.661   4.537   6.343  0.9128 -1.2671  1.8690
 4491SOL     OW14923   5.451   3.317   1.489  0.1875  0.1220  0.5467
 4491SOL    HW114924   5.368   3.364   1.482  0.8361  1.5643  1.8376
 4491SOL    HW214925   5.514   3.375   1.447  1.1218  0.8302  2.7626
 4492SOL     OW14926   5.811   3.201   5.079  0.0116 -0.7137 -0.3210
 4492SOL    HW114927   5.790   3.197   5.172  1.6601 -0.6284  0.0925
 4492SOL    HW214928   5.835   3.111   5.056 -0.1025 -0.6776 -0.5848
 4493SOL     OW14929   2.909   5.684   2.566  0.3908  0.1340  0.4405
 4493SOL    HW114930   2.864   5.603   2.590  1.3054 -0.0864  1.4963
 4493SOL    HW214931   2.963   5.659   2.491 -1.3965  0.4751 -1.0449
 4494SOL     OW14932   5.074   9.143   6.756 -0.2751 -0.2641 -0.0783
 4494SOL    HW114933   5.090   9.059   6.714 -0.3750  0.4838 -1.6772
 4494SOL    HW214934   4.994   9.175   6.714  0.7744  1.4524 -0.8469
 4495SOL     OW14935   2.954   7.976   1.324  0.2573 -0.5728  1.2533
 4495SOL    HW114936   3.003   7.986   1.243  0.5325  1.0503  1.5918
 4495SOL    HW214937   3.019   7.990   1.393 -0.2365 -0.5958  1.7308
 4496SOL     OW14938   0.811   0.588   1.249  0.2969 -0.0422 -0.4413
 4496SOL    HW114939   0.845   0.555   1.332 -1.4957 -0.5664  0.1333
 4496SOL    HW214940   0.767   0.512   1.209 -0.2285  0.6043 -1.1213
 4497SOL     OW14941   8.595   1.009   5.355  0.5277 -0.5668 -0.5660
 4497SOL    HW114942   8.540   1.020   5.277 -1.3724  0.8094  0.8851
 4497SOL    HW214943   8.570   0.924   5.391 -1.0594  0.2472  0.3356
 4498SOL     OW14944   8.493   3.450   1.620  0.1247  0.4493 -0.5503
 4498SOL    HW114945   8.536   3.426   1.703  1.1244  2.2907 -0.4941
 4498SOL    HW214946   8.410   3.490   1.647 -0.0763  0.0156 -0.5088
 4499SOL     OW14947   2.918   7.984   7.212 -0.0482  0.7564  0.1701
 4499SOL    HW114948   2.999   7.994   7.262  0.1174  0.1332  0.0418
 4499SOL    HW214949   2.944   7.999   7.121 -0.0955  0.6569  0.1393
 4500SOL     OW14950   8.228   8.061   2.378  0.7595 -1.2806 -0.2005
 4500SOL    HW114951   8.236   7.994   2.310  1.9982 -0.4918 -0.8658
 4500SOL    HW214952   8.173   8.129   2.340  2.3160 -0.3451 -0.8587
 4501SOL     OW14953   2.249   4.480   1.458  0.1367 -0.1904  0.4890
 4501SOL    HW114954   2.243   4.413   1.390 -0.2868  0.1986  0.1409
 4501SOL    HW214955   2.224   4.435   1.539  1.7801 -0.9651  0.6053
 4502SOL     OW14956   8.694   2.420   1.806  0.2693 -0.7625  0.1831
 4502SOL    HW114957   8.776   2.389   1.767  0.3399 -0.9426  0.4658
 4502SOL    HW214958   8.640   2.445   1.732  1.7032  2.3143  0.0249
 4503SOL     OW14959   5.032   1.873   8.949  0.1022 -0.0522  0.5902
 4503SOL    HW114960   4.993   1.813   9.013  0.8328 -1.3550 -0.1534
 4503SOL    HW214961   5.062   1.947   9.002  0.6111 -1.0534  1.7645
 4504SOL     OW14962   6.451   7.201   3.139 -0.0059  0.2558  0.1645
 4504SOL    HW114963   6.452   7.134   3.207 -1.2062  0.1960  0.1385
 4504SOL    HW214964   6.480   7.155   3.060  0.0954  0.0022  0.3472
 4505SOL     OW14965   0.893   3.825   6.949 -0.1340  0.2231 -0.0607
 4505SOL    HW114966   0.913   3.741   6.991 -0.9936 -0.5700 -1.1577
 4505SOL    HW214967   0.978   3.861   6.926  0.2513 -0.4123  0.3327
 4506SOL     OW14968   2.869   2.831   1.811  0.3070  0.2677 -0.4126
 4506SOL    HW114969   2.891   2.759   1.871 -0.4135 -0.5232 -1.0727
 4506SOL    HW214970   2.916   2.907   1.846  0.2374 -0.2785  0.9008
 4507SOL     OW14971   5.150   4.666   3.569 -0.4319 -1.0848  0.1947
 4507SOL    HW114972   5.189   4.619   3.643 -0.2268 -0.2327  0.6337
 4507SOL    HW214973   5.058   4.679   3.595 -0.4993 -1.2612  0.0542
 4508SOL     OW14974   5.284   0.857   5.042 -0.2499 -0.0563  0.6038
 4508SOL    HW114975   5.293   0.947   5.073  0.8085 -0.1801  0.6998
 4508SOL    HW214976   5.367   0.816   5.064 -0.2854 -0.7485 -0.4771
 4509SOL     OW14977   6.017   1.046   7.251 -0.1375 -0.4524 -0.4024
 4509SOL    HW114978   5.992   1.130   7.289  0.1256 -0.7923  0.5564
 4509SOL    HW214979   5.974   0.980   7.306  1.3552 -0.9914  0.1719
 4510SOL     OW14980   0.963   5.979   0.279  0.4584 -0.6199 -0.5470
 4510SOL    HW114981   0.937   5.888   0.286  0.2019 -0.4451  1.0287
 4510SOL    HW214982   1.053   5.982   0.312  0.6512 -0.3705 -1.0662
 4511SOL     OW14983   9.018   0.190   1.974 -0.0456 -0.3518 -0.4550
 4511SOL    HW114984   8.987   0.101   1.959 -0.3698 -0.3589  0.2145
 4511SOL    HW214985   8.938   0.243   1.978  0.0587 -0.2396  0.4288
 4512SOL     OW14986   6.880   3.317   6.470  0.0996 -0.2644  0.5661
 4512SOL    HW114987   6.893   3.393   6.413 -0.5435 -1.2573 -0.9729
 4512SOL    HW214988   6.797   3.334   6.514 -1.3729 -1.1589 -1.6922
 4513SOL     OW14989   5.896   5.238   3.026 -0.0049  0.4424  0.0484
 4513SOL    HW114990   5.986   5.268   3.040 -0.3558  1.5358  0.0161
 4513SOL    HW214991   5.885   5.240   2.931  0.6602 -1.9073 -0.1346
 4514SOL     OW14992   4.723   4.858   3.067  0.2771 -0.0404  0.7452
 4514SOL    HW114993   4.732   4.803   3.145  1.3730 -0.1432  0.5684
 4514SOL    HW214994   4.750   4.800   2.995  0.4133  0.4042  0.4377
 4515SOL     OW14995   0.678   0.339   1.182  0.0639 -0.4520 -0.0326
 4515SOL    HW114996   0.603   0.352   1.240  0.1089 -0.2951 -0.0109
 4515SOL    HW214997   0.694   0.244   1.187 -0.6802 -0.6273 -0.7239
 4516SOL     OW14998   6.541   4.359   7.773  0.2098  0.0935 -0.3282
 4516SOL    HW114999   6.572   4.448   7.757  0.4475 -0.1079 -1.0568
 4516SOL    HW215000   6.511   4.360   7.864  1.4245  0.5672  0.0910
 4517SOL     OW15001   3.122   7.969   0.432 -0.0061  0.1485  0.0364
 4517SOL    HW115002   3.131   8.063   0.421 -0.2486  0.1663 -0.0094
 4517SOL    HW215003   3.197   7.932   0.386 -0.2536  0.2880 -0.4833
 4518SOL     OW15004   4.040   0.944   0.093 -0.0056 -0.2875  0.0046
 4518SOL    HW115005   4.034   0.968   0.186  0.8992 -2.0985  0.5900
 4518SOL    HW215006   3.977   0.872   0.083  1.0754 -1.2203 -0.3506
 4519SOL     OW15007   3.027   4.082   1.468  0.2399 -0.8148 -0.4298
 4519SOL    HW115008   2.943   4.110   1.431  0.9745  1.0392 -0.7979
 4519SOL    HW215009   3.092   4.109   1.403  1.2033 -1.4388  0.2510
 4520SOL     OW15010   1.458   4.438   4.422 -0.1747  0.2548 -0.1464
 4520SOL    HW115011   1.543   4.477   4.445 -0.8554  1.2990  0.7301
 4520SOL    HW215012   1.454   4.358   4.474  1.0981 -0.8867 -1.7086
 4521SOL     OW15013   5.995   8.412   2.766 -0.2051  0.2220 -0.0061
 4521SOL    HW115014   5.912   8.451   2.794  0.4793  0.4941  1.8287
 4521SOL    HW215015   6.043   8.484   2.725  0.5918  1.1162  2.3354
 4522SOL     OW15016   7.470   0.364   5.742 -0.7127 -0.3238 -0.5317
 4522SOL    HW115017   7.419   0.283   5.751 -2.1744  0.7154  5.7862
 4522SOL    HW215018   7.560   0.338   5.764 -0.7671 -0.5199 -0.5363
 4523SOL     OW15019   1.396   4.448   3.221 -0.4579 -0.3783 -0.3222
 4523SOL    HW115020   1.370   4.409   3.138 -1.3989 -1.6661  0.5436
 4523SOL    HW215021   1.382   4.542   3.209 -1.1025 -0.5985 -1.4335
 4524SOL     OW15022   3.996   2.458   2.678 -0.2384 -0.7582 -0.4292
 4524SOL    HW115023   4.022   2.407   2.602 -0.1059 -0.4923 -0.5619
 4524SOL    HW215024   3.977   2.545   2.644 -1.2723 -0.9339 -0.3370
 4525SOL     OW15025   2.070   8.944   7.305  0.0725  0.3182  0.1138
 4525SOL    HW115026   2.078   8.870   7.365  0.2278  0.2349 -0.0119
 4525SOL    HW215027   2.096   9.020   7.357  2.4924 -0.0218 -0.5010
 4526SOL     OW15028   3.030   6.301   6.598  0.2512  0.4874 -0.3921
 4526SOL    HW115029   3.116   6.303   6.557 -0.1285  2.9854 -1.2637
 4526SOL    HW215030   2.969   6.294   6.525 -0.3307  0.4729  0.0860
 4527SOL     OW15031   0.832   2.969   2.854 -0.7716 -0.3893  0.1147
 4527SOL    HW115032   0.738   2.966   2.875 -1.0414 -0.2129 -0.9837
 4527SOL    HW215033   0.868   3.031   2.917 -2.2426  3.2195 -2.2376
 4528SOL     OW15034   2.690   3.945   9.260 -0.0934 -0.2697  0.0956
 4528SOL    HW115035   2.598   3.922   9.271  0.2067 -1.5067  0.1404
 4528SOL    HW215036   2.688   4.032   9.219 -1.2582  0.1338  0.9517
 4529SOL     OW15037   0.913   0.390   4.939  0.0979 -0.1919 -0.0213
 4529SOL    HW115038   0.952   0.370   4.854  1.9045  1.7681  0.2511
 4529SOL    HW215039   0.869   0.474   4.926 -1.4506 -0.8895  0.4813
 4530SOL     OW15040   9.009   5.226   7.928 -0.1845 -0.3872  0.0470
 4530SOL    HW115041   9.023   5.172   8.006 -1.2943 -0.7521  0.0181
 4530SOL    HW215042   9.082   5.204   7.870  0.5865 -0.1980  0.9241
 4531SOL     OW15043   1.186   8.333   8.328 -0.0390  0.1183 -0.2430
 4531SOL    HW115044   1.217   8.329   8.418 -0.3161 -1.0683 -0.1818
 4531SOL    HW215045   1.250   8.280   8.279  1.5900  2.7847 -1.2282
 4532SOL     OW15046   1.932   2.322   8.766  0.1420  0.1818 -0.5613
 4532SOL    HW115047   1.923   2.309   8.671  2.6638 -0.4439 -0.7931
 4532SOL    HW215048   1.939   2.233   8.801 -0.5721  0.4208  0.2046
 4533SOL     OW15049   6.628   7.664   1.815 -0.4728 -0.4244  0.1294
 4533SOL    HW115050   6.548   7.632   1.855 -0.7137  0.7255  0.6152
 4533SOL    HW215051   6.697   7.608   1.851 -1.0575 -1.5718 -0.4728
 4534SOL     OW15052   6.405   2.412   5.011  0.3367 -0.3626 -0.6088
 4534SOL    HW115053   6.438   2.344   4.952  0.1740 -0.2681 -0.8113
 4534SOL    HW215054   6.428   2.382   5.098 -2.1959 -2.0976 -0.4284
 4535SOL     OW15055   9.033   2.233   6.600  0.0691 -0.3666 -0.0166
 4535SOL    HW115056   8.955   2.287   6.590  0.0586  0.2210  2.5363
 4535SOL    HW215057   9.000   2.143   6.605 -0.2056 -0.3392 -1.0879
 4536SOL     OW15058   3.309   8.443   0.150 -0.0099 -0.1601 -0.1212
 4536SOL    HW115059   3.379   8.504   0.173  0.1027 -0.7036  1.0760
 4536SOL    HW215060   3.351   8.357   0.155 -0.3276 -0.3911 -1.1546
 4537SOL     OW15061   2.573   7.091   8.122 -0.7010 -0.1345 -0.2507
 4537SOL    HW115062   2.549   7.074   8.031 -1.5153 -0.8748  0.0771
 4537SOL    HW215063   2.489   7.109   8.165 -0.3701 -0.1901  0.4289
 4538SOL     OW15064   5.981   8.407   7.615  0.0752 -0.1547 -0.4223
 4538SOL    HW115065   5.982   8.341   7.545  1.9628 -0.3659 -0.2546
 4538SOL    HW215066   6.031   8.367   7.686 -0.6159  0.6163  0.5222
 4539SOL     OW15067   5.663   1.346   3.289  0.1962  0.8638 -0.1643
 4539SOL    HW115068   5.572   1.357   3.317  0.0967 -1.1666  0.4726
 4539SOL    HW215069   5.657   1.310   3.200  0.3625  0.1972  0.0921
 4540SOL     OW15070   3.844   8.582   6.299  0.1575  0.3230 -0.2215
 4540SOL    HW115071   3.847   8.532   6.382  0.9112  0.1787 -0.3295
 4540SOL    HW215072   3.936   8.590   6.273 -0.1509 -1.3794 -2.0825
 4541SOL     OW15073   8.846   5.369   3.946 -0.2366 -0.6278  0.5390
 4541SOL    HW115074   8.753   5.372   3.924  0.0957 -0.7208 -0.9996
 4541SOL    HW215075   8.882   5.301   3.889  0.8153 -0.4433  0.9602
 4542SOL     OW15076   1.691   3.330   6.040 -0.1885  0.4464 -0.0496
 4542SOL    HW115077   1.622   3.289   5.988  0.9017 -1.5997 -0.0033
 4542SOL    HW215078   1.766   3.335   5.981  0.8162 -1.1582  0.9811
 4543SOL     OW15079   2.124   5.827   4.015 -0.1359 -0.0012 -0.3434
 4543SOL    HW115080   2.035   5.794   4.027 -0.1969  0.8277  2.0098
 4543SOL    HW215081   2.179   5.765   4.063  0.1260  1.3266  1.1629
 4544SOL     OW15082   4.796   8.797   6.292  0.0143  0.5721 -0.3952
 4544SOL    HW115083   4.714   8.841   6.272 -0.4874 -0.3549 -0.4147
 4544SOL    HW215084   4.779   8.750   6.374  1.2166  2.1601  0.8299
 4545SOL     OW15085   7.658   4.302   8.042 -0.3620  0.1318 -0.9351
 4545SOL    HW115086   7.712   4.282   7.965 -0.0837  1.1969 -1.0367
 4545SOL    HW215087   7.720   4.337   8.106 -0.8462  0.8997 -0.8735
 4546SOL     OW15088   3.374   8.715   2.568 -0.4529 -0.5129 -0.1920
 4546SOL    HW115089   3.443   8.778   2.586 -1.2403  1.1095 -2.4329
 4546SOL    HW215090   3.319   8.757   2.503 -1.6146 -3.1471 -1.0643
 4547SOL     OW15091   6.949   3.611   7.334 -0.1430 -1.0225 -0.4164
 4547SOL    HW115092   6.914   3.698   7.352  1.1071 -0.8720  1.5130
 4547SOL    HW215093   7.044   3.622   7.337  0.1442 -1.8600 -3.3248
 4548SOL     OW15094   4.825   5.639   3.561 -0.1924  0.2100 -0.2597
 4548SOL    HW115095   4.747   5.614   3.611 -0.2506  0.7982 -0.0463
 4548SOL    HW215096   4.898   5.619   3.620 -0.2677  1.0135  0.1168
 4549SOL     OW15097   0.474   0.976   4.476 -0.4592  0.0359  0.2458
 4549SOL    HW115098   0.477   0.997   4.383 -1.6835 -0.5200  0.0571
 4549SOL    HW215099   0.555   0.928   4.493 -0.6545 -0.6807 -0.7608
 4550SOL     OW15100   3.459   0.007   1.816  0.4526  0.0322 -0.0110
 4550SOL    HW115101   3.446  -0.079   1.857  1.2636 -0.1437 -0.1091
 4550SOL    HW215102   3.376   0.025   1.773 -0.3731  0.1310  1.5277
 4551SOL     OW15103   5.264   2.308   0.648  0.6484  0.1696 -0.3571
 4551SOL    HW115104   5.239   2.394   0.682  1.2240  0.5984 -0.9864
 4551SOL    HW215105   5.260   2.250   0.724  0.2898  0.7606  0.0840
 4552SOL     OW15106   7.178   4.411   0.741 -0.3621  0.2577  0.0995
 4552SOL    HW115107   7.083   4.417   0.753 -0.4446 -2.4724  1.3939
 4552SOL    HW215108   7.214   4.412   0.830  0.7429  0.1672 -0.3273
 4553SOL     OW15109   5.825   6.250   2.387 -0.3307  0.1063 -0.3397
 4553SOL    HW115110   5.749   6.193   2.399 -0.0918 -0.1423  0.0394
 4553SOL    HW215111   5.791   6.327   2.343 -1.3307  1.1709  2.0978
 4554SOL     OW15112   1.012   6.405   0.892 -0.0502  0.4246  0.6389
 4554SOL    HW115113   0.990   6.358   0.972  1.3409  2.6941  2.5040
 4554SOL    HW215114   1.085   6.356   0.855 -1.2136 -1.0959  0.2646
 4555SOL     OW15115   2.900   4.761   2.706 -0.1798  0.2762  0.7731
 4555SOL    HW115116   2.813   4.741   2.670 -0.3194 -0.8606  1.6720
 4555SOL    HW215117   2.889   4.845   2.750 -0.6060  0.5407  0.1701
 4556SOL     OW15118   1.906   5.463   8.239  0.5663 -0.1023 -0.2655
 4556SOL    HW115119   1.884   5.373   8.262 -1.6422  0.5836  0.4908
 4556SOL    HW215120   1.902   5.465   8.144 -0.6188 -0.5322 -0.2392
 4557SOL     OW15121   1.154   7.815   4.260  0.5522 -0.2582  0.1450
 4557SOL    HW115122   1.168   7.907   4.280 -0.7938 -0.0163  0.1132
 4557SOL    HW215123   1.183   7.768   4.338  1.0980  0.2056  0.2233
 4558SOL     OW15124   7.665   4.847   2.685 -0.3829  0.3121  0.0816
 4558SOL    HW115125   7.699   4.927   2.645 -0.6047  0.5019  0.2765
 4558SOL    HW215126   7.590   4.823   2.632  0.3534 -0.3991 -0.6714
 4559SOL     OW15127   3.843   1.196   8.102  0.2024 -0.1185  0.3680
 4559SOL    HW115128   3.920   1.195   8.045 -0.0765  0.7178 -0.0381
 4559SOL    HW215129   3.822   1.288   8.113 -0.7794 -0.3377  0.4230
 4560SOL     OW15130   4.335   5.609   8.385  0.2542  0.3092 -0.5274
 4560SOL    HW115131   4.368   5.596   8.474 -0.7799  0.7811 -0.0567
 4560SOL    HW215132   4.411   5.638   8.335  0.5725  1.3661  0.5276
 4561SOL     OW15133   1.433   4.335   5.749 -0.0117 -0.8718 -0.1536
 4561SOL    HW115134   1.529   4.333   5.756  0.0562 -2.1072 -0.9878
 4561SOL    HW215135   1.408   4.243   5.738 -1.1973 -0.4827 -0.9911
 4562SOL     OW15136   7.354   4.641   0.121  0.0335 -0.7298 -0.2986
 4562SOL    HW115137   7.407   4.710   0.081  0.2483  0.0820  1.2996
 4562SOL    HW215138   7.263   4.665   0.100  0.1089  0.0292  0.2264
 4563SOL     OW15139   6.211   8.005   2.149  0.0839  0.2004  0.0145
 4563SOL    HW115140   6.259   7.923   2.156 -0.4954 -0.0696  1.0363
 4563SOL    HW215141   6.255   8.065   2.209  0.1904  0.4817 -0.3403
 4564SOL     OW15142   3.917   2.343   9.193  0.0287 -0.4843  0.5682
 4564SOL    HW115143   3.943   2.276   9.256  1.3263 -0.5796 -0.0317
 4564SOL    HW215144   3.917   2.298   9.109  0.7041  0.1863  0.1869
 4565SOL     OW15145   5.619   7.668   4.175 -0.7787  0.1574 -0.0426
 4565SOL    HW115146   5.693   7.701   4.227  0.3348 -0.5989 -1.1004
 4565SOL    HW215147   5.598   7.739   4.115 -2.7124  1.4236  2.0038
 4566SOL     OW15148   4.001   8.888   3.900 -0.0739  0.5939 -0.3811
 4566SOL    HW115149   3.938   8.914   3.966  1.0791 -1.5685  1.7314
 4566SOL    HW215150   4.066   8.958   3.899  0.4807  0.1655  1.6587
 4567SOL     OW15151   3.380   0.122   0.732  0.3210 -0.2656 -0.4906
 4567SOL    HW115152   3.392   0.100   0.639  0.5207 -1.6301 -0.1653
 4567SOL    HW215153   3.462   0.164   0.757  0.1148  0.4693 -1.0291
 4568SOL     OW15154   8.805   6.307   3.179 -0.2175  0.1096  0.7068
 4568SOL    HW115155   8.751   6.344   3.109  0.2748 -0.8086 -0.1963
 4568SOL    HW215156   8.779   6.354   3.258 -0.8792  1.0899 -0.0739
 4569SOL     OW15157   2.109   6.406   3.372 -0.4880  0.1908 -0.3460
 4569SOL    HW115158   2.061   6.374   3.448  1.3423 -2.1597 -0.0917
 4569SOL    HW215159   2.139   6.493   3.398 -2.2866  0.6143  0.4784
 4570SOL     OW15160   7.488   1.509   5.366 -0.4931 -0.4259 -0.1662
 4570SOL    HW115161   7.523   1.568   5.432 -2.8273  1.8471 -0.7887
 4570SOL    HW215162   7.454   1.435   5.416  0.3154 -0.1103  0.8833
 4571SOL     OW15163   7.415   8.079   3.186  0.3071 -0.7969 -0.2003
 4571SOL    HW115164   7.407   8.012   3.118  1.0948 -0.8573 -0.2323
 4571SOL    HW215165   7.330   8.076   3.231 -0.7807  0.1927 -2.0417
 4572SOL     OW15166   8.516   4.280   8.918  0.6126 -0.3479  0.4986
 4572SOL    HW115167   8.594   4.263   8.867 -0.2751 -2.5409 -0.2484
 4572SOL    HW215168   8.460   4.332   8.861  1.1305  0.4282  0.6873
 4573SOL     OW15169   6.896   0.263   1.521  0.1237  0.1634 -0.1992
 4573SOL    HW115170   6.867   0.328   1.457 -0.9545 -1.6521 -1.6555
 4573SOL    HW215171   6.991   0.258   1.509  0.2968  1.7593  0.2813
 4574SOL     OW15172   7.302   6.916   0.248  0.1262  0.0252  0.3327
 4574SOL    HW115173   7.332   6.827   0.268  0.2254 -0.4700 -1.8424
 4574SOL    HW215174   7.326   6.930   0.157  0.7958  2.6028  0.8251
 4575SOL     OW15175   5.021   6.013   9.014  0.2725  0.6791 -0.2317
 4575SOL    HW115176   4.927   6.001   8.995 -0.0458  1.3975  0.8171
 4575SOL    HW215177   5.061   6.019   8.927 -0.1373 -2.8849 -0.8197
 4576SOL     OW15178   9.089   8.297   8.489 -0.0555  0.1731 -0.0018
 4576SOL    HW115179   9.047   8.218   8.455 -0.8461  0.0561  1.1616
 4576SOL    HW215180   9.145   8.265   8.560  0.0460  0.5889  0.1080
 4577SOL     OW15181   5.248   4.359   5.411 -0.9058 -0.3756 -0.4614
 4577SOL    HW115182   5.244   4.351   5.315  0.0158 -2.4477 -0.3789
 4577SOL    HW215183   5.194   4.435   5.430  0.1385  1.0491 -2.7481
 4578SOL     OW15184   2.119   3.015   0.403  0.1577 -0.0514  0.5016
 4578SOL    HW115185   2.151   2.937   0.357 -0.1968  0.2348 -0.2469
 4578SOL    HW215186   2.146   3.002   0.494 -0.5905 -1.4389  0.5615
 4579SOL     OW15187   3.000   5.742   4.866  0.2748 -0.0020  0.6208
 4579SOL    HW115188   2.909   5.768   4.857  0.9185  1.6866 -1.7653
 4579SOL    HW215189   3.004   5.654   4.829 -0.0655  0.7381 -1.2882
 4580SOL     OW15190   8.799   4.932   8.169 -0.4686 -0.0080  0.4575
 4580SOL    HW115191   8.874   4.950   8.112 -0.9120  2.3634  0.5346
 4580SOL    HW215192   8.759   4.854   8.131  1.4049 -0.6914 -0.2242
 4581SOL     OW15193   2.288   9.107   8.286 -0.0661  0.0505 -0.2129
 4581SOL    HW115194   2.315   9.188   8.330  1.9860  0.2704 -1.7274
 4581SOL    HW215195   2.196   9.121   8.266  0.0469  1.6981  0.2172
 4582SOL     OW15196   7.088   0.885   6.765  0.0332 -0.2656  0.1211
 4582SOL    HW115197   7.115   0.851   6.680  0.5404  0.1560  0.1076
 4582SOL    HW215198   7.014   0.830   6.791  1.8246 -2.4992  0.8543
 4583SOL     OW15199   4.506   6.447   2.775 -0.3584  0.0472 -0.1284
 4583SOL    HW115200   4.415   6.451   2.803 -0.2933  3.4311 -0.0751
 4583SOL    HW215201   4.556   6.459   2.856  0.1195 -0.4681 -0.3413
 4584SOL     OW15202   0.859   0.126   8.712 -0.3097  0.0154 -0.1896
 4584SOL    HW115203   0.821   0.048   8.753  0.9210 -0.3320  0.3398
 4584SOL    HW215204   0.910   0.092   8.639  0.9862  0.2195  0.5998
 4585SOL     OW15205   4.128   4.251   5.912 -0.1895 -0.2037 -0.1723
 4585SOL    HW115206   4.094   4.210   5.992 -0.3201  0.1231 -0.0626
 4585SOL    HW215207   4.128   4.180   5.847  2.1908 -1.1683  0.7414
 4586SOL     OW15208   7.902   6.954   4.075  0.2131  0.0416  0.0676
 4586SOL    HW115209   7.856   6.954   4.158 -0.2402  1.3514 -0.1504
 4586SOL    HW215210   7.955   6.874   4.076  0.6502  0.3093  1.8404
 4587SOL     OW15211   7.878   4.386   2.842 -0.5429  0.5111 -0.2513
 4587SOL    HW115212   7.827   4.465   2.856 -1.8402 -0.1453 -1.0934
 4587SOL    HW215213   7.947   4.413   2.782 -0.8858  1.0396 -0.4163
 4588SOL     OW15214   1.806   2.051   9.244 -0.3543  0.3366  0.5737
 4588SOL    HW115215   1.884   2.000   9.266  0.1595 -0.6703 -2.9699
 4588SOL    HW215216   1.840   2.137   9.221 -0.1291 -0.2346 -1.4172
 4589SOL     OW15217   5.320   5.346   0.433  0.0500  0.0443  0.3233
 4589SOL    HW115218   5.376   5.314   0.363  0.5962  1.1111  0.2482
 4589SOL    HW215219   5.374   5.343   0.511  0.8554  2.6555 -0.0361
 4590SOL     OW15220   8.498   6.534   8.115 -0.5143 -0.2701  0.3036
 4590SOL    HW115221   8.426   6.565   8.171  0.0949  0.6706  0.5929
 4590SOL    HW215222   8.505   6.440   8.135 -1.2489 -0.2403  0.7374
 4591SOL     OW15223   6.742   9.180   6.711 -0.0032 -0.0593  0.3908
 4591SOL    HW115224   6.753   9.129   6.791 -2.9141  0.2518  1.1139
 4591SOL    HW215225   6.763   9.270   6.736  1.8284 -0.3391  0.0009
 4592SOL     OW15226   8.062   7.186   0.316  0.4450 -0.3276 -0.2414
 4592SOL    HW115227   8.144   7.228   0.341 -1.5997  2.5730  2.3806
 4592SOL    HW215228   8.028   7.240   0.244  0.1080 -0.5409 -0.2439
 4593SOL     OW15229   8.948   8.152   4.727 -0.0535  0.0910 -0.5163
 4593SOL    HW115230   8.880   8.216   4.708  1.0479  1.4952  0.1253
 4593SOL    HW215231   9.023   8.181   4.677  0.2316 -1.2023 -0.8793
 4594SOL     OW15232   6.469   1.897   3.366 -0.0703  0.4075  0.8273
 4594SOL    HW115233   6.386   1.852   3.350 -0.6220  1.0286  1.8605
 4594SOL    HW215234   6.536   1.832   3.342 -0.8425 -0.2058  0.2655
 4595SOL     OW15235   8.302   0.205   2.982 -0.3046  0.2961  0.5439
 4595SOL    HW115236   8.225   0.255   3.010  0.2647  1.7374 -0.3260
 4595SOL    HW215237   8.345   0.262   2.918  2.2663  0.1754  2.0352
 4596SOL     OW15238   9.034   5.572   6.429  0.0271 -0.3008  0.3209
 4596SOL    HW115239   9.108   5.516   6.451 -1.3489 -2.1060  0.6670
 4596SOL    HW215240   8.968   5.551   6.496 -0.0148  2.9870  1.4827
 4597SOL     OW15241   1.914   4.526   3.205 -0.9912 -0.7458 -0.0420
 4597SOL    HW115242   1.823   4.495   3.201 -1.6851  0.9635  1.1902
 4597SOL    HW215243   1.906   4.621   3.195  0.6491 -0.5497  0.3408
 4598SOL     OW15244   4.293   6.500   8.027 -0.0495  0.2143  0.2075
 4598SOL    HW115245   4.204   6.510   8.059 -0.8049  0.7843 -1.9038
 4598SOL    HW215246   4.296   6.412   7.990 -0.8025  1.2470 -2.5673
 4599SOL     OW15247   1.060   5.229   1.290 -0.4232 -0.4479 -0.6725
 4599SOL    HW115248   1.098   5.149   1.253  0.0151 -0.1802 -0.8087
 4599SOL    HW215249   0.966   5.211   1.295 -0.2866 -1.0983 -0.3808
 4600SOL     OW15250   3.928   4.063   6.790  0.3593 -0.0879  0.6068
 4600SOL    HW115251   3.915   4.151   6.753 -1.0573 -0.3103  0.5367
 4600SOL    HW215252   3.942   4.078   6.883  2.3569  0.3533  0.2903
 4601SOL     OW15253   2.577   2.430   5.977 -0.5854  0.4963 -0.2427
 4601SOL    HW115254   2.627   2.481   6.040  0.9978 -1.0699 -0.1434
 4601SOL    HW215255   2.601   2.467   5.892 -1.8323  1.8622 -0.0292
 4602SOL     OW15256   1.843   9.227   5.472  0.5758 -0.3194  0.8370
 4602SOL    HW115257   1.922   9.189   5.509  0.7243  0.0273  0.8784
 4602SOL    HW215258   1.772   9.177   5.512  0.7972 -1.2613  0.0804
 4603SOL     OW15259   0.294   5.123   2.614 -0.5228 -0.5839 -0.0195
 4603SOL    HW115260   0.237   5.051   2.640  0.1016 -0.6027  1.3671
 4603SOL    HW215261   0.383   5.090   2.630 -0.2329  0.5220  0.7464
 4604SOL     OW15262   4.478   2.318   5.420 -0.1832 -1.0157  0.2779
 4604SOL    HW115263   4.533   2.240   5.433  0.4774 -0.4847  0.7240
 4604SOL    HW215264   4.406   2.307   5.482  0.3078 -0.9172  0.8778
 4605SOL     OW15265   3.521   8.783   8.471 -0.2626  0.0760 -0.1145
 4605SOL    HW115266   3.561   8.708   8.428 -0.2566 -0.6663  1.1553
 4605SOL    HW215267   3.543   8.858   8.414 -1.1816 -0.9969 -1.9817
 4606SOL     OW15268   2.469   7.019   1.985  0.1402  0.2145 -0.2777
 4606SOL    HW115269   2.460   7.110   2.012  1.7386  0.0570  0.9267
 4606SOL    HW215270   2.386   6.978   2.012 -0.5752  1.2806 -0.7975
 4607SOL     OW15271   2.872   8.209   4.375  0.8133  0.1432  0.2255
 4607SOL    HW115272   2.966   8.223   4.358  0.9072 -0.1016  0.5366
 4607SOL    HW215273   2.865   8.206   4.470  0.5923 -0.5521  0.1876
 4608SOL     OW15274   8.048   3.121   0.637 -0.4789  0.0723  0.5125
 4608SOL    HW115275   8.104   3.191   0.603 -0.6595  0.6893  1.4717
 4608SOL    HW215276   8.092   3.041   0.611 -0.3568  0.5201 -0.7600
 4609SOL     OW15277   4.260   4.129   8.905  0.2982  0.0469  0.0052
 4609SOL    HW115278   4.346   4.131   8.864 -0.9621 -0.6819 -2.9035
 4609SOL    HW215279   4.268   4.063   8.974  1.8205 -0.6673 -0.8176
 4610SOL     OW15280   7.830   2.167   0.843  0.3448 -0.0604  0.0741
 4610SOL    HW115281   7.797   2.195   0.929 -1.5863 -1.0379 -0.2776
 4610SOL    HW215282   7.803   2.237   0.783 -0.0204 -0.2772 -0.0194
 4611SOL     OW15283   8.963   1.043   8.693  0.2414  0.5509  1.0461
 4611SOL    HW115284   8.988   0.968   8.638 -0.7378  0.0994  1.1960
 4611SOL    HW215285   8.891   1.085   8.645  1.1568  1.7553  0.6792
 4612SOL     OW15286   7.180   6.087   1.953 -0.1087 -0.5303  0.0839
 4612SOL    HW115287   7.242   6.153   1.922  0.7350 -1.3555  0.0004
 4612SOL    HW215288   7.233   6.010   1.971 -0.7599 -0.5849  2.1213
 4613SOL     OW15289   9.113   1.278   6.406 -0.7194 -0.0912  0.1290
 4613SOL    HW115290   9.084   1.369   6.407  1.8590  0.8116 -0.7152
 4613SOL    HW215291   9.181   1.275   6.339 -0.4252 -2.5634  0.4497
 4614SOL     OW15292   1.656   0.738   6.141  0.4501 -0.1395 -0.5534
 4614SOL    HW115293   1.689   0.755   6.229  0.5298  0.2651 -0.6587
 4614SOL    HW215294   1.704   0.800   6.085  0.9265 -0.8783 -0.9874
 4615SOL     OW15295   3.361   7.697   0.524  0.5442  0.1143 -0.0368
 4615SOL    HW115296   3.268   7.685   0.544  0.4532  0.4618 -0.2521
 4615SOL    HW215297   3.385   7.619   0.474 -0.2704  1.1473 -2.2083
 4616SOL     OW15298   3.023   7.704   1.331  0.3504  1.0551 -0.3808
 4616SOL    HW115299   2.938   7.663   1.346  0.5711  0.3999 -0.8948
 4616SOL    HW215300   3.014   7.792   1.369  0.2811  0.1439  1.8912
 4617SOL     OW15301   8.589   3.785   0.212 -0.2294 -0.2180 -0.1455
 4617SOL    HW115302   8.632   3.868   0.232  4.1224 -2.2109  0.0488
 4617SOL    HW215303   8.576   3.744   0.297  0.5602 -0.9315 -0.3498
 4618SOL     OW15304   9.064   5.862   1.039  0.4094  0.4444 -0.0272
 4618SOL    HW115305   8.982   5.844   1.086  1.1561 -1.6004  0.5830
 4618SOL    HW215306   9.057   5.814   0.957  1.1055  0.0243  0.1498
 4619SOL     OW15307   2.780   6.993   4.563  1.0873  0.0344  0.0224
 4619SOL    HW115308   2.697   7.039   4.558  0.2911 -1.1540  1.5778
 4619SOL    HW215309   2.835   7.036   4.497 -0.9229  0.4279 -1.4818
 4620SOL     OW15310   4.139   1.037   5.312  0.0861  0.4095 -0.0234
 4620SOL    HW115311   4.204   0.996   5.255  0.4604 -0.0378  0.7177
 4620SOL    HW215312   4.189   1.103   5.361 -0.0132  0.0458  0.5679
 4621SOL     OW15313   1.368   3.698   9.197  0.4528  0.0359 -0.4484
 4621SOL    HW115314   1.365   3.778   9.249 -1.0344 -0.8579  0.9329
 4621SOL    HW215315   1.339   3.629   9.257  2.2625 -1.6633 -1.4152
 4622SOL     OW15316   8.118   7.795   2.386 -0.0455  0.4791 -0.5252
 4622SOL    HW115317   8.034   7.749   2.391  0.6581 -0.7772  0.3454
 4622SOL    HW215318   8.154   7.771   2.300 -1.2695  2.3389 -1.6083
 4623SOL     OW15319   0.957   1.000   6.149 -0.1239 -0.4635  0.0059
 4623SOL    HW115320   1.002   1.006   6.064 -1.0758  0.8371 -0.4369
 4623SOL    HW215321   0.954   1.090   6.181 -3.8104 -0.1726 -0.7608
 4624SOL     OW15322   5.278   3.194   3.220 -0.5461 -0.4829  0.0767
 4624SOL    HW115323   5.368   3.167   3.239 -1.0981 -1.3681  1.5931
 4624SOL    HW215324   5.279   3.290   3.228 -0.3539 -0.6357  3.3041
 4625SOL     OW15325   3.766   0.719   3.736  0.1829 -0.4428 -0.1039
 4625SOL    HW115326   3.829   0.761   3.678  1.2809 -1.1609  0.5227
 4625SOL    HW215327   3.689   0.705   3.681  0.6297  0.2951 -0.9464
 4626SOL     OW15328   1.399   5.319   2.329  0.0848 -0.0916 -0.1929
 4626SOL    HW115329   1.465   5.386   2.345 -1.4001  0.9889  2.1050
 4626SOL    HW215330   1.341   5.357   2.263 -0.7883  1.0250  1.1482
 4627SOL     OW15331   2.466   5.359   4.259 -0.4838 -0.1476  0.1664
 4627SOL    HW115332   2.414   5.421   4.208  0.5223  0.7447  0.1827
 4627SOL    HW215333   2.461   5.391   4.349  0.2329  0.0779  0.1387
 4628SOL     OW15334   8.521   2.033   1.462  0.1139 -0.3803  0.0960
 4628SOL    HW115335   8.461   2.085   1.409  0.1308  1.7801  2.0754
 4628SOL    HW215336   8.608   2.057   1.431  0.1593  1.4868  1.5279
 4629SOL     OW15337   6.232   2.207   2.782  0.5244  0.1770  0.4876
 4629SOL    HW115338   6.243   2.129   2.728  1.0149 -0.5792  1.6502
 4629SOL    HW215339   6.139   2.227   2.777  0.3581 -0.6047  0.3475
 4630SOL     OW15340   4.162   8.323   5.273  0.2861 -0.1856 -0.5180
 4630SOL    HW115341   4.209   8.335   5.356 -0.4780  2.4303 -0.3769
 4630SOL    HW215342   4.231   8.307   5.209  1.0235 -0.6094  0.3603
 4631SOL     OW15343   2.054   3.187   1.520  0.1169  0.3324  0.1732
 4631SOL    HW115344   1.996   3.235   1.460  1.4821  1.4053 -0.3544
 4631SOL    HW215345   2.097   3.121   1.464 -0.7948 -0.6666  0.6255
 4632SOL     OW15346   5.063   1.612   8.753 -0.2707 -0.1114  0.2617
 4632SOL    HW115347   5.140   1.601   8.810  1.1885 -0.7237 -1.6937
 4632SOL    HW215348   5.033   1.701   8.771  0.6443  0.0091  1.3776
 4633SOL     OW15349   9.025   3.370   9.169  0.7051  0.1496 -0.2725
 4633SOL    HW115350   9.031   3.325   9.085  1.3984  0.5268 -0.4304
 4633SOL    HW215351   8.959   3.321   9.218 -0.1185  0.2590 -1.2412
 4634SOL     OW15352   1.393   4.154   6.284  0.0227 -0.6742 -0.5330
 4634SOL    HW115353   1.480   4.117   6.277  0.3449  0.2236 -1.5179
 4634SOL    HW215354   1.355   4.145   6.197 -0.3343  0.1972 -0.4806
 4635SOL     OW15355   5.564   5.466   7.089  0.3750  0.5603  0.4014
 4635SOL    HW115356   5.645   5.500   7.053  1.3089  0.5378  2.3523
 4635SOL    HW215357   5.520   5.543   7.126  0.3892  0.3233  0.9286
 4636SOL     OW15358   2.830   7.920   2.854 -0.2759  0.5429  0.1313
 4636SOL    HW115359   2.801   7.905   2.944 -1.1255 -1.2512 -0.4019
 4636SOL    HW215360   2.899   7.855   2.839 -2.4150 -1.4949 -1.5146
 4637SOL     OW15361   9.146   2.430   0.123  0.9106 -0.3718 -0.4436
 4637SOL    HW115362   9.121   2.519   0.149  0.1470 -0.4852 -0.7517
 4637SOL    HW215363   9.240   2.426   0.140  0.7958  0.1937  0.4408
 4638SOL     OW15364   8.511   5.043   4.037 -0.3183  0.0178 -0.3010
 4638SOL    HW115365   8.455   5.063   3.962  1.8851  2.3176 -1.4933
 4638SOL    HW215366   8.581   4.987   4.001 -0.3370 -0.5807  0.5417
 4639SOL     OW15367   2.791   6.807   3.216  0.2607  0.0042  0.1006
 4639SOL    HW115368   2.727   6.834   3.282  0.5152 -1.3146  0.9366
 4639SOL    HW215369   2.783   6.712   3.212  0.9404 -0.0314 -1.0791
 4640SOL     OW15370   0.652   0.860   0.497 -0.4301 -0.1363 -0.3476
 4640SOL    HW115371   0.678   0.911   0.420 -0.8025 -0.0911 -0.4414
 4640SOL    HW215372   0.730   0.862   0.553 -0.0294 -0.4788 -0.8804
 4641SOL     OW15373   2.134   8.953   7.044  0.2641 -0.0783 -0.2064
 4641SOL    HW115374   2.146   8.863   7.013  2.9948  0.1996 -0.2158
 4641SOL    HW215375   2.104   8.943   7.134  0.2713 -0.9996 -0.2912
 4642SOL     OW15376   8.442   2.417   7.080 -0.0786 -0.6263 -0.3070
 4642SOL    HW115377   8.378   2.449   7.016  1.0735  0.3198 -1.0269
 4642SOL    HW215378   8.527   2.444   7.044  0.8079 -2.5802  0.1920
 4643SOL     OW15379   6.710   7.513   4.782 -0.1861  0.3439  0.1125
 4643SOL    HW115380   6.767   7.590   4.789  1.4259 -0.7685 -0.4184
 4643SOL    HW215381   6.717   7.486   4.691  0.7572 -1.5142  0.6891
 4644SOL     OW15382   2.497   6.129   4.454 -0.1928  0.4627  0.5842
 4644SOL    HW115383   2.560   6.192   4.489  0.1349 -0.0097  0.8682
 4644SOL    HW215384   2.532   6.105   4.368  1.0996 -1.2508  1.5196
 4645SOL     OW15385   9.265   2.524   2.387  0.8276  0.8491  0.1643
 4645SOL    HW115386   9.172   2.522   2.409  1.1240  1.0971  1.5746
 4645SOL    HW215387   9.288   2.433   2.370  0.5858  0.6065  1.0620
 4646SOL     OW15388   3.123   3.448   5.517  0.0803  0.3781 -0.6821
 4646SOL    HW115389   3.217   3.454   5.502 -0.0154  0.6198 -1.1819
 4646SOL    HW215390   3.086   3.422   5.433 -0.0661 -2.1151  0.0561
 4647SOL     OW15391   5.481   0.124   0.898  0.0668  0.8248 -0.2957
 4647SOL    HW115392   5.405   0.095   0.848  0.7071  0.5294 -1.1244
 4647SOL    HW215393   5.486   0.218   0.883  0.2858  0.7321 -0.8619
 4648SOL     OW15394   8.397   7.542   3.975 -0.1660  0.2468 -0.2493
 4648SOL    HW115395   8.359   7.629   3.990  0.8308  0.6573 -0.0188
 4648SOL    HW215396   8.401   7.502   4.062  2.8383  1.4678  0.3316
 4649SOL     OW15397   3.252   5.384   6.586  0.1000  0.7744 -0.0672
 4649SOL    HW115398   3.288   5.472   6.588 -0.3595  0.9899  2.3893
 4649SOL    HW215399   3.306   5.335   6.648 -0.4476 -0.3331 -0.4340
 4650SOL     OW15400   3.129   8.886   4.139 -0.1054 -0.4220 -0.0239
 4650SOL    HW115401   3.183   8.811   4.116  0.2410  0.2917 -1.7099
 4650SOL    HW215402   3.050   8.877   4.085 -0.0654  0.4105 -0.2377
 4651SOL     OW15403   3.825   9.117   4.520 -0.5643  0.0604  0.1709
 4651SOL    HW115404   3.798   9.185   4.457  1.3859  0.1833 -0.6195
 4651SOL    HW215405   3.781   9.038   4.490 -2.4053  0.8250  0.7508
 4652SOL     OW15406   6.934   1.055   3.181  0.0492 -0.2085 -0.3933
 4652SOL    HW115407   6.880   1.129   3.151 -0.0840  0.0494  0.4471
 4652SOL    HW215408   6.904   0.981   3.128 -1.3451 -0.1303  0.2406
 4653SOL     OW15409   7.103   0.972   2.401  0.0648  0.1090  0.2656
 4653SOL    HW115410   7.042   1.001   2.469 -1.0301  0.9295 -0.9919
 4653SOL    HW215411   7.116   1.050   2.346  1.2266 -0.4131 -0.2370
 4654SOL     OW15412   8.925   6.286   7.406 -0.6332 -0.0925  0.4016
 4654SOL    HW115413   8.902   6.379   7.415 -0.3777 -0.0620  0.7758
 4654SOL    HW215414   8.941   6.274   7.313  1.5233  0.7644  0.6161
 4655SOL     OW15415   0.234   3.258   4.176  0.1001 -0.3739 -0.6839
 4655SOL    HW115416   0.297   3.244   4.247 -0.1123 -1.0268 -0.6095
 4655SOL    HW215417   0.197   3.345   4.192  0.5832 -0.2177 -0.4157
 4656SOL     OW15418   8.945   3.544   4.009 -0.1424  0.7919  0.6279
 4656SOL    HW115419   8.967   3.636   3.995  0.8096  0.4530 -0.2384
 4656SOL    HW215420   8.858   3.535   3.970  1.2319  0.5631 -2.7214
 4657SOL     OW15421   0.049   2.488   7.343 -0.3860  0.0672 -0.1801
 4657SOL    HW115422   0.055   2.505   7.249  0.3963  1.6481  0.1034
 4657SOL    HW215423  -0.009   2.413   7.351  0.7987 -1.1161 -2.0113
 4658SOL     OW15424   7.359   4.512   6.446  0.0955 -0.6023  0.3091
 4658SOL    HW115425   7.300   4.587   6.459 -0.7330 -1.2668  0.5422
 4658SOL    HW215426   7.411   4.536   6.370  1.0238  0.9238  1.3644
 4659SOL     OW15427   1.210   4.438   8.817 -0.3391 -0.2916 -0.4305
 4659SOL    HW115428   1.288   4.494   8.813 -1.1026  0.8733  0.6462
 4659SOL    HW215429   1.140   4.491   8.780 -0.9429 -0.7883 -0.0092
 4660SOL     OW15430   2.265   1.443   1.853  0.1146  0.9535 -0.1624
 4660SOL    HW115431   2.176   1.465   1.828 -0.3755 -0.5333  0.1814
 4660SOL    HW215432   2.256   1.392   1.934  1.1527 -0.2948 -0.7910
 4661SOL     OW15433   3.668   2.797   5.162  0.1728 -0.2742 -0.0238
 4661SOL    HW115434   3.605   2.869   5.170 -0.9882 -1.3469  0.7326
 4661SOL    HW215435   3.752   2.837   5.187 -0.8954  0.1685  3.4285
 4662SOL     OW15436   6.628   6.858   3.245  0.1708 -0.0844 -0.1181
 4662SOL    HW115437   6.596   6.945   3.271  0.8869  0.4151 -0.8611
 4662SOL    HW215438   6.700   6.840   3.306  1.4494  0.8192 -1.2978
 4663SOL     OW15439   6.046   8.563   3.768  0.0512  0.2954 -0.0565
 4663SOL    HW115440   6.083   8.512   3.695  1.4893 -1.2136  1.6321
 4663SOL    HW215441   6.113   8.629   3.787  0.0332  0.1921  0.3711
 4664SOL     OW15442   8.092   3.153   8.247 -0.4225 -0.2969 -0.1419
 4664SOL    HW115443   8.081   3.202   8.166 -0.4045  1.8516  1.0628
 4664SOL    HW215444   8.027   3.083   8.242 -2.1913  1.2972 -0.9604
 4665SOL     OW15445   7.044   3.578   0.096 -0.0980 -0.6220  0.4673
 4665SOL    HW115446   7.050   3.673   0.086 -1.1368 -0.5493  0.3780
 4665SOL    HW215447   7.035   3.545   0.007  2.7997 -1.0592  0.2574
 4666SOL     OW15448   8.307   6.117   1.729 -0.2175  0.3642  0.2033
 4666SOL    HW115449   8.309   6.023   1.748 -1.1655  0.0038 -1.3863
 4666SOL    HW215450   8.219   6.145   1.756  0.2219  0.9241  1.1201
 4667SOL     OW15451   5.701   4.044   1.689  0.0376  0.3943  0.1193
 4667SOL    HW115452   5.637   3.990   1.735  2.0549 -1.9752  0.3178
 4667SOL    HW215453   5.669   4.049   1.599 -1.3160  0.8104  0.5967
 4668SOL     OW15454   6.108   5.573   7.658 -0.0926 -0.2359 -0.0397
 4668SOL    HW115455   6.146   5.580   7.746 -2.3063 -2.4222  1.1999
 4668SOL    HW215456   6.036   5.636   7.658 -0.3002 -0.4713 -0.1558
 4669SOL     OW15457   7.436   3.187   5.890  0.0224 -0.8464 -0.0053
 4669SOL    HW115458   7.421   3.093   5.898 -0.9459 -0.6777  0.2378
 4669SOL    HW215459   7.349   3.226   5.886  0.3939  0.1468  1.0131
 4670SOL     OW15460   4.246   7.324   3.012  0.1109  0.3616  0.0129
 4670SOL    HW115461   4.227   7.406   2.967 -2.6169 -0.1886 -0.0510
 4670SOL    HW215462   4.320   7.344   3.069  0.5439  2.3952 -1.1624
 4671SOL     OW15463   1.001   8.750   2.565 -0.4894 -0.8734  0.0951
 4671SOL    HW115464   0.968   8.707   2.485  0.7548  1.6217 -1.9076
 4671SOL    HW215465   1.095   8.736   2.562 -0.3797 -0.3041  0.8626
 4672SOL     OW15466   0.490   0.631   5.331  0.0934 -0.1777  0.0113
 4672SOL    HW115467   0.567   0.686   5.340  0.5166 -0.5115 -1.3411
 4672SOL    HW215468   0.482   0.615   5.237 -1.7916  0.0696  0.0920
 4673SOL     OW15469   5.925   0.018   8.263  0.6833 -0.1014  0.4169
 4673SOL    HW115470   5.834  -0.012   8.264  1.1430 -1.6128  1.5736
 4673SOL    HW215471   5.930   0.083   8.333  0.5731 -0.3353  0.6454
 4674SOL     OW15472   3.164   3.019   7.784 -0.6141 -0.8950  0.4024
 4674SOL    HW115473   3.157   3.111   7.807 -0.0613 -0.9986  1.0425
 4674SOL    HW215474   3.221   2.982   7.852  0.7213 -1.3164 -0.8914
 4675SOL     OW15475   5.970   4.111   1.389  0.1180  0.0540  0.5824
 4675SOL    HW115476   5.947   4.029   1.346  1.4058 -0.4091  0.7280
 4675SOL    HW215477   5.976   4.089   1.482 -1.4857  0.7844  0.8951
 4676SOL     OW15478   5.669   3.626   3.321  0.3650  0.4184  0.7836
 4676SOL    HW115479   5.744   3.639   3.380  1.3723 -0.4987 -0.2303
 4676SOL    HW215480   5.709   3.613   3.235 -1.1255  3.8119 -0.5853
 4677SOL     OW15481   1.681   2.242   7.468 -0.5469  0.3785  0.1699
 4677SOL    HW115482   1.618   2.237   7.540 -0.0673  1.8183  0.7360
 4677SOL    HW215483   1.766   2.238   7.511 -0.2413 -0.2806 -0.4726
 4678SOL     OW15484   6.293   0.298   8.183 -0.4104  0.3796  0.0638
 4678SOL    HW115485   6.197   0.308   8.184 -0.5760 -0.7236 -1.6886
 4678SOL    HW215486   6.309   0.224   8.242 -0.6419  0.4678  0.2413
 4679SOL     OW15487   4.739   2.074   2.368  0.0972  0.1407 -0.0857
 4679SOL    HW115488   4.679   2.140   2.401 -0.1372  0.1712 -0.5658
 4679SOL    HW215489   4.696   1.991   2.387  0.3215  0.1293  0.3800
 4680SOL     OW15490   4.398   6.935   8.544 -1.2236  0.2669  0.4140
 4680SOL    HW115491   4.333   7.006   8.548 -1.7865 -0.2839  1.5709
 4680SOL    HW215492   4.432   6.939   8.454 -1.3514  1.8891  0.4055
 4681SOL     OW15493   0.831   1.907   8.247 -0.5778  0.7082 -0.2422
 4681SOL    HW115494   0.852   1.930   8.338 -1.0314  0.9904 -0.2058
 4681SOL    HW215495   0.863   1.981   8.196 -1.2374  1.0212 -0.2113
 4682SOL     OW15496   1.417   2.223   1.567  0.5405 -0.1658  0.0863
 4682SOL    HW115497   1.457   2.188   1.647  1.1771 -1.2436 -0.6832
 4682SOL    HW215498   1.488   2.267   1.521  0.0958  0.7693  0.2688
 4683SOL     OW15499   7.242   4.868   6.700  0.1289  0.5231  0.2830
 4683SOL    HW115500   7.274   4.873   6.790 -0.0444  2.7614  0.2638
 4683SOL    HW215501   7.147   4.873   6.708  0.1552  2.0566 -0.0488
 4684SOL     OW15502   1.054   2.593   4.132  0.0119 -0.5134 -0.2857
 4684SOL    HW115503   1.108   2.636   4.199 -1.1893 -2.2788  1.9615
 4684SOL    HW215504   1.064   2.648   4.054  1.1938  1.8661  1.4262
 4685SOL     OW15505   1.145   2.852   2.741  0.3454 -0.1033 -0.1722
 4685SOL    HW115506   1.113   2.942   2.731 -1.2327 -0.3866  1.8120
 4685SOL    HW215507   1.105   2.821   2.822  2.5148 -1.9141  0.3021
 4686SOL     OW15508   5.743   4.982   7.805 -0.3826  0.0688 -0.5221
 4686SOL    HW115509   5.667   4.925   7.791  1.0908 -1.9976 -0.6267
 4686SOL    HW215510   5.818   4.922   7.808  1.1003  1.8378  1.1955
 4687SOL     OW15511   7.067   8.081   1.974  0.3497  0.6335 -0.1642
 4687SOL    HW115512   7.111   8.038   2.048 -0.9897  1.9298  1.4863
 4687SOL    HW215513   7.131   8.078   1.903  2.1058  0.2042  1.3388
 4688SOL     OW15514   8.402   3.611   5.400  0.0076 -0.5814  0.2466
 4688SOL    HW115515   8.380   3.539   5.458 -1.6250  0.4270  0.9551
 4688SOL    HW215516   8.327   3.618   5.341  1.4981 -1.3789 -1.8213
 4689SOL     OW15517   0.813   5.199   8.967 -0.2605 -0.0280  0.2633
 4689SOL    HW115518   0.728   5.158   8.983 -0.2212 -0.5339 -0.7525
 4689SOL    HW215519   0.842   5.229   9.053 -0.1924 -2.3180  1.0930
 4690SOL     OW15520   5.948   8.614   5.828  0.3481  0.2335 -0.1002
 4690SOL    HW115521   5.896   8.692   5.811  0.2703  0.4294  0.9682
 4690SOL    HW215522   6.033   8.648   5.856  1.1844 -0.0790 -2.0939
 4691SOL     OW15523   2.472   4.029   7.104  1.0050  0.1400  0.0111
 4691SOL    HW115524   2.393   4.080   7.123  0.6442 -0.9529  1.7204
 4691SOL    HW215525   2.462   4.003   7.012 -0.1898  0.7617 -0.0612
 4692SOL     OW15526   3.735   3.477   7.059  0.6480 -0.0083  0.0417
 4692SOL    HW115527   3.671   3.543   7.087  1.0152  0.9007 -1.1956
 4692SOL    HW215528   3.701   3.395   7.095 -1.1895  0.4448 -0.5177
 4693SOL     OW15529   4.283   0.060   7.167 -0.1698  0.3434  0.0511
 4693SOL    HW115530   4.258   0.153   7.159  0.4241  0.4914 -0.1371
 4693SOL    HW215531   4.261   0.022   7.082 -2.3628 -0.1870  0.7880
 4694SOL     OW15532   4.886   5.349   9.121 -0.0593  0.0214 -0.0083
 4694SOL    HW115533   4.914   5.426   9.071  0.3553  0.9345  1.5816
 4694SOL    HW215534   4.968   5.308   9.151 -0.2093 -1.7539 -1.7753
 4695SOL     OW15535   4.659   0.933   6.244 -0.2389 -0.2595 -0.3128
 4695SOL    HW115536   4.676   0.932   6.338 -1.4220 -0.4079 -0.0905
 4695SOL    HW215537   4.580   0.986   6.234  0.0729  0.0499 -1.2617
 4696SOL     OW15538   3.519   7.523   7.858  0.3428 -0.2977  0.2782
 4696SOL    HW115539   3.450   7.474   7.815 -0.4237  0.8010  0.2129
 4696SOL    HW215540   3.545   7.590   7.794  1.0938 -0.3716  0.4977
 4697SOL     OW15541   2.839   6.080   3.702  0.0673  0.1903  0.2267
 4697SOL    HW115542   2.907   6.131   3.745  1.0992 -1.8605  1.1346
 4697SOL    HW215543   2.885   6.007   3.661 -1.4900 -0.7566  0.0887
 4698SOL     OW15544   5.446   9.178   4.756 -0.0713 -0.4773  0.3794
 4698SOL    HW115545   5.522   9.135   4.797  1.9980  0.4525 -2.1717
 4698SOL    HW215546   5.471   9.186   4.664 -2.4870  1.7072 -0.1776
 4699SOL     OW15547   1.768   7.686   6.832  0.1809  0.2781 -0.0006
 4699SOL    HW115548   1.684   7.642   6.822  1.1349 -1.6992  0.2156
 4699SOL    HW215549   1.777   7.739   6.752 -0.3129 -1.1759 -1.0601
 4700SOL     OW15550   3.699   4.189   6.111  0.0852  0.1298  0.1142
 4700SOL    HW115551   3.690   4.172   6.205 -0.7389 -0.5515 -0.0806
 4700SOL    HW215552   3.610   4.189   6.078  0.4163 -0.3166 -0.7929
 4701SOL     OW15553   3.021   5.063   8.244 -0.6715  0.1776  0.5368
 4701SOL    HW115554   3.056   5.116   8.316 -0.4419  0.5046  0.1828
 4701SOL    HW215555   2.986   5.126   8.181 -1.0525 -0.1163  0.4485
 4702SOL     OW15556   1.002   4.471   2.949  0.1097 -0.4453  0.3948
 4702SOL    HW115557   1.007   4.420   2.868 -2.0555  1.6489 -1.1909
 4702SOL    HW215558   0.909   4.488   2.960  0.6588  2.4356  1.2487
 4703SOL     OW15559   3.179   4.762   6.110 -0.0281  0.4267 -0.3537
 4703SOL    HW115560   3.248   4.716   6.158 -2.2754 -0.1484  2.6188
 4703SOL    HW215561   3.120   4.693   6.081 -1.0590  1.0721  0.1260
 4704SOL     OW15562   2.458   8.688   6.318  0.3074 -0.2298  0.3469
 4704SOL    HW115563   2.498   8.732   6.243 -1.9760 -1.0044 -1.4585
 4704SOL    HW215564   2.392   8.629   6.279 -3.3608  1.7050  2.9976
 4705SOL     OW15565   2.229   6.420   6.356 -0.7364 -0.8498  0.0633
 4705SOL    HW115566   2.162   6.467   6.405 -2.2256 -1.3272 -1.4070
 4705SOL    HW215567   2.180   6.373   6.287  1.2096 -0.0369 -2.0098
 4706SOL     OW15568   8.232   7.978   5.306 -0.5647  0.1126  0.0952
 4706SOL    HW115569   8.202   8.040   5.372 -1.2801 -0.2999  0.1608
 4706SOL    HW215570   8.161   7.915   5.298 -0.0346 -0.4454 -0.2977
 4707SOL     OW15571   6.012   0.725   0.360 -0.7133  0.2483  0.3987
 4707SOL    HW115572   5.983   0.658   0.422 -0.6788  1.1235  1.4079
 4707SOL    HW215573   6.058   0.790   0.415  2.0733 -0.4371 -0.9258
 4708SOL     OW15574   6.440   7.052   3.372  0.0406 -0.6412 -0.5482
 4708SOL    HW115575   6.368   7.011   3.420  0.5483 -1.5424 -0.5393
 4708SOL    HW215576   6.507   7.067   3.439 -0.5188  1.1932 -0.3322
 4709SOL     OW15577   1.881   6.770   5.848 -0.0251  0.6246  0.1529
 4709SOL    HW115578   1.853   6.694   5.796  0.0265  0.3816  0.4769
 4709SOL    HW215579   1.886   6.737   5.937  2.3789  0.3226 -0.0082
 4710SOL     OW15580   7.180   6.646   5.907  0.0654  0.1914  0.0770
 4710SOL    HW115581   7.097   6.690   5.889 -0.9911 -2.1376 -1.2518
 4710SOL    HW215582   7.189   6.582   5.836  2.8590  0.1284  0.3787
 4711SOL     OW15583   6.685   5.920   4.950 -0.6719  0.6962  0.4763
 4711SOL    HW115584   6.598   5.900   4.984 -0.1174 -1.5033  0.7778
 4711SOL    HW215585   6.739   5.845   4.978  0.7950  0.9241 -1.5578
 4712SOL     OW15586   8.022   8.453   3.974 -0.1851 -0.0195  0.3804
 4712SOL    HW115587   7.948   8.510   3.997  0.1246  0.6928 -0.3255
 4712SOL    HW215588   8.044   8.478   3.884  0.2432 -0.9606  0.2082
 4713SOL     OW15589   7.937   6.490   2.857  0.1221  0.1974 -0.2055
 4713SOL    HW115590   7.948   6.559   2.922  1.0735  0.0673 -0.2102
 4713SOL    HW215591   7.857   6.444   2.884 -0.4896  1.2579 -0.1764
 4714SOL     OW15592   1.759   0.644   1.027 -0.1055  0.0045  0.5304
 4714SOL    HW115593   1.698   0.622   0.957  0.4227  1.2418 -0.3481
 4714SOL    HW215594   1.721   0.721   1.069 -0.2213 -0.4972  1.3625
 4715SOL     OW15595   0.772   1.202   4.446 -0.3186  0.1220  0.3772
 4715SOL    HW115596   0.760   1.163   4.359  2.5939 -1.3577  0.5173
 4715SOL    HW215597   0.866   1.217   4.453 -0.0891 -1.7393  4.0029
 4716SOL     OW15598   0.334   6.845   4.948  0.0177  0.3104  0.4678
 4716SOL    HW115599   0.307   6.756   4.924  0.1517 -0.3611  2.6261
 4716SOL    HW215600   0.428   6.838   4.964 -0.4275  0.0434  3.5979
 4717SOL     OW15601   0.596   2.313   7.421  0.3445  0.0338  0.2527
 4717SOL    HW115602   0.674   2.348   7.465 -0.1451  1.7732 -0.1792
 4717SOL    HW215603   0.620   2.223   7.397  2.4464  0.6964 -0.3501
 4718SOL     OW15604   2.227   9.181   3.413 -0.1817  0.7537 -0.3348
 4718SOL    HW115605   2.265   9.131   3.340 -1.4819 -1.0210  0.1360
 4718SOL    HW215606   2.292   9.249   3.431  1.9221 -0.9965 -0.7539
 4719SOL     OW15607   5.422   2.937   8.455  0.3661 -0.5626  0.2709
 4719SOL    HW115608   5.466   2.984   8.384 -1.9729  1.4891  0.0246
 4719SOL    HW215609   5.493   2.899   8.507  2.2697  0.4799 -1.4233
 4720SOL     OW15610   2.768   0.109   0.120 -0.1447 -0.0193  0.0238
 4720SOL    HW115611   2.760   0.085   0.027  0.7710  1.4644 -0.4616
 4720SOL    HW215612   2.700   0.176   0.133  0.3204  0.4265  0.1822
 4721SOL     OW15613   8.060   4.672   5.548  0.2602  0.2818  0.3990
 4721SOL    HW115614   8.112   4.638   5.475 -0.2423  0.0633  0.1407
 4721SOL    HW215615   8.067   4.767   5.539 -1.2172  0.2966 -0.9872
 4722SOL     OW15616   3.814   1.945   2.575 -0.1253  0.2005  0.1472
 4722SOL    HW115617   3.741   1.926   2.515 -1.0939  1.6894  0.8032
 4722SOL    HW215618   3.887   1.895   2.540 -1.7901 -2.5306  0.2543
 4723SOL     OW15619   9.082   6.940   7.272  0.1203  0.4745  0.1472
 4723SOL    HW115620   9.144   6.962   7.202 -1.0509  2.3778 -0.3747
 4723SOL    HW215621   9.105   7.000   7.343  0.6619 -0.7608  1.0293
 4724SOL     OW15622   2.253   7.298   8.389  0.0094  0.2909 -0.1774
 4724SOL    HW115623   2.340   7.281   8.424 -0.6052  1.3060  2.0345
 4724SOL    HW215624   2.216   7.211   8.372  0.2805 -0.3049  2.0049
 4725SOL     OW15625   1.450   7.680   5.403  0.3561  0.5905 -0.0828
 4725SOL    HW115626   1.512   7.692   5.475  0.5071  0.2310 -0.1489
 4725SOL    HW215627   1.364   7.700   5.441  0.2560 -0.9902  0.6070
 4726SOL     OW15628   6.061   4.464   5.080 -0.1231 -0.3443 -0.3112
 4726SOL    HW115629   6.011   4.460   4.998 -1.3512  0.8221  0.3483
 4726SOL    HW215630   6.004   4.511   5.141  0.3919 -1.9393  1.4944
 4727SOL     OW15631   2.704   9.142   9.257  0.1806 -0.3915 -0.6318
 4727SOL    HW115632   2.736   9.052   9.253 -1.4667 -1.1587  1.3829
 4727SOL    HW215633   2.614   9.134   9.289  0.1770  1.9907  0.1729
 4728SOL     OW15634   2.166   5.204   7.270  0.2172 -0.2134 -0.1935
 4728SOL    HW115635   2.261   5.194   7.276  0.1553 -0.9120 -0.3001
 4728SOL    HW215636   2.152   5.299   7.270  0.7569 -0.0822  2.0783
 4729SOL     OW15637   3.175   8.660   4.794 -0.4356 -0.3627  0.2993
 4729SOL    HW115638   3.238   8.621   4.855 -0.9500 -1.6859  0.0135
 4729SOL    HW215639   3.115   8.589   4.773 -0.6171  0.2342 -1.3011
 4730SOL     OW15640   8.253   2.014   8.674 -0.0785 -0.2096  0.5097
 4730SOL    HW115641   8.338   2.052   8.696 -0.0182  0.6427 -1.0951
 4730SOL    HW215642   8.189   2.077   8.708 -0.0651 -0.4500  0.9916
 4731SOL     OW15643   1.804   1.229   1.196 -0.3529  0.3491  0.0236
 4731SOL    HW115644   1.800   1.271   1.281 -2.3490  1.3469 -0.5036
 4731SOL    HW215645   1.722   1.252   1.153  0.9917  0.7404 -2.5792
 4732SOL     OW15646   1.187   5.585   5.302 -0.1582 -0.1475  0.0546
 4732SOL    HW115647   1.112   5.554   5.352  0.2882 -0.6060  0.4482
 4732SOL    HW215648   1.195   5.678   5.326  0.0307 -0.3534  0.8207
 4733SOL     OW15649   1.412   9.153   5.169  0.1040  0.0094 -0.0125
 4733SOL    HW115650   1.411   9.142   5.264 -1.5878 -3.8137 -0.3102
 4733SOL    HW215651   1.319   9.153   5.144  0.5475 -1.0382 -1.8124
 4734SOL     OW15652   8.588   3.916   3.373  0.4316 -0.5100  0.0528
 4734SOL    HW115653   8.540   3.895   3.453  2.3603 -2.3720  0.8036
 4734SOL    HW215654   8.641   3.993   3.396  0.6336 -0.7574  0.4171
 4735SOL     OW15655   1.578   2.400   6.401 -0.5080  0.1465 -0.2653
 4735SOL    HW115656   1.526   2.466   6.355 -1.3332 -0.6819 -0.5474
 4735SOL    HW215657   1.518   2.363   6.465 -0.0124 -0.2555 -0.0268
 4736SOL     OW15658   4.259   6.359   4.131 -0.0456 -0.0941 -0.1458
 4736SOL    HW115659   4.199   6.385   4.201 -0.8171 -1.1221 -0.4097
 4736SOL    HW215660   4.223   6.399   4.052 -0.2170 -0.4643 -0.2558
 4737SOL     OW15661   7.474   5.248   0.141  0.2817  0.0547 -0.3180
 4737SOL    HW115662   7.399   5.307   0.150  0.0077 -0.2273 -0.6839
 4737SOL    HW215663   7.514   5.247   0.228 -1.9048 -2.1032  0.7981
 4738SOL     OW15664   2.243   6.898   7.625 -0.3104  0.4778  0.1802
 4738SOL    HW115665   2.328   6.932   7.597 -0.1933  0.4426  0.4973
 4738SOL    HW215666   2.194   6.976   7.651 -1.8757  1.0914 -3.8266
 4739SOL     OW15667   3.489   8.877   3.209  0.1482  0.0247  0.0443
 4739SOL    HW115668   3.496   8.884   3.113  0.4477 -0.7901  0.0029
 4739SOL    HW215669   3.395   8.863   3.225 -0.2401  2.2402  0.0259
 4740SOL     OW15670   2.767   6.573   4.854 -0.6980  0.2534  0.2076
 4740SOL    HW115671   2.747   6.626   4.777 -2.1973 -0.0683  0.3526
 4740SOL    HW215672   2.829   6.507   4.822  0.2426  1.3315 -0.2453
 4741SOL     OW15673   6.806   4.322   6.499 -0.5670 -0.2552  0.0258
 4741SOL    HW115674   6.860   4.369   6.563  0.2145 -1.1446  0.0515
 4741SOL    HW215675   6.725   4.303   6.544 -0.8726  0.9908  0.0372
 4742SOL     OW15676   8.681   7.603   6.026  0.2420 -0.0601 -0.1591
 4742SOL    HW115677   8.761   7.551   6.031 -0.4165 -1.0430  0.5406
 4742SOL    HW215678   8.610   7.540   6.036 -0.6711  0.6850 -1.5004
 4743SOL     OW15679   7.018   7.760   8.645 -0.3593  0.3019 -0.6241
 4743SOL    HW115680   7.085   7.828   8.642  0.6474 -0.6651 -0.8735
 4743SOL    HW215681   7.042   7.707   8.721 -0.8279 -0.0740 -0.7375
 4744SOL     OW15682   6.668   6.498   0.120 -0.1457  0.2049 -0.2597
 4744SOL    HW115683   6.647   6.534   0.207 -1.2756  1.2829 -0.9452
 4744SOL    HW215684   6.635   6.563   0.059  2.0124  0.1947 -1.5139
 4745SOL     OW15685   1.694   3.965   8.548 -0.0035 -0.0531  0.2004
 4745SOL    HW115686   1.770   4.004   8.505 -0.0586 -0.8875 -0.6983
 4745SOL    HW215687   1.731   3.909   8.616  0.2757 -1.3375 -0.9658
 4746SOL     OW15688   4.747   6.212   6.575  0.2933 -0.6475  0.1758
 4746SOL    HW115689   4.653   6.209   6.560  0.4912 -2.2498 -1.0054
 4746SOL    HW215690   4.780   6.278   6.514 -0.0127 -0.2734  0.4077
 4747SOL     OW15691   4.265   0.053   6.227 -0.5863  0.1777  0.0545
 4747SOL    HW115692   4.278   0.095   6.142  0.5299 -0.6485 -0.2139
 4747SOL    HW215693   4.186   0.001   6.218  0.5118 -1.3786 -1.1237
 4748SOL     OW15694   4.390   9.200   5.758  0.0875  0.3944 -0.0144
 4748SOL    HW115695   4.407   9.160   5.673  1.2018  1.2215 -0.1883
 4748SOL    HW215696   4.337   9.135   5.805  0.5724 -0.6217 -0.8540
 4749SOL     OW15697   2.435   5.525   5.115  0.4079  0.0259  0.0217
 4749SOL    HW115698   2.406   5.455   5.174  1.0878 -0.0858  0.2360
 4749SOL    HW215699   2.392   5.505   5.032 -0.2759 -0.0211  0.3787
 4750SOL     OW15700   1.348   7.980   3.549  0.5120  0.1095  0.2416
 4750SOL    HW115701   1.341   7.900   3.497 -1.1378 -1.3108  2.4350
 4750SOL    HW215702   1.416   7.961   3.614  0.3000  0.5747  0.6089
 4751SOL     OW15703   5.881   5.056   6.737  0.1292  0.0393  0.1115
 4751SOL    HW115704   5.808   5.114   6.759 -1.1424 -0.3576 -2.6226
 4751SOL    HW215705   5.871   4.982   6.797 -0.9373  0.5971  0.6568
 4752SOL     OW15706   1.707   2.844   4.416  0.0372  0.2792 -0.3646
 4752SOL    HW115707   1.763   2.886   4.350 -0.7870  0.6797 -0.8322
 4752SOL    HW215708   1.760   2.843   4.496  0.4926  1.1694 -0.6443
 4753SOL     OW15709   8.992   2.147   2.857  0.3699 -0.3409  0.0616
 4753SOL    HW115710   8.932   2.089   2.904 -0.3163  0.5001  0.2397
 4753SOL    HW215711   8.951   2.160   2.772  1.7861 -2.1491 -0.9764
 4754SOL     OW15712   0.976   0.886   5.487  0.7368  0.2513 -0.2784
 4754SOL    HW115713   1.065   0.915   5.507  1.5635 -3.0565  1.5698
 4754SOL    HW215714   0.988   0.814   5.425 -0.6062 -0.5312  0.3294
 4755SOL     OW15715   1.728   6.180   7.590  0.1016  0.1380  0.4536
 4755SOL    HW115716   1.651   6.172   7.534  1.3813 -0.5711 -1.3065
 4755SOL    HW215717   1.734   6.274   7.608 -0.5156  0.3528 -0.3728
 4756SOL     OW15718   5.041   4.455   0.512  0.0749 -0.4498 -0.2816
 4756SOL    HW115719   5.019   4.395   0.440 -0.0670 -1.5984  0.7010
 4756SOL    HW215720   5.125   4.493   0.486  0.3863 -1.3962 -0.7251
 4757SOL     OW15721   0.848   6.103   5.290 -0.8277 -0.6309 -0.4755
 4757SOL    HW115722   0.881   6.157   5.218 -0.5846  0.0776  0.1545
 4757SOL    HW215723   0.763   6.072   5.259 -0.1804 -1.3831 -1.5685
 4758SOL     OW15724   9.099   7.754   2.728 -0.3351 -0.3354  0.3120
 4758SOL    HW115725   9.016   7.788   2.763  0.1065  0.3666  0.7003
 4758SOL    HW215726   9.075   7.713   2.645 -0.6524  2.4917 -1.1114
 4759SOL     OW15727   7.550   7.129   8.826 -0.6739  0.4690  0.3270
 4759SOL    HW115728   7.618   7.156   8.765 -0.4252 -0.2299  0.2815
 4759SOL    HW215729   7.477   7.103   8.771 -0.2411 -0.7199  0.2880
 4760SOL     OW15730   2.269   4.077   3.998 -0.8799 -0.9596 -0.0157
 4760SOL    HW115731   2.337   4.142   3.983 -2.4907  0.7995 -0.0004
 4760SOL    HW215732   2.259   4.034   3.913 -0.4761 -0.5187 -0.2938
 4761SOL     OW15733   4.200   8.730   5.924 -0.6995 -0.0841  0.6699
 4761SOL    HW115734   4.171   8.745   6.014 -0.3900  0.5312  0.6731
 4761SOL    HW215735   4.261   8.657   5.930 -1.4216 -0.6932  0.8151
 4762SOL     OW15736   1.342   0.740   3.161  0.2382  0.1782  0.4661
 4762SOL    HW115737   1.423   0.773   3.121 -1.4992  1.2022 -2.5013
 4762SOL    HW215738   1.311   0.813   3.215  0.0529  0.7508 -0.3947
 4763SOL     OW15739   4.558   1.196   5.086  0.4007 -0.3825  0.6599
 4763SOL    HW115740   4.531   1.272   5.034 -0.1704  0.5357  2.2618
 4763SOL    HW215741   4.514   1.122   5.044  1.2761  0.0603 -1.1720
 4764SOL     OW15742   6.090   8.872   2.144 -0.4570  0.2101  0.1254
 4764SOL    HW115743   5.996   8.878   2.128 -0.6402 -2.5658 -0.3484
 4764SOL    HW215744   6.123   8.960   2.126 -2.8322  1.0610 -0.4586
 4765SOL     OW15745   7.415   8.367   7.598  0.0987  0.3934 -0.3126
 4765SOL    HW115746   7.398   8.415   7.680 -0.5310 -1.5057  0.7415
 4765SOL    HW215747   7.466   8.291   7.625 -0.1905 -0.3107 -1.6686
 4766SOL     OW15748   3.309   2.688   5.830 -0.1406  0.4946  0.1726
 4766SOL    HW115749   3.287   2.725   5.915 -1.0902  0.9201 -0.2379
 4766SOL    HW215750   3.279   2.598   5.834 -0.6701  0.6659  0.1137
 4767SOL     OW15751   4.243   1.722   8.178  0.0175 -0.0125  0.1075
 4767SOL    HW115752   4.179   1.726   8.107  1.0135  0.8223 -0.7824
 4767SOL    HW215753   4.193   1.741   8.257 -0.8304  0.6138 -0.5664
 4768SOL     OW15754   6.488   8.759   8.849 -0.5845  0.2266 -0.7416
 4768SOL    HW115755   6.543   8.688   8.817 -1.6515 -0.4514 -1.1365
 4768SOL    HW215756   6.443   8.723   8.925 -0.2969  0.8556 -0.2672
 4769SOL     OW15757   6.675   5.421   2.993  0.1967  0.5106  0.3578
 4769SOL    HW115758   6.746   5.361   2.967 -0.3854 -0.6036  1.2423
 4769SOL    HW215759   6.601   5.393   2.940 -0.9356 -1.6235  2.8283
 4770SOL     OW15760   8.908   5.539   9.282  0.4406  0.2042 -0.0158
 4770SOL    HW115761   8.972   5.603   9.252 -2.0984  2.1047 -1.8621
 4770SOL    HW215762   8.829   5.591   9.300 -1.3458 -2.2415 -0.2356
 4771SOL     OW15763   5.766   6.829   1.850 -0.3182 -0.2799 -0.3501
 4771SOL    HW115764   5.723   6.823   1.765  0.6723 -2.4105 -0.7759
 4771SOL    HW215765   5.836   6.763   1.846  1.0177  0.9293  1.4038
 4772SOL     OW15766   7.089   6.644   7.278  0.6169  0.4419 -0.5885
 4772SOL    HW115767   7.021   6.698   7.318  0.9726  1.0441 -0.7971
 4772SOL    HW215768   7.123   6.591   7.350  2.2201  2.4894  0.2716
 4773SOL     OW15769   0.986   1.180   5.733  0.3299  0.0669 -0.0950
 4773SOL    HW115770   0.902   1.168   5.690 -1.0071  1.4694  1.9081
 4773SOL    HW215771   1.004   1.097   5.776 -0.4508 -0.0149  0.0867
 4774SOL     OW15772   2.932   2.351   3.330 -0.2440 -0.1126 -0.3860
 4774SOL    HW115773   2.869   2.283   3.308  0.3255 -1.1042  0.9567
 4774SOL    HW215774   2.889   2.433   3.303 -1.5814 -0.8600 -0.6068
 4775SOL     OW15775   0.572   8.775   5.289  0.1987 -0.8190  0.2604
 4775SOL    HW115776   0.600   8.856   5.332 -0.0856 -1.2396  1.2508
 4775SOL    HW215777   0.553   8.802   5.199  0.0329  0.2336  0.5917
 4776SOL     OW15778   4.258   1.455   6.071 -0.1458 -0.0169  0.4833
 4776SOL    HW115779   4.269   1.374   6.122 -1.0240 -1.3443 -1.2967
 4776SOL    HW215780   4.347   1.483   6.052  0.1880 -0.9276  0.6072
 4777SOL     OW15781   0.381   4.450   7.162  0.0669  0.0364 -0.1263
 4777SOL    HW115782   0.451   4.397   7.123  1.0686 -0.1170  1.7697
 4777SOL    HW215783   0.418   4.480   7.245 -1.3346  1.8047 -0.0994
 4778SOL     OW15784   7.119   4.938   5.983 -0.4615  0.0153 -0.3592
 4778SOL    HW115785   7.164   4.931   5.899 -3.2725  1.8726 -2.2038
 4778SOL    HW215786   7.134   5.029   6.011 -0.9983 -0.0629  0.2311
 4779SOL     OW15787   5.247   4.743   0.561  0.1966 -0.2266  0.2135
 4779SOL    HW115788   5.156   4.749   0.531  0.2914 -1.5045 -0.4281
 4779SOL    HW215789   5.288   4.823   0.529  0.2192 -1.3636 -2.9857
 4780SOL     OW15790   5.154   5.078   1.871  0.0006  0.0651  0.2740
 4780SOL    HW115791   5.151   5.002   1.813 -1.1725  0.1595  0.1797
 4780SOL    HW215792   5.162   5.041   1.959 -1.8540 -0.2744  0.3516
 4781SOL     OW15793   2.978   2.633   0.416 -0.1365  0.0385  0.3684
 4781SOL    HW115794   2.917   2.563   0.393 -0.0164 -0.3229  1.1241
 4781SOL    HW215795   2.926   2.713   0.411 -0.2908 -0.1039 -0.4396
 4782SOL     OW15796   3.987   1.842   5.747  0.7004  0.6034 -0.5425
 4782SOL    HW115797   4.074   1.840   5.787  0.8393  2.2710 -0.6848
 4782SOL    HW215798   3.998   1.895   5.668 -0.4297  0.8150 -0.5763
 4783SOL     OW15799   7.130   7.501   2.788  0.2652 -0.1361  0.4660
 4783SOL    HW115800   7.050   7.537   2.749  0.8908 -0.6148 -1.3705
 4783SOL    HW215801   7.108   7.411   2.810 -0.3615  0.3874  2.1647
 4784SOL     OW15802   8.271   4.244   1.709 -0.7724 -0.0678  0.3802
 4784SOL    HW115803   8.358   4.225   1.744 -0.4762 -1.1535 -0.8596
 4784SOL    HW215804   8.284   4.320   1.652 -1.0427  1.0004  1.6941
 4785SOL     OW15805   0.173   9.115   0.723 -0.2220  0.0147  0.2156
 4785SOL    HW115806   0.167   9.063   0.803  0.5302  0.8238  0.8162
 4785SOL    HW215807   0.126   9.196   0.743 -1.1534 -0.2987 -0.6201
 4786SOL     OW15808   4.552   6.949   7.166 -0.2103 -0.0288  0.6481
 4786SOL    HW115809   4.480   6.993   7.211  0.9352  4.3645 -1.1739
 4786SOL    HW215810   4.530   6.956   7.073  1.2740 -1.1562  0.1721
 4787SOL     OW15811   5.967   9.106   4.198 -0.2064  0.1377 -0.5820
 4787SOL    HW115812   5.958   9.199   4.216 -0.7761  0.5400 -2.7008
 4787SOL    HW215813   5.895   9.065   4.247 -1.4877  1.1294 -1.5569
 4788SOL     OW15814   1.763   8.073   8.776  0.6653  0.4675 -0.3288
 4788SOL    HW115815   1.726   7.993   8.739 -1.0430  0.6175  0.9379
 4788SOL    HW215816   1.796   8.122   8.700  1.1219 -1.1000 -1.1812
 4789SOL     OW15817   7.919   1.947   8.273 -0.1405  0.1736  0.1051
 4789SOL    HW115818   7.876   2.008   8.333  0.0938  0.0387  0.4122
 4789SOL    HW215819   7.919   1.863   8.319 -2.6937 -0.7181 -1.2739
 4790SOL     OW15820   2.862   6.781   8.888 -0.5473  0.0116  0.1289
 4790SOL    HW115821   2.956   6.779   8.868 -0.5974 -1.0296 -0.0784
 4790SOL    HW215822   2.855   6.739   8.973 -0.8901 -0.6083 -0.1961
 4791SOL     OW15823   4.954   6.540   4.559 -0.4075  0.3143  0.3031
 4791SOL    HW115824   4.960   6.485   4.637 -0.5738  0.0677  0.1437
 4791SOL    HW215825   4.984   6.484   4.487  5.1906  2.0958  0.8013
 4792SOL     OW15826   8.415   8.648   4.660  0.0675 -0.7616 -0.0234
 4792SOL    HW115827   8.436   8.728   4.708  0.8780 -1.5812  1.0238
 4792SOL    HW215828   8.408   8.581   4.727  1.4632 -1.9991 -1.0421
 4793SOL     OW15829   4.237   1.988   5.794 -0.5289 -0.5425 -0.0158
 4793SOL    HW115830   4.186   2.046   5.850 -0.4062 -1.5012  1.1332
 4793SOL    HW215831   4.226   2.023   5.706 -0.4061  1.2439  0.6466
 4794SOL     OW15832   9.069   3.986   3.750 -0.2929 -0.1213  0.5592
 4794SOL    HW115833   8.978   3.993   3.721 -0.5578 -0.7085  1.2329
 4794SOL    HW215834   9.094   3.896   3.731  0.8638  0.5681 -1.6124
 4795SOL     OW15835   7.752   2.260   2.371 -0.3146 -0.0180 -0.0913
 4795SOL    HW115836   7.839   2.257   2.330 -0.3112 -0.9152 -0.0417
 4795SOL    HW215837   7.693   2.225   2.304 -0.4143 -0.8208  0.4145
 4796SOL     OW15838   8.755   0.159   8.746  0.1399 -0.2460 -0.2760
 4796SOL    HW115839   8.683   0.096   8.739 -0.9584  0.8057  0.9440
 4796SOL    HW215840   8.741   0.220   8.673 -0.5726  0.2888  0.2945
 4797SOL     OW15841   5.400   6.400   3.057 -0.4739  0.5100 -0.1957
 4797SOL    HW115842   5.316   6.443   3.072 -0.4381  0.3881  0.4013
 4797SOL    HW215843   5.382   6.307   3.069 -0.3847  0.4306 -0.6867
 4798SOL     OW15844   7.198   2.969   8.869 -0.3451  0.3743  0.1618
 4798SOL    HW115845   7.225   3.011   8.950 -0.5931 -1.0384  1.0155
 4798SOL    HW215846   7.269   2.908   8.849 -0.1945  0.8421 -0.7985
 4799SOL     OW15847   8.338   4.927   1.779  0.0396 -0.1552  0.3376
 4799SOL    HW115848   8.278   4.873   1.831 -1.2220 -0.1725 -1.0896
 4799SOL    HW215849   8.282   4.992   1.737  0.7395 -1.1545 -2.3224
 4800SOL     OW15850   4.108   3.294   0.599  0.3736 -0.7214 -0.1016
 4800SOL    HW115851   4.154   3.348   0.662 -0.0800 -0.3855 -0.0481
 4800SOL    HW215852   4.097   3.351   0.522 -0.5013 -0.5693  0.1183
 4801SOL     OW15853   0.317   0.677   4.114  0.7130  0.2605 -0.1133
 4801SOL    HW115854   0.222   0.686   4.100  0.5421  0.4148  1.0585
 4801SOL    HW215855   0.336   0.587   4.090 -0.3524 -0.8326  2.7360
 4802SOL     OW15856   6.453   0.226   4.649  0.0989 -0.0471  0.0632
 4802SOL    HW115857   6.466   0.181   4.566  0.1927 -1.9959  1.0622
 4802SOL    HW215858   6.494   0.168   4.714 -1.6055  0.4472  1.6767
 4803SOL     OW15859   7.291   0.466   5.165 -0.0419 -0.3033  0.2581
 4803SOL    HW115860   7.245   0.483   5.248 -0.0445  2.2998 -0.1858
 4803SOL    HW215861   7.380   0.441   5.191 -0.1867 -0.0212  1.0534
 4804SOL     OW15862   8.411   5.590   0.768 -0.0375 -0.0514  0.2589
 4804SOL    HW115863   8.495   5.562   0.805 -0.9427 -0.0234  2.4811
 4804SOL    HW215864   8.431   5.614   0.677  1.8337 -2.5736 -0.0890
 4805SOL     OW15865   7.588   0.046   0.949  0.5572  0.3795  0.3348
 4805SOL    HW115866   7.583   0.141   0.937  0.5307  0.1979 -1.3828
 4805SOL    HW215867   7.616   0.013   0.863  0.2395 -1.1918  0.8073
 4806SOL     OW15868   1.929   1.751   6.182  0.5356  0.1148 -0.6769
 4806SOL    HW115869   1.924   1.845   6.198  0.4849  0.2429 -1.4127
 4806SOL    HW215870   1.915   1.742   6.088  2.8699 -0.4303 -1.0368
 4807SOL     OW15871   8.317   7.513   8.374 -0.1722  0.5636 -0.5024
 4807SOL    HW115872   8.255   7.499   8.302 -0.0945  0.3537 -0.5267
 4807SOL    HW215873   8.400   7.534   8.331  0.1766 -0.7450 -0.4982
 4808SOL     OW15874   6.565   1.105   9.239  0.2446 -0.3474 -0.4051
 4808SOL    HW115875   6.552   1.198   9.261 -1.0944 -0.4806 -0.5498
 4808SOL    HW215876   6.576   1.062   9.324 -0.5103 -0.2410 -0.2442
 4809SOL     OW15877   7.291   8.620   8.742  0.1399 -0.1269 -0.2175
 4809SOL    HW115878   7.228   8.680   8.702 -0.1044 -0.2780 -0.0612
 4809SOL    HW215879   7.245   8.537   8.748  0.0124 -0.0010  0.7905
 4810SOL     OW15880   6.389   6.246   2.503  0.1265 -0.4527 -0.2322
 4810SOL    HW115881   6.429   6.278   2.422 -1.5854 -1.3577 -1.4934
 4810SOL    HW215882   6.456   6.188   2.540  1.5236  1.1255 -0.1713
 4811SOL     OW15883   2.407   5.140   1.636  0.2930 -0.6845  0.4802
 4811SOL    HW115884   2.433   5.073   1.700 -0.0751 -0.3717  0.9637
 4811SOL    HW215885   2.324   5.174   1.669 -0.1455 -0.8464 -0.4211
 4812SOL     OW15886   0.407   3.727   7.102  0.2547 -0.0551 -0.1026
 4812SOL    HW115887   0.377   3.808   7.062 -0.7415 -1.5198 -2.5810
 4812SOL    HW215888   0.360   3.658   7.055  0.7103 -2.0905  2.1800
 4813SOL     OW15889   0.898   8.010   2.827 -0.3468  0.3192 -0.0759
 4813SOL    HW115890   0.949   8.071   2.773  1.7153 -1.4614 -0.2536
 4813SOL    HW215891   0.944   8.007   2.910 -1.8261  0.7780  0.8054
 4814SOL     OW15892   5.214   3.437   1.479 -0.2621  0.3458 -0.5246
 4814SOL    HW115893   5.145   3.465   1.538  0.2232  0.9479 -0.2326
 4814SOL    HW215894   5.181   3.458   1.391 -1.3365 -1.2976 -0.5735
 4815SOL     OW15895   5.181   3.404   4.304  0.3338 -0.4819  0.0302
 4815SOL    HW115896   5.137   3.472   4.354 -2.2264 -1.3684 -0.8556
 4815SOL    HW215897   5.271   3.404   4.337 -0.5209  0.8047  2.6214
 4816SOL     OW15898   2.108   4.944   7.575 -0.3943 -1.0426  0.3075
 4816SOL    HW115899   2.197   4.915   7.595  0.1998  0.4907  0.0751
 4816SOL    HW215900   2.052   4.897   7.636  0.6018 -1.8408  0.6268
 4817SOL     OW15901   8.086   2.010   5.778 -0.0396  0.0173  0.1131
 4817SOL    HW115902   8.150   2.006   5.848 -1.4024  0.0030  1.4136
 4817SOL    HW215903   8.017   2.067   5.812 -0.0245  1.3107 -1.8474
 4818SOL     OW15904   4.707   3.677   3.752  0.4337  0.7249 -0.2615
 4818SOL    HW115905   4.790   3.725   3.749  1.2892 -0.7142 -0.5991
 4818SOL    HW215906   4.696   3.641   3.664  0.2190 -0.3300  0.1774
 4819SOL     OW15907   5.105   9.183   0.579 -0.3666 -0.1006 -0.2202
 4819SOL    HW115908   5.012   9.191   0.601 -0.1728  1.2581  0.1990
 4819SOL    HW215909   5.130   9.097   0.611 -1.5649 -0.6438 -0.6728
 4820SOL     OW15910   6.053   7.192   5.186  0.5187  0.5563 -0.6853
 4820SOL    HW115911   6.033   7.228   5.099  0.0764  0.2233 -0.7277
 4820SOL    HW215912   6.148   7.179   5.186  0.6903  1.7716 -0.6449
 4821SOL     OW15913   8.738   1.269   8.775 -0.0102 -0.2258  0.0297
 4821SOL    HW115914   8.734   1.224   8.691 -0.3705 -1.4625  0.6629
 4821SOL    HW215915   8.682   1.346   8.765 -1.5836 -1.3489 -0.3343
 4822SOL     OW15916   3.302   6.638   6.431  0.3501 -0.2421 -0.0208
 4822SOL    HW115917   3.260   6.625   6.346 -0.0710 -1.4404  0.3517
 4822SOL    HW215918   3.356   6.717   6.420  0.0907 -0.2312 -1.3053
 4823SOL     OW15919   3.534   0.620   4.290  0.2696 -0.0636  0.5887
 4823SOL    HW115920   3.461   0.629   4.229  1.0227  1.4549 -0.1514
 4823SOL    HW215921   3.608   0.596   4.234  0.2575 -2.2269  1.4076
 4824SOL     OW15922   1.653   2.409   7.831  0.0879 -0.2866 -0.0222
 4824SOL    HW115923   1.574   2.403   7.884 -0.4421 -2.1069 -0.9349
 4824SOL    HW215924   1.634   2.480   7.769 -0.7741 -0.5865 -0.1201
 4825SOL     OW15925   8.917   1.981   6.569  0.2887 -0.1923  0.6943
 4825SOL    HW115926   8.955   1.936   6.493 -0.5788 -1.8644  1.1999
 4825SOL    HW215927   8.840   1.929   6.591 -1.2756  2.0510  0.8358
 4826SOL     OW15928   8.843   5.872   3.170  0.4998 -0.0344  0.4745
 4826SOL    HW115929   8.831   5.938   3.101  0.8842 -0.2383  0.2098
 4826SOL    HW215930   8.770   5.888   3.230  0.6987  0.7660  0.5249
 4827SOL     OW15931   3.900   2.058   4.263  0.3230  0.5601 -0.2302
 4827SOL    HW115932   3.829   2.062   4.327  1.7951  0.3456  1.4913
 4827SOL    HW215933   3.920   2.150   4.245  1.8357  0.7447  1.9611
 4828SOL     OW15934   3.861   3.057   3.113 -0.2377 -0.3151 -0.1405
 4828SOL    HW115935   3.799   3.127   3.095  0.6578  1.3566  2.6260
 4828SOL    HW215936   3.932   3.070   3.050 -1.5049 -0.7420 -1.7057
 4829SOL     OW15937   0.813   0.700   7.047  0.0958  0.0914  0.4958
 4829SOL    HW115938   0.790   0.614   7.082 -2.3362  0.4185 -0.1346
 4829SOL    HW215939   0.870   0.681   6.972 -0.7898 -1.0001  0.0751
 4830SOL     OW15940   2.457   6.413   2.383  0.0292  0.0041 -0.1557
 4830SOL    HW115941   2.403   6.344   2.345 -0.3932 -0.6415  1.5187
 4830SOL    HW215942   2.545   6.396   2.352 -0.3934 -0.0965 -1.3438
 4831SOL     OW15943   8.027   3.277   8.022 -0.2749  0.2176  0.6678
 4831SOL    HW115944   8.014   3.235   7.938  0.4030  1.3383 -0.0261
 4831SOL    HW215945   7.971   3.355   8.019  1.6643  1.6753  0.1661
 4832SOL     OW15946   0.045   2.610   7.908  0.7770 -0.1350 -0.8237
 4832SOL    HW115947   0.097   2.547   7.957  1.0726 -0.0311 -0.9997
 4832SOL    HW215948   0.053   2.583   7.817  1.1184  0.3062 -0.9286
 4833SOL     OW15949   1.716   1.869   3.324  0.1993 -0.0990  0.4686
 4833SOL    HW115950   1.775   1.944   3.310 -0.4582  0.4196  0.4264
 4833SOL    HW215951   1.674   1.856   3.239 -2.2488  1.7169  1.2982
 4834SOL     OW15952   5.097   8.897   6.631  0.1748  0.1958  0.6398
 4834SOL    HW115953   5.030   8.867   6.693  0.6510 -0.1401  0.9957
 4834SOL    HW215954   5.137   8.817   6.599  0.2934  0.3902  0.3021
 4835SOL     OW15955   4.652   3.016   5.846  0.4198  0.7522  0.9126
 4835SOL    HW115956   4.583   2.967   5.800 -0.1841  0.3496  2.1814
 4835SOL    HW215957   4.732   2.966   5.829  0.0529  0.1161  1.0065
 4836SOL     OW15958   4.831   8.054   4.502  0.1343  0.1053 -0.0449
 4836SOL    HW115959   4.821   8.060   4.407  0.6632  0.0804 -0.1025
 4836SOL    HW215960   4.751   8.094   4.536  0.5436  1.3415 -0.4854
 4837SOL     OW15961   5.374   7.201   4.552  0.0274 -0.1477  0.0271
 4837SOL    HW115962   5.328   7.169   4.475 -0.6717  2.0870 -0.5635
 4837SOL    HW215963   5.447   7.252   4.518  1.3737 -1.3538  0.9354
 4838SOL     OW15964   7.268   4.420   4.460 -0.4229 -0.5305  0.0488
 4838SOL    HW115965   7.268   4.375   4.544 -1.7101  0.9031  0.8670
 4838SOL    HW215966   7.291   4.511   4.481 -0.4365 -0.2187 -1.1895
 4839SOL     OW15967   7.262   5.252   1.905 -0.1665  0.5048  0.0062
 4839SOL    HW115968   7.232   5.309   1.975  0.1829  0.3743  0.2654
 4839SOL    HW215969   7.183   5.202   1.880 -0.0063 -0.4630  1.2794
 4840SOL     OW15970   0.197   5.338   7.629 -0.0283  0.0113  0.0376
 4840SOL    HW115971   0.289   5.353   7.608 -0.0147 -1.6209 -1.3230
 4840SOL    HW215972   0.150   5.373   7.553 -0.6906  2.0742  1.3118
 4841SOL     OW15973   2.449   3.851   3.349 -0.1031  0.0812 -0.1913
 4841SOL    HW115974   2.477   3.919   3.411 -0.3074  1.6275 -1.7315
 4841SOL    HW215975   2.447   3.771   3.401  1.9304  0.8936  1.2652
 4842SOL     OW15976   4.232   3.901   4.482 -0.7343  0.2308  0.0112
 4842SOL    HW115977   4.294   3.947   4.425 -0.4988 -0.8372 -0.6099
 4842SOL    HW215978   4.283   3.881   4.561 -0.2303 -0.7403 -0.5422
 4843SOL     OW15979   5.242   8.024   7.292  0.1329 -0.3548 -0.4846
 4843SOL    HW115980   5.257   7.960   7.223 -0.0196 -1.5608  0.5680
 4843SOL    HW215981   5.147   8.022   7.307 -0.0858  1.2138 -1.4470
 4844SOL     OW15982   1.463   7.121   6.697  0.0101  0.4875  0.1404
 4844SOL    HW115983   1.427   7.190   6.641 -2.5304  0.5395  1.6521
 4844SOL    HW215984   1.544   7.157   6.733  0.6817  1.1749 -1.9467
 4845SOL     OW15985   8.445   7.565   6.309  0.1027  0.6845 -0.3062
 4845SOL    HW115986   8.432   7.604   6.395 -0.0609  0.5157 -0.2551
 4845SOL    HW215987   8.360   7.572   6.265  0.5748  2.2044 -1.0461
 4846SOL     OW15988   3.131   4.280   2.338  0.5442  0.4257  0.7516
 4846SOL    HW115989   3.148   4.204   2.282  0.4101  0.6898  0.3480
 4846SOL    HW215990   3.127   4.354   2.278  0.9513  0.8010  1.1725
 4847SOL     OW15991   8.098   1.909   3.345 -0.0335  0.6891 -0.1269
 4847SOL    HW115992   8.027   1.866   3.393  1.0522 -0.8809  0.1357
 4847SOL    HW215993   8.058   1.936   3.263 -0.3449 -2.6682 -1.2096
 4848SOL     OW15994   2.908   5.397   2.813  0.3121 -0.2629 -0.1224
 4848SOL    HW115995   2.990   5.354   2.841  0.1961 -0.0739  0.5315
 4848SOL    HW215996   2.852   5.393   2.891  0.9455  2.7113  0.5884
 4849SOL     OW15997   6.521   7.042   8.713  0.2418 -0.5575 -0.4832
 4849SOL    HW115998   6.467   7.063   8.637 -1.1709  0.0468  0.6467
 4849SOL    HW215999   6.505   6.949   8.728  0.7627 -0.7529 -1.0815
 4850SOL     OW16000   0.341   7.136   4.749  0.2693  0.5157 -0.1027
 4850SOL    HW116001   0.366   7.179   4.668  0.0202 -0.4811 -0.7377
 4850SOL    HW216002   0.420   7.135   4.802  0.2748  1.7315 -0.0669
 4851SOL     OW16003   5.806   2.264   4.093  1.3986  0.1492  0.3941
 4851SOL    HW116004   5.881   2.235   4.041  2.6532  0.4489  1.9514
 4851SOL    HW216005   5.829   2.239   4.183 -0.6471 -0.2627  0.8438
 4852SOL     OW16006   1.986   6.116   3.579  0.2313  0.0005 -0.2521
 4852SOL    HW116007   1.972   6.028   3.544 -0.5583  0.1285 -0.2728
 4852SOL    HW216008   1.998   6.103   3.673  2.8122 -0.3918 -0.5802
 4853SOL     OW16009   7.161   8.951   0.765  0.5243 -0.8468 -0.0371
 4853SOL    HW116010   7.174   8.875   0.708 -0.5441 -0.0478 -1.4345
 4853SOL    HW216011   7.079   8.989   0.734  0.7499  0.5500  1.0109
 4854SOL     OW16012   2.200   7.605   2.152 -0.3901 -0.1708  0.3904
 4854SOL    HW116013   2.247   7.686   2.135  0.1182 -0.9731 -2.4478
 4854SOL    HW216014   2.253   7.561   2.219  0.3154  0.9955  0.6238
 4855SOL     OW16015   8.657   4.911   1.275 -0.4839 -0.1485  0.5948
 4855SOL    HW116016   8.621   4.952   1.197 -3.5811 -2.2282  0.7454
 4855SOL    HW216017   8.655   4.980   1.341  1.2998  1.3728 -0.8284
 4856SOL     OW16018   2.381   8.754   5.783 -0.8021 -0.4451 -0.0793
 4856SOL    HW116019   2.328   8.779   5.707 -1.5116 -2.5800 -0.3431
 4856SOL    HW216020   2.321   8.703   5.838 -0.6623  2.0034  2.5635
 4857SOL     OW16021   9.069   5.144   4.309 -0.3522  0.1225 -0.2893
 4857SOL    HW116022   9.059   5.145   4.404 -0.4713 -2.1598 -0.2450
 4857SOL    HW216023   9.133   5.075   4.292 -2.3151 -1.3683 -2.0108
 4858SOL     OW16024   8.557   7.612   8.636  0.3702 -1.0529 -0.1676
 4858SOL    HW116025   8.541   7.569   8.552 -0.2769  0.1554 -0.6973
 4858SOL    HW216026   8.640   7.658   8.624 -0.0891 -0.2702 -0.4217
 4859SOL     OW16027   5.518   7.434   0.110  0.4398 -0.7639 -0.0136
 4859SOL    HW116028   5.549   7.367   0.171 -0.3273 -1.3559 -0.2497
 4859SOL    HW216029   5.454   7.388   0.056  2.3161 -0.7296 -2.4190
 4860SOL     OW16030   5.832   8.847   0.973 -0.1233  0.0668  0.0995
 4860SOL    HW116031   5.907   8.889   0.931 -0.2850 -0.7981 -1.1275
 4860SOL    HW216032   5.813   8.901   1.050 -1.5675  3.4820 -2.3949
 4861SOL     OW16033   8.687   2.510   5.914  0.0426 -0.0356  0.1638
 4861SOL    HW116034   8.623   2.572   5.946  1.3033  2.0169 -1.0675
 4861SOL    HW216035   8.770   2.537   5.954  0.4939 -1.5201  0.3289
 4862SOL     OW16036   5.106   1.053   6.128  0.5354  0.3619 -0.1619
 4862SOL    HW116037   5.043   0.987   6.098  1.5349 -0.2821 -0.9134
 4862SOL    HW216038   5.093   1.057   6.223 -0.4623  0.0637 -0.2705
 4863SOL     OW16039   4.172   8.287   7.011 -0.1978 -0.5287  0.2757
 4863SOL    HW116040   4.092   8.256   6.970 -0.3485  0.2850 -0.0646
 4863SOL    HW216041   4.222   8.207   7.031 -1.0406 -1.0308  0.3994
 4864SOL     OW16042   6.400   2.525   0.945 -0.3103  0.2538  0.4084
 4864SOL    HW116043   6.329   2.474   0.905 -1.1080  2.0833 -0.6091
 4864SOL    HW216044   6.465   2.459   0.969 -1.5789 -1.3153 -0.2167
 4865SOL     OW16045   5.305   3.954   2.223 -0.2888  0.0185  0.2738
 4865SOL    HW116046   5.373   4.004   2.268 -1.4873  0.4760  1.6621
 4865SOL    HW216047   5.306   3.988   2.133  0.9169  0.4222  0.4262
 4866SOL     OW16048   0.859   6.157   4.255 -0.1299 -0.1913  0.2145
 4866SOL    HW116049   0.892   6.077   4.214  0.6743 -0.1440  0.7464
 4866SOL    HW216050   0.938   6.208   4.275 -0.4128 -0.5549  2.5063
 4867SOL     OW16051   5.697   1.444   6.843 -0.3113 -0.7263  0.1493
 4867SOL    HW116052   5.727   1.510   6.905 -0.4888 -0.7003  0.2099
 4867SOL    HW216053   5.609   1.473   6.819 -1.2216 -1.9987  1.7262
 4868SOL     OW16054   8.000   3.187   0.108  0.4202  0.2784 -0.2874
 4868SOL    HW116055   8.092   3.211   0.101  0.6673 -0.7357 -0.7818
 4868SOL    HW216056   7.992   3.109   0.054 -0.6124  0.0108  0.2270
 4869SOL     OW16057   5.383   8.984   3.526 -0.1846  0.1702  0.1162
 4869SOL    HW116058   5.404   8.910   3.468  0.0274  0.4004 -0.0997
 4869SOL    HW216059   5.292   8.969   3.551 -0.3275  0.1495 -0.3982
 4870SOL     OW16060   5.780   2.676   0.021  0.0108  0.5890 -0.3628
 4870SOL    HW116061   5.870   2.704   0.009  1.6311 -2.4509  2.8998
 4870SOL    HW216062   5.771   2.599  -0.036  0.2660 -0.4125  0.9111
 4871SOL     OW16063   5.180   1.337   5.349 -0.7018  0.0021 -0.2081
 4871SOL    HW116064   5.186   1.245   5.375  1.6762 -0.2821 -1.4934
 4871SOL    HW216065   5.092   1.363   5.376 -1.8336 -2.8961 -0.6437
 4872SOL     OW16066   3.770   6.369   2.861  0.2971 -0.5052  0.2152
 4872SOL    HW116067   3.698   6.399   2.805  1.1444 -0.2838 -0.8023
 4872SOL    HW216068   3.748   6.401   2.948 -0.3551  0.4098 -0.2710
 4873SOL     OW16069   7.971   6.846   5.776  0.2358 -0.6146  0.0650
 4873SOL    HW116070   7.945   6.935   5.800  2.4452  0.0312  0.2739
 4873SOL    HW216071   7.995   6.852   5.684  1.4845 -0.6987  0.3668
 4874SOL     OW16072   3.754   8.447   3.957  0.4410  0.0007  0.1963
 4874SOL    HW116073   3.834   8.500   3.958  0.5395 -0.1493  1.0993
 4874SOL    HW216074   3.755   8.401   4.041 -0.1290 -0.7068 -0.1735
 4875SOL     OW16075   0.216   2.148   8.102  0.0780  0.0768  0.2363
 4875SOL    HW116076   0.253   2.083   8.042 -0.0297 -0.6043  0.8971
 4875SOL    HW216077   0.131   2.111   8.128  0.9026 -0.5223  2.2190
 4876SOL     OW16078   9.144   0.453   8.808 -0.3471  0.6466 -0.4093
 4876SOL    HW116079   9.210   0.407   8.860  0.6441  0.9373 -1.3798
 4876SOL    HW216080   9.189   0.532   8.777 -0.2930 -0.3924 -3.2097
 4877SOL     OW16081   4.004   5.446   4.625  0.6740 -0.9098 -0.0635
 4877SOL    HW116082   3.950   5.375   4.659  0.1762 -0.8785 -0.7806
 4877SOL    HW216083   3.970   5.464   4.538  0.8914  0.1086  0.0410
 4878SOL     OW16084   7.376   4.064   1.921 -0.4187  0.1544  0.4678
 4878SOL    HW116085   7.457   4.012   1.923  0.1764  1.0461  0.3886
 4878SOL    HW216086   7.387   4.128   1.991 -0.4757  1.1091 -0.3694
 4879SOL     OW16087   5.308   5.035   2.571  0.2125 -0.1740  0.0713
 4879SOL    HW116088   5.215   5.047   2.592 -0.0101 -0.0023 -0.9372
 4879SOL    HW216089   5.350   5.116   2.603  0.0065 -0.2206  0.4654
 4880SOL     OW16090   5.181   4.028   5.179  0.3279 -0.1346 -0.4496
 4880SOL    HW116091   5.089   4.001   5.190  0.9527 -1.4586  2.3894
 4880SOL    HW216092   5.181   4.122   5.199 -0.3430 -0.2272  0.0193
 4881SOL     OW16093   0.928   2.656   1.396  0.0257 -0.6072  0.2328
 4881SOL    HW116094   0.949   2.710   1.472  0.6830 -0.2301 -0.2116
 4881SOL    HW216095   0.972   2.698   1.322 -2.5754  0.4683 -0.8411
 4882SOL     OW16096   0.855   4.808   5.876 -0.0909 -0.2783 -0.6878
 4882SOL    HW116097   0.940   4.780   5.842 -1.1432 -1.0908 -2.8262
 4882SOL    HW216098   0.855   4.903   5.863  0.1273 -0.3882 -1.5508
 4883SOL     OW16099   2.647   2.028   8.705  0.4897 -0.2271 -0.2439
 4883SOL    HW116100   2.630   1.947   8.656 -1.5724  0.4416 -0.7492
 4883SOL    HW216101   2.644   2.002   8.797 -1.4443 -0.5653 -0.3603
 4884SOL     OW16102   2.472   4.591   7.380 -0.3142  0.1434  0.1196
 4884SOL    HW116103   2.500   4.501   7.367 -1.9550 -0.4522  0.4616
 4884SOL    HW216104   2.516   4.640   7.310  0.7976 -0.8601  0.0888
 4885SOL     OW16105   7.273   2.715   0.268 -0.5140  0.0197 -0.3805
 4885SOL    HW116106   7.320   2.639   0.233 -0.9196 -0.4639  0.1080
 4885SOL    HW216107   7.204   2.677   0.322 -1.5262  0.7273 -1.1564
 4886SOL     OW16108   1.463   7.513   4.161 -0.3088 -0.2100  0.0640
 4886SOL    HW116109   1.496   7.462   4.087 -0.7048  1.7201 -1.5347
 4886SOL    HW216110   1.371   7.487   4.168 -0.6643  0.6424 -1.1202
 4887SOL     OW16111   6.200   2.336   0.913 -0.2387  0.1186 -0.5436
 4887SOL    HW116112   6.172   2.323   0.822 -0.4745  0.4136 -0.5160
 4887SOL    HW216113   6.146   2.275   0.963 -1.5538  1.3627 -0.3802
 4888SOL     OW16114   1.648   0.955   8.302 -0.5225  0.3815  0.6202
 4888SOL    HW116115   1.638   0.944   8.397 -1.8442  1.4782  0.6307
 4888SOL    HW216116   1.691   0.874   8.273 -0.6854 -0.2478  2.0549
 4889SOL     OW16117   8.417   7.043   9.042  0.2006 -0.5473 -0.2383
 4889SOL    HW116118   8.422   7.123   8.990 -0.8384 -0.7254 -0.6347
 4889SOL    HW216119   8.396   6.974   8.978 -1.8320 -0.6573  0.4934
 4890SOL     OW16120   6.275   5.872   9.135 -0.1672  0.1788 -0.1826
 4890SOL    HW116121   6.321   5.949   9.166 -0.1143  0.1891 -0.2860
 4890SOL    HW216122   6.327   5.798   9.166 -0.9334  0.1370  1.0837
 4891SOL     OW16123   8.728   1.428   4.362  0.0440  0.0472 -0.7075
 4891SOL    HW116124   8.764   1.358   4.307  2.3408 -0.2885  1.0484
 4891SOL    HW216125   8.805   1.466   4.405 -1.4026  1.9464  0.3728
 4892SOL     OW16126   8.784   5.295   6.458  0.1590  0.1205  0.0344
 4892SOL    HW116127   8.784   5.373   6.403  0.3080 -0.8232 -1.3597
 4892SOL    HW216128   8.752   5.226   6.401  2.4827 -1.3906  0.4245
 4893SOL     OW16129   6.101   4.119   1.919 -0.0281  0.1778  0.1445
 4893SOL    HW116130   6.057   4.143   2.001  0.7608 -2.4309  1.4535
 4893SOL    HW216131   6.173   4.181   1.911 -1.1951  1.6180  0.4263
 4894SOL     OW16132   4.781   9.094   3.968 -0.2165 -0.2881  0.3128
 4894SOL    HW116133   4.734   9.171   3.936 -0.1232 -0.1407  0.5246
 4894SOL    HW216134   4.808   9.118   4.057 -0.8433 -0.8511  0.6625
 4895SOL     OW16135   4.845   3.425   1.255  0.5051 -0.2298 -0.5079
 4895SOL    HW116136   4.759   3.447   1.289  1.2939  1.4481  0.4889
 4895SOL    HW216137   4.837   3.333   1.230 -1.6497 -0.0390 -0.7535
 4896SOL     OW16138   7.171   0.548   6.544  0.1328 -0.1013  0.2243
 4896SOL    HW116139   7.108   0.595   6.490 -0.9903 -1.1357  0.5812
 4896SOL    HW216140   7.244   0.609   6.556  0.3091  0.2704 -2.2100
 4897SOL     OW16141   6.845   5.691   8.113 -0.4326 -0.8200  0.1156
 4897SOL    HW116142   6.752   5.709   8.098  0.1219  1.1618 -1.3714
 4897SOL    HW216143   6.889   5.729   8.037  1.9931  2.8921  2.9809
 4898SOL     OW16144   4.739   5.533   1.711  0.1377 -0.1593  0.0028
 4898SOL    HW116145   4.804   5.476   1.752 -1.0754 -1.1602  0.6269
 4898SOL    HW216146   4.775   5.621   1.720  0.3529 -0.4240  2.4814
 4899SOL     OW16147   7.034   6.416   4.239 -0.2083 -0.2427 -0.4303
 4899SOL    HW116148   6.939   6.423   4.232 -0.1326  1.0908 -0.2286
 4899SOL    HW216149   7.059   6.483   4.302  1.1344  1.3786 -2.5583
 4900SOL     OW16150   8.099   6.461   8.094 -0.3121 -0.3692 -0.0424
 4900SOL    HW116151   8.012   6.460   8.133 -1.2540 -0.1745 -2.0344
 4900SOL    HW216152   8.108   6.549   8.057  0.5059 -0.5604 -0.3261
 4901SOL     OW16153   7.462   8.864   0.509  0.0064 -0.0853 -0.0306
 4901SOL    HW116154   7.376   8.826   0.528  0.4761 -0.8096  0.7198
 4901SOL    HW216155   7.468   8.940   0.567 -0.0712 -0.1261  0.0305
 4902SOL     OW16156   3.920   7.161   1.145 -0.2078 -0.3749  0.4767
 4902SOL    HW116157   3.968   7.078   1.140 -0.2981 -0.3946 -0.2882
 4902SOL    HW216158   3.857   7.156   1.073 -0.0354  0.4627  0.2586
 4903SOL     OW16159   3.367   9.091   7.334 -0.1341  0.0662  0.3943
 4903SOL    HW116160   3.459   9.111   7.318  0.1433 -0.2383  1.5136
 4903SOL    HW216161   3.361   8.996   7.323 -0.3092  0.0778  0.3830
 4904SOL     OW16162   4.511   6.213   4.147  0.0553  0.2235 -0.3085
 4904SOL    HW116163   4.538   6.130   4.108 -1.2362 -0.9469  1.1322
 4904SOL    HW216164   4.420   6.225   4.121  0.3570  1.4650 -0.8904
 4905SOL     OW16165   7.174   3.501   8.872  0.3743 -0.7285  0.1346
 4905SOL    HW116166   7.198   3.592   8.892  0.2546 -0.4946 -0.7003
 4905SOL    HW216167   7.130   3.507   8.787 -0.9059 -1.3957  0.7225
 4906SOL     OW16168   3.423   0.254   7.330  0.0589  1.2895 -0.2091
 4906SOL    HW116169   3.351   0.223   7.276  0.8593  0.4301 -0.8211
 4906SOL    HW216170   3.408   0.216   7.416 -0.4721  1.5161 -0.2001
 4907SOL     OW16171   8.538   8.167   8.072 -0.2609 -1.0412 -0.2976
 4907SOL    HW116172   8.623   8.201   8.101  0.1233 -1.1650 -1.2217
 4907SOL    HW216173   8.558   8.120   7.991 -1.1023 -1.7163 -0.1293
 4908SOL     OW16174   0.241   4.935   1.036 -0.5383 -0.2794  0.6917
 4908SOL    HW116175   0.236   5.030   1.023 -1.8175 -0.5768 -1.5322
 4908SOL    HW216176   0.173   4.916   1.101 -0.9431  0.2319  0.4233
 4909SOL     OW16177   2.766   5.514   8.050 -0.4216 -0.6706 -0.0693
 4909SOL    HW116178   2.832   5.482   7.988 -0.1242 -3.0296  1.3461
 4909SOL    HW216179   2.686   5.522   7.998  0.1356 -1.2572 -1.0458
 4910SOL     OW16180   4.347   2.253   1.644  0.0140  0.1729  0.3625
 4910SOL    HW116181   4.318   2.195   1.575  2.4327 -1.7855  0.8612
 4910SOL    HW216182   4.396   2.322   1.599 -0.0269 -0.0416 -0.0123
 4911SOL     OW16183   8.222   7.947   8.675  0.3508 -0.4053  0.4781
 4911SOL    HW116184   8.252   8.000   8.601 -1.4626  0.4014  0.2745
 4911SOL    HW216185   8.202   7.862   8.638 -2.1541  0.4703 -0.3785
 4912SOL     OW16186   7.324   0.889   7.622  0.8849 -0.4941  0.2264
 4912SOL    HW116187   7.290   0.978   7.618 -0.8128 -1.0930  0.6450
 4912SOL    HW216188   7.285   0.844   7.547 -0.1309 -1.4676  1.2980
 4913SOL     OW16189   5.057   0.260   4.291  0.3357  0.4243 -0.6769
 4913SOL    HW116190   5.056   0.179   4.341 -0.6615  0.9690  0.2318
 4913SOL    HW216191   5.132   0.309   4.327  0.8315  0.0004 -1.1085
 4914SOL     OW16192   5.659   0.682   2.404  0.5830 -0.2981 -0.4273
 4914SOL    HW116193   5.625   0.691   2.315 -0.6811  0.6546  0.1327
 4914SOL    HW216194   5.633   0.594   2.431 -2.2464  0.6528  0.2616
 4915SOL     OW16195   2.325   1.671   1.184 -0.6453  0.5552  0.1016
 4915SOL    HW116196   2.256   1.731   1.154 -1.8403 -0.4291  0.7731
 4915SOL    HW216197   2.402   1.726   1.195 -1.0014  1.4878 -1.7831
 4916SOL     OW16198   1.013   2.104   3.366  0.7046  0.2184 -0.2182
 4916SOL    HW116199   1.042   2.033   3.424  1.4883 -0.3263 -1.2510
 4916SOL    HW216200   1.035   2.074   3.278 -0.7524  0.8928 -0.8480
 4917SOL     OW16201   7.670   7.717   8.096  0.1214 -0.0631 -0.3093
 4917SOL    HW116202   7.593   7.753   8.141 -0.4317 -0.3964 -0.9750
 4917SOL    HW216203   7.645   7.628   8.073  0.2450  0.2186 -1.6071
 4918SOL     OW16204   7.477   3.198   0.216  0.2171  0.3433 -0.0710
 4918SOL    HW116205   7.519   3.264   0.271  0.1126  0.6393 -0.3449
 4918SOL    HW216206   7.403   3.166   0.268  0.6210  0.0052  0.3088
 4919SOL     OW16207   2.369   1.499   4.303  0.1703  0.1301  0.1726
 4919SOL    HW116208   2.430   1.461   4.239  1.5300  1.1010  0.8395
 4919SOL    HW216209   2.379   1.443   4.380 -1.1439 -0.7792 -0.2934
 4920SOL     OW16210   5.822   0.379   4.313 -0.1332 -0.3422 -0.0161
 4920SOL    HW116211   5.790   0.324   4.241 -0.9256 -0.0345  0.0953
 4920SOL    HW216212   5.796   0.333   4.392  0.2726 -0.4112  0.0786
 4921SOL     OW16213   0.571   1.629   7.257  0.2004 -0.3465 -0.1913
 4921SOL    HW116214   0.490   1.676   7.277 -0.9940 -1.4825 -2.1033
 4921SOL    HW216215   0.570   1.554   7.318  0.4342  0.2621  0.5819
 4922SOL     OW16216   5.462   0.088   4.522 -0.4111  0.3295  0.0847
 4922SOL    HW116217   5.497   0.150   4.458 -0.3114  0.6803  0.4788
 4922SOL    HW216218   5.409   0.141   4.581  0.0859  0.1239  0.7308
 4923SOL     OW16219   2.389   3.845   4.147 -0.3080  0.0357  0.6399
 4923SOL    HW116220   2.395   3.907   4.075  1.4535 -1.0185 -0.1731
 4923SOL    HW216221   2.445   3.882   4.215 -0.0024 -0.1816  0.5100
 4924SOL     OW16222   4.096   3.556   4.283 -0.7162 -0.2041  0.3231
 4924SOL    HW116223   4.173   3.509   4.252 -0.7514  0.4614 -0.8237
 4924SOL    HW216224   4.022   3.499   4.259 -0.9885  1.5084 -3.5095
 4925SOL     OW16225   7.060   6.227   4.552 -0.0331  0.1381  0.0088
 4925SOL    HW116226   6.980   6.189   4.516  1.2176  0.1248 -3.0764
 4925SOL    HW216227   7.078   6.175   4.631 -2.0090 -1.1172 -0.3001
 4926SOL     OW16228   2.601   3.632   2.706 -0.1579 -0.3658  0.1260
 4926SOL    HW116229   2.679   3.619   2.652 -0.0281 -0.8419  0.4262
 4926SOL    HW216230   2.635   3.669   2.787 -0.1549 -1.2237  0.5294
 4927SOL     OW16231   7.677   2.981   5.594 -1.0357  0.3193 -0.2879
 4927SOL    HW116232   7.770   2.968   5.612 -0.9575  1.5760  0.3159
 4927SOL    HW216233   7.675   3.053   5.531 -1.6065  0.8614  0.3276
 4928SOL     OW16234   5.785   1.737   6.610 -0.5054 -0.8579  0.3443
 4928SOL    HW116235   5.706   1.733   6.663 -0.8272 -1.0280 -0.1361
 4928SOL    HW216236   5.843   1.670   6.647  0.0293  0.2748  1.6438
 4929SOL     OW16237   2.913   2.103   9.226 -0.3664 -0.1013 -0.0447
 4929SOL    HW116238   2.960   2.144   9.299  2.3215  0.9147 -2.2030
 4929SOL    HW216239   2.945   2.148   9.148 -2.4919 -1.7176 -1.9718
 4930SOL     OW16240   0.939   1.798   8.014 -0.4106  0.3643  0.0928
 4930SOL    HW116241   0.907   1.811   8.103  0.7830  1.4284  0.4058
 4930SOL    HW216242   1.003   1.869   8.001  0.4831 -0.6042 -1.0993
 4931SOL     OW16243   3.468   8.025   2.042  0.5423  0.1924  0.0459
 4931SOL    HW116244   3.395   7.965   2.027  0.7244  0.2961 -1.4981
 4931SOL    HW216245   3.473   8.035   2.137 -0.6269 -0.8202  0.2353
 4932SOL     OW16246   1.445   2.556   6.687 -0.0563 -0.1416  0.4067
 4932SOL    HW116247   1.352   2.576   6.686 -0.0701 -0.0334  1.7610
 4932SOL    HW216248   1.450   2.463   6.710  0.1628 -0.2690 -0.1386
 4933SOL     OW16249   4.795   0.480   6.528  0.2810  0.3665  0.4075
 4933SOL    HW116250   4.875   0.427   6.528 -0.1313 -0.3084 -1.1202
 4933SOL    HW216251   4.724   0.418   6.542 -0.2389  0.3973 -1.7657
 4934SOL     OW16252   4.634   6.688   2.724  0.4157 -0.5255 -0.2497
 4934SOL    HW116253   4.560   6.747   2.735  1.4782  1.2157 -1.8595
 4934SOL    HW216254   4.594   6.603   2.706 -1.3007  0.7319 -2.9911
 4935SOL     OW16255   6.818   8.468   6.742  0.4197 -0.2515  0.4417
 4935SOL    HW116256   6.788   8.511   6.662  0.8714 -0.1656  0.3147
 4935SOL    HW216257   6.861   8.537   6.793 -1.0145 -0.0017  1.3731
 4936SOL     OW16258   1.784   0.168   2.979 -0.3270  0.5643 -0.1353
 4936SOL    HW116259   1.772   0.263   2.968  1.7850  0.5781 -4.1748
 4936SOL    HW216260   1.877   0.158   2.998 -0.3265 -0.7562 -0.7769
 4937SOL     OW16261   5.585   2.601   0.410 -0.0096  0.0732  0.4814
 4937SOL    HW116262   5.571   2.511   0.439 -1.8261  0.0795 -0.2460
 4937SOL    HW216263   5.532   2.654   0.470 -0.4396  0.4659 -0.2360
 4938SOL     OW16264   4.390   5.641   1.859  0.1871  0.1960  0.2025
 4938SOL    HW116265   4.381   5.698   1.935  1.8594  0.4542  0.2465
 4938SOL    HW216266   4.406   5.701   1.786 -0.7522 -0.0867 -0.2534
 4939SOL     OW16267   2.221   1.040   4.542  0.1037  0.5397 -0.2369
 4939SOL    HW116268   2.289   1.028   4.609 -0.3071  2.2920  0.5521
 4939SOL    HW216269   2.260   1.006   4.462  1.1118 -0.4070  0.6274
 4940SOL     OW16270   3.159   2.523   3.600 -0.2126  0.2082 -0.0186
 4940SOL    HW116271   3.197   2.605   3.631  1.7832 -0.3435 -0.8292
 4940SOL    HW216272   3.231   2.478   3.555 -1.7962 -1.0350 -1.4725
 4941SOL     OW16273   2.605   6.274   3.640  0.0239 -0.0072  0.1917
 4941SOL    HW116274   2.660   6.199   3.660  1.2128  0.0644 -2.4067
 4941SOL    HW216275   2.520   6.236   3.616 -0.2788 -0.2797  1.5829
 4942SOL     OW16276   9.227   3.448   4.301 -0.6189 -0.8685 -0.1321
 4942SOL    HW116277   9.252   3.523   4.355 -1.7817  0.9224 -1.9344
 4942SOL    HW216278   9.162   3.401   4.353  0.5448 -0.9994  1.2696
 4943SOL     OW16279   5.691   1.815   6.946 -0.1570 -0.2084  0.5222
 4943SOL    HW116280   5.660   1.849   7.030 -2.1262 -0.6893  0.0230
 4943SOL    HW216281   5.768   1.762   6.968  0.6562  1.3711  1.7436
 4944SOL     OW16282   4.955   4.815   0.585 -0.3011  0.1399  0.3348
 4944SOL    HW116283   4.917   4.894   0.546 -0.1548  1.0263  1.9041
 4944SOL    HW216284   4.882   4.754   0.590 -0.6066  0.4501 -0.1966
 4945SOL     OW16285   6.251   1.025   6.803  0.3292 -0.2834 -0.3318
 4945SOL    HW116286   6.315   1.083   6.761  1.1603  0.8097  2.2133
 4945SOL    HW216287   6.168   1.047   6.760  0.9381  1.4962 -0.7204
 4946SOL     OW16288   1.165   4.619   2.166  0.1651 -0.7918  0.3378
 4946SOL    HW116289   1.248   4.661   2.145  0.3043 -0.8515  0.7559
 4946SOL    HW216290   1.100   4.666   2.114  0.6149 -1.5778 -1.0062
 4947SOL     OW16291   0.561   6.355   1.363  0.2918  0.6962 -0.2976
 4947SOL    HW116292   0.607   6.347   1.446 -0.2557  0.2834 -0.0213
 4947SOL    HW216293   0.535   6.265   1.342  0.2665  0.8240 -0.8181
 4948SOL     OW16294   0.444   4.645   7.800 -0.1159 -0.2313  0.4441
 4948SOL    HW116295   0.538   4.630   7.787 -0.0142  0.5167  0.2639
 4948SOL    HW216296   0.437   4.739   7.816 -1.0228  0.0493 -1.3575
 4949SOL     OW16297   7.303   9.085   0.942 -0.0912 -0.0301  0.1044
 4949SOL    HW116298   7.350   9.138   0.878  0.3840  0.3900  0.7941
 4949SOL    HW216299   7.242   9.032   0.890  0.9156 -0.3450 -0.7646
 4950SOL     OW16300   8.775   3.344   0.138  0.3351 -0.5971  0.0691
 4950SOL    HW116301   8.834   3.352   0.213 -1.2371 -2.0640  1.5314
 4950SOL    HW216302   8.762   3.434   0.107  0.8114  0.0634  1.7016
 4951SOL     OW16303   8.742   5.036   7.182 -0.5162 -0.4079  0.0789
 4951SOL    HW116304   8.737   5.033   7.086 -0.5704  0.3465  0.0530
 4951SOL    HW216305   8.793   5.115   7.201 -0.7772 -0.3805  0.6797
 4952SOL     OW16306   9.069   5.913   0.152  0.0936  0.0918  0.9293
 4952SOL    HW116307   9.134   5.983   0.148  2.1135 -1.6580  0.9524
 4952SOL    HW216308   9.086   5.861   0.073 -0.7563 -0.8491  1.3428
 4953SOL     OW16309   3.036   0.184   0.156 -0.0209 -1.1763  0.1141
 4953SOL    HW116310   3.026   0.235   0.236  1.6417  0.0164 -0.3948
 4953SOL    HW216311   2.947   0.153   0.136 -0.5354 -1.1026  2.1304
 4954SOL     OW16312   7.350   7.564   9.160 -0.2484 -0.1993  0.0173
 4954SOL    HW116313   7.412   7.612   9.215 -1.2344  0.5470  0.5109
 4954SOL    HW216314   7.404   7.507   9.106  0.7612 -0.9584  1.7514
 4955SOL     OW16315   2.783   3.853   0.717  0.0880 -0.1956 -0.4741
 4955SOL    HW116316   2.731   3.933   0.719 -0.8383 -0.6938 -2.1111
 4955SOL    HW216317   2.720   3.783   0.733  0.9357 -0.6195  1.2478
 4956SOL     OW16318   4.255   0.970   1.110  0.2816 -0.3512 -0.4261
 4956SOL    HW116319   4.271   0.927   1.194 -0.8315 -1.4204 -0.7261
 4956SOL    HW216320   4.220   1.056   1.133 -2.6821 -1.6111  0.3378
 4957SOL     OW16321   3.434   9.077   5.362  0.2124  0.7624  0.8865
 4957SOL    HW116322   3.519   9.043   5.336 -0.5095  0.0889 -0.6910
 4957SOL    HW216323   3.420   9.041   5.450  0.6729 -0.8087  0.3524
 4958SOL     OW16324   8.481   7.380   7.853  0.0634  0.5155 -0.1522
 4958SOL    HW116325   8.534   7.312   7.893 -1.4449 -0.6975 -0.1404
 4958SOL    HW216326   8.505   7.378   7.760 -0.0932 -0.1742 -0.1831
 4959SOL     OW16327   0.206   4.318   4.889 -0.0146 -0.1445 -0.9467
 4959SOL    HW116328   0.245   4.248   4.837  0.4674  0.7975 -1.8865
 4959SOL    HW216329   0.171   4.380   4.825  1.7200  1.7006 -0.2151
 4960SOL     OW16330   2.150   4.011   1.627 -0.1530 -0.0843  0.3856
 4960SOL    HW116331   2.212   3.948   1.591 -1.3889 -0.2967 -1.4986
 4960SOL    HW216332   2.190   4.039   1.710  3.4326  1.3371 -1.6082
 4961SOL     OW16333   4.073   3.599   4.669 -0.0064  0.0797 -0.4449
 4961SOL    HW116334   4.000   3.538   4.656  0.8519 -1.4276  1.3562
 4961SOL    HW216335   4.058   3.668   4.605 -2.4093 -0.7341 -0.8579
 4962SOL     OW16336   7.528   1.613   5.104 -0.0142  0.0367  0.1657
 4962SOL    HW116337   7.579   1.691   5.125 -0.1646 -0.3763  2.2962
 4962SOL    HW216338   7.512   1.572   5.189 -1.4890 -1.3471 -0.7383
 4963SOL     OW16339   5.310   4.470   2.962 -0.1828  0.3665 -0.7107
 4963SOL    HW116340   5.386   4.485   2.905 -0.2513 -2.3389 -1.6599
 4963SOL    HW216341   5.348   4.438   3.044 -0.2329 -0.0264 -0.8369
 4964SOL     OW16342   1.834   5.076   2.468  0.6814 -0.1079 -0.0787
 4964SOL    HW116343   1.821   5.171   2.464  0.2583 -0.1663 -0.1148
 4964SOL    HW216344   1.914   5.065   2.519  1.5378  0.3282 -1.2723
 4965SOL     OW16345   7.842   2.729   2.836 -0.3070 -0.0995 -0.1898
 4965SOL    HW116346   7.862   2.662   2.902  0.9877 -0.5505 -1.0016
 4965SOL    HW216347   7.769   2.693   2.786 -0.3655 -0.3926  0.1045
 4966SOL     OW16348   2.214   6.430   1.219  0.0795 -0.3055  0.2432
 4966SOL    HW116349   2.290   6.479   1.186  0.5998  0.2247  2.0969
 4966SOL    HW216350   2.252   6.358   1.270 -0.6904 -1.9058 -1.3469
 4967SOL     OW16351   1.547   2.254   1.222 -0.1545 -0.9110 -0.2864
 4967SOL    HW116352   1.505   2.326   1.270 -1.0059 -2.6489  1.7570
 4967SOL    HW216353   1.475   2.207   1.181  0.1733 -1.7355  0.0685
 4968SOL     OW16354   5.327   5.647   7.177  0.2196  0.2703 -0.1563
 4968SOL    HW116355   5.368   5.639   7.263 -0.0101 -1.3909 -0.1682
 4968SOL    HW216356   5.245   5.695   7.193 -0.5677 -1.3410  0.8359
 4969SOL     OW16357   2.379   2.024   2.259 -0.2977 -0.1453 -1.0840
 4969SOL    HW116358   2.340   2.090   2.202 -0.2010  2.6543  1.8174
 4969SOL    HW216359   2.304   1.978   2.297 -0.4244 -0.7006 -1.9938
 4970SOL     OW16360   4.176   7.423   3.328 -0.4299  0.4065  1.1353
 4970SOL    HW116361   4.206   7.510   3.304  0.3728 -0.1764 -0.0959
 4970SOL    HW216362   4.240   7.392   3.393  1.4320 -0.5717 -0.9906
 4971SOL     OW16363   5.215   0.846   1.835  0.3097  0.4390 -0.5021
 4971SOL    HW116364   5.193   0.908   1.766  0.9344  1.4953  0.2190
 4971SOL    HW216365   5.131   0.826   1.877 -0.0030  0.1529 -1.2602
 4972SOL     OW16366   3.183   6.503   5.483 -0.2116  0.2708  0.1324
 4972SOL    HW116367   3.173   6.529   5.391 -0.4465  0.4529  0.2076
 4972SOL    HW216368   3.230   6.420   5.479 -1.3516 -0.3749 -0.2253
 4973SOL     OW16369   0.229   5.920   3.476 -0.4957  0.3872  0.6938
 4973SOL    HW116370   0.141   5.888   3.491  0.5154 -2.0186  2.0186
 4973SOL    HW216371   0.241   5.990   3.540 -0.7845 -0.6887  1.9680
 4974SOL     OW16372   0.827   1.805   4.153 -0.8302  0.7780  0.4838
 4974SOL    HW116373   0.846   1.837   4.241 -0.4102  0.6196  0.4491
 4974SOL    HW216374   0.839   1.710   4.159  0.8565  0.9229 -0.1584
 4975SOL     OW16375   7.706   8.956   4.253  0.0648 -0.4403  0.0113
 4975SOL    HW116376   7.665   8.979   4.336 -2.5437 -0.6007 -1.1470
 4975SOL    HW216377   7.717   9.039   4.208  0.9172 -0.4167  0.2472
 4976SOL     OW16378   6.253   6.544   0.336 -0.5318 -0.0315 -0.4453
 4976SOL    HW116379   6.276   6.577   0.423 -0.0843  0.5604 -0.7834
 4976SOL    HW216380   6.296   6.604   0.275  0.7570 -1.5522 -1.0891
 4977SOL     OW16381   7.328   4.263   1.729 -0.0619 -0.3515 -0.1338
 4977SOL    HW116382   7.334   4.194   1.795  2.2655  1.1415  1.3641
 4977SOL    HW216383   7.419   4.290   1.714 -0.7148  0.9066 -2.3045
 4978SOL     OW16384   1.041   5.511   3.920  0.3812 -0.1111 -0.4902
 4978SOL    HW116385   1.124   5.559   3.924 -0.1092  1.0065 -2.4698
 4978SOL    HW216386   1.007   5.528   3.832 -1.5807 -1.1925 -0.0136
 4979SOL     OW16387   3.648   8.936   0.241 -0.6242 -0.2509 -0.3556
 4979SOL    HW116388   3.655   9.030   0.261 -0.3053 -0.0690 -1.2420
 4979SOL    HW216389   3.671   8.931   0.148  1.5655 -1.4721  0.1828
 4980SOL     OW16390   5.623   2.180   8.880  0.0665 -0.2305  0.5393
 4980SOL    HW116391   5.549   2.186   8.819 -1.5829 -0.9392  2.3610
 4980SOL    HW216392   5.698   2.211   8.829 -0.7881 -2.5572 -2.4812
 4981SOL     OW16393   2.935   2.305   1.214  0.3776  0.3773 -0.3570
 4981SOL    HW116394   2.858   2.248   1.213  1.5188 -1.2206 -1.4901
 4981SOL    HW216395   2.951   2.322   1.307  0.8257 -2.3981  0.1535
 4982SOL     OW16396   2.334   0.363   7.441  0.0106 -0.3594 -0.1234
 4982SOL    HW116397   2.354   0.454   7.418 -0.3870 -0.6358 -1.7209
 4982SOL    HW216398   2.240   0.354   7.423  0.1114 -1.1597 -0.2858
 4983SOL     OW16399   9.190   8.315   5.442  0.1155 -0.2515 -0.2770
 4983SOL    HW116400   9.238   8.363   5.374  0.1231 -1.5644 -1.2243
 4983SOL    HW216401   9.116   8.277   5.396  0.0538 -1.0630  0.4829
 4984SOL     OW16402   2.981   1.628   0.367  0.0314 -0.1063  0.3167
 4984SOL    HW116403   3.059   1.680   0.386 -0.6993  1.0322  0.3130
 4984SOL    HW216404   2.912   1.693   0.354 -0.5590 -1.0101 -1.3527
 4985SOL     OW16405   2.856   6.772   7.690 -0.0126  0.2010  0.3041
 4985SOL    HW116406   2.804   6.739   7.763 -0.8796  1.4959  0.3142
 4985SOL    HW216407   2.817   6.734   7.612 -0.2470  0.2560  0.3943
 4986SOL     OW16408   7.959   5.830   7.896  0.2777 -0.0536  0.3305
 4986SOL    HW116409   7.911   5.755   7.862  1.7457 -1.3029  0.9220
 4986SOL    HW216410   7.897   5.903   7.888 -0.7662 -1.0534 -1.3698
 4987SOL     OW16411   1.861   7.444   6.760  0.0151 -0.4485 -0.3992
 4987SOL    HW116412   1.911   7.403   6.831 -0.8405  0.9956  1.1046
 4987SOL    HW216413   1.852   7.535   6.787 -1.3669 -0.1388 -1.8060
 4988SOL     OW16414   8.679   9.224   6.461  0.3204  0.3187  0.2635
 4988SOL    HW116415   8.720   9.307   6.439 -0.4557  0.5232 -0.4651
 4988SOL    HW216416   8.589   9.232   6.428  0.3067 -0.9027 -0.0412
 4989SOL     OW16417   7.391   8.391   8.422 -0.1187 -0.0644  0.1398
 4989SOL    HW116418   7.340   8.471   8.408 -0.0143 -0.1523 -0.7583
 4989SOL    HW216419   7.480   8.415   8.398 -0.0729 -0.4299 -0.0607
 4990SOL     OW16420   3.558   4.336   6.873  0.5125  0.4459  0.2552
 4990SOL    HW116421   3.616   4.336   6.797 -1.4743  1.1450 -1.3538
 4990SOL    HW216422   3.529   4.426   6.882 -1.1915 -0.0769  0.2974
 4991SOL     OW16423   5.585   4.637   3.282  0.0281  0.4943 -0.0294
 4991SOL    HW116424   5.497   4.642   3.318 -0.1156  0.4986 -0.3821
 4991SOL    HW216425   5.632   4.710   3.323  0.0982  0.0090  0.7751
 4992SOL     OW16426   0.446   5.431   3.999  0.4896 -0.2394 -0.8899
 4992SOL    HW116427   0.402   5.468   3.923  0.6013 -2.8112 -2.3264
 4992SOL    HW216428   0.375   5.393   4.051  0.5168  0.6520 -0.1635
 4993SOL     OW16429   3.127   9.253   0.334  0.4980  0.1933  0.0188
 4993SOL    HW116430   3.048   9.202   0.311  1.5502 -2.1742  1.3260
 4993SOL    HW216431   3.105   9.342   0.308 -2.3448 -0.4912 -0.3518
 4994SOL     OW16432   3.643   4.307   2.744  0.1881 -0.0638  0.8810
 4994SOL    HW116433   3.716   4.249   2.766  0.4787 -0.1783 -0.3154
 4994SOL    HW216434   3.650   4.379   2.807  1.2421 -0.1456  0.8748
 4995SOL     OW16435   0.035   4.486   8.219  0.1741  0.5330 -0.4228
 4995SOL    HW116436   0.086   4.490   8.300  1.1747 -0.8248 -0.9572
 4995SOL    HW216437  -0.015   4.567   8.218  1.7863  1.5817  0.4846
 4996SOL     OW16438   4.495   4.619   2.111  0.1088  0.0045 -0.2919
 4996SOL    HW116439   4.495   4.523   2.119 -0.9939  0.0526  0.5114
 4996SOL    HW216440   4.571   4.648   2.161  0.8200 -0.4737 -1.0656
 4997SOL     OW16441   3.144   5.951   8.665 -0.1327 -0.3267 -0.0281
 4997SOL    HW116442   3.190   5.894   8.604  2.7083  1.1378  0.5857
 4997SOL    HW216443   3.104   6.018   8.610  1.7428  0.5334 -0.4147
 4998SOL     OW16444   6.428   5.826   0.632 -0.3073  0.2308 -0.5323
 4998SOL    HW116445   6.407   5.763   0.562  0.3229 -0.9979  0.3519
 4998SOL    HW216446   6.480   5.893   0.588  1.3501 -1.2717 -1.0127
 4999SOL     OW16447   6.300   3.661   5.534 -0.5288 -0.3627 -0.3866
 4999SOL    HW116448   6.307   3.603   5.610 -0.1880  0.5074  0.2593
 4999SOL    HW216449   6.366   3.628   5.473  0.5133  0.0603  0.4781
 5000SOL     OW16450   7.916   2.538   6.709  0.1425  0.3377 -0.0501
 5000SOL    HW116451   7.989   2.596   6.687 -0.4267  0.3706 -1.9850
 5000SOL    HW216452   7.958   2.464   6.754  1.9125 -1.1514 -3.7181
 5001SOL     OW16453   4.647   6.464   5.128  0.4712 -0.2123 -0.4707
 5001SOL    HW116454   4.559   6.428   5.118  0.1782  0.2621  0.3194
 5001SOL    HW216455   4.634   6.559   5.121  1.0366 -0.1768 -1.1535
 5002SOL     OW16456   1.160   3.785   3.390  0.0819 -0.0790  0.0643
 5002SOL    HW116457   1.232   3.836   3.426  0.4975 -0.5346 -0.1072
 5002SOL    HW216458   1.163   3.801   3.296 -0.2096  0.1098  0.0860
 5003SOL     OW16459   3.857   5.277   1.899 -1.0777 -0.2131 -0.2209
 5003SOL    HW116460   3.852   5.284   1.804 -3.6981  0.3486 -0.1161
 5003SOL    HW216461   3.817   5.357   1.932  1.9045  0.7414  1.4547
 5004SOL     OW16462   6.727   3.321   3.557 -0.0138 -0.1682  0.7111
 5004SOL    HW116463   6.653   3.359   3.604  0.5258  3.1215 -0.8655
 5004SOL    HW216464   6.690   3.293   3.473 -0.0615 -1.6591  1.2026
 5005SOL     OW16465   4.640   5.810   1.034 -0.4029  0.3213  0.3344
 5005SOL    HW116466   4.591   5.891   1.046  0.6883  1.3995 -1.8630
 5005SOL    HW216467   4.668   5.785   1.122 -1.8474  1.6180  1.1928
 5006SOL     OW16468   2.446   5.510   3.136 -0.3108  0.6438 -0.1630
 5006SOL    HW116469   2.513   5.522   3.068  0.6734 -0.3088  0.6039
 5006SOL    HW216470   2.495   5.513   3.218 -1.2888  0.4215  0.4398
 5007SOL     OW16471   6.476   4.034   7.733  0.4361 -0.1116  0.6284
 5007SOL    HW116472   6.402   4.018   7.792  1.3003 -1.5604  1.3751
 5007SOL    HW216473   6.474   4.128   7.716 -1.6954 -0.1516  0.4521
 5008SOL     OW16474   8.818   3.126   5.309  0.4679 -0.2660  0.4017
 5008SOL    HW116475   8.859   3.103   5.392  0.1559 -0.0398  0.6215
 5008SOL    HW216476   8.872   3.196   5.273  0.2310  0.0864  0.7284
 5009SOL     OW16477   1.497   7.756   6.181 -0.0973  0.3066 -0.2784
 5009SOL    HW116478   1.452   7.692   6.236 -0.2589  0.4648 -0.2228
 5009SOL    HW216479   1.429   7.820   6.159  0.1201  0.5902 -0.1293
 5010SOL     OW16480   8.304   1.775   7.432  0.3508 -0.3251 -0.2967
 5010SOL    HW116481   8.383   1.769   7.379  0.2321  1.3580 -0.7187
 5010SOL    HW216482   8.233   1.746   7.374  0.7486 -3.4089  0.5618
 5011SOL     OW16483   7.213   8.300   4.116  0.2508  0.2056 -0.1268
 5011SOL    HW116484   7.127   8.289   4.156  0.6490 -1.6940  0.3136
 5011SOL    HW216485   7.264   8.225   4.148  1.1657 -0.3646 -2.6431
 5012SOL     OW16486   4.004   9.242   1.317  0.0483  0.2534  0.0827
 5012SOL    HW116487   3.951   9.261   1.395 -1.8821  2.2121 -1.5804
 5012SOL    HW216488   3.979   9.153   1.293 -1.4810  0.6341  0.1399
 5013SOL     OW16489   1.799   6.405   8.943  0.1141 -0.2436 -0.2364
 5013SOL    HW116490   1.763   6.342   8.880  2.1709 -0.4062 -1.3520
 5013SOL    HW216491   1.748   6.485   8.930  0.0070 -0.5133 -1.5830
 5014SOL     OW16492   8.282   9.180   1.653  0.3114  0.0703  0.1104
 5014SOL    HW116493   8.322   9.221   1.577  0.7298  1.2222  0.9311
 5014SOL    HW216494   8.352   9.174   1.717  0.3934 -2.3691 -0.1048
 5015SOL     OW16495   7.229   1.360   4.256 -0.3441 -0.2019  0.0863
 5015SOL    HW116496   7.309   1.308   4.258 -0.0082  0.3082  0.0970
 5015SOL    HW216497   7.177   1.326   4.329  0.2056 -0.0009  0.5785
 5016SOL     OW16498   6.662   0.778   7.937  0.1564 -0.5337 -0.1021
 5016SOL    HW116499   6.723   0.786   7.863  0.2581  0.5237  0.0832
 5016SOL    HW216500   6.687   0.696   7.980 -0.1853 -1.4039 -1.4845
 5017SOL     OW16501   2.834   4.052   8.457 -0.0347  0.1111 -0.3649
 5017SOL    HW116502   2.893   3.981   8.434  0.2247  0.5477 -1.0919
 5017SOL    HW216503   2.890   4.116   8.502 -0.0592  0.2874 -0.5819
 5018SOL     OW16504   9.234   0.009   7.001  1.0083 -0.2113  0.3559
 5018SOL    HW116505   9.145  -0.016   6.976  0.1517  0.7967  2.1949
 5018SOL    HW216506   9.242   0.100   6.973  2.3023 -0.9018 -1.7588
 5019SOL     OW16507   0.284   4.701   2.108 -0.0953  0.0567 -0.6573
 5019SOL    HW116508   0.375   4.680   2.089 -0.0086 -0.1008 -0.0930
 5019SOL    HW216509   0.254   4.631   2.166 -0.4767  0.2816 -0.5743
 5020SOL     OW16510   6.101   0.214   5.749 -0.1059  0.9525 -0.5743
 5020SOL    HW116511   6.166   0.282   5.764 -0.5288  1.3911 -0.7145
 5020SOL    HW216512   6.018   0.261   5.739 -0.8000  0.3111  1.5620
 5021SOL     OW16513   8.688   4.499   6.126 -0.2877  0.2180 -0.3875
 5021SOL    HW116514   8.749   4.483   6.054  1.1252  0.8016  0.6364
 5021SOL    HW216515   8.605   4.519   6.083 -0.0004 -1.4227 -1.8094
 5022SOL     OW16516   5.251   7.128   7.705 -0.0349  0.0927 -0.6700
 5022SOL    HW116517   5.297   7.143   7.788 -0.5652  0.8941 -0.5091
 5022SOL    HW216518   5.207   7.211   7.687 -0.1438 -0.1630 -1.6207
 5023SOL     OW16519   5.453   5.897   3.175  0.3116 -0.5441  0.1853
 5023SOL    HW116520   5.507   5.973   3.196  0.4112 -0.2330 -1.1252
 5023SOL    HW216521   5.429   5.860   3.261 -0.8594  1.7339  0.9423
 5024SOL     OW16522   7.552   9.160   2.174  0.7636 -0.1075  0.5676
 5024SOL    HW116523   7.463   9.170   2.142  0.3117 -0.9022  1.5318
 5024SOL    HW216524   7.595   9.243   2.154  0.0287  0.0098 -0.5721
 5025SOL     OW16525   9.257   8.758   7.136  0.5046 -0.2617  0.7004
 5025SOL    HW116526   9.272   8.723   7.048  0.2988  0.5878  0.3111
 5025SOL    HW216527   9.282   8.687   7.195  3.1813  0.0058  0.0304
 5026SOL     OW16528   8.376   0.466   5.316  0.1918  0.2921  0.2531
 5026SOL    HW116529   8.374   0.559   5.294 -1.0458 -0.1249 -1.6473
 5026SOL    HW216530   8.334   0.423   5.241  0.9033 -1.8175  0.9992
 5027SOL     OW16531   4.185   2.588   4.339 -0.4507 -0.4116  0.8339
 5027SOL    HW116532   4.112   2.631   4.294  1.0165  1.1773 -0.1715
 5027SOL    HW216533   4.257   2.651   4.332  1.4275 -2.4734  0.5645
 5028SOL     OW16534   4.220   7.468   1.487  0.6336  0.0246 -0.1980
 5028SOL    HW116535   4.197   7.375   1.495  1.0554 -0.2458 -1.7995
 5028SOL    HW216536   4.257   7.491   1.572  0.2125 -1.1791  0.3338
 5029SOL     OW16537   7.836   6.466   8.208  0.2014  0.4544  0.5539
 5029SOL    HW116538   7.816   6.373   8.208  0.6098  0.3563  1.7343
 5029SOL    HW216539   7.813   6.495   8.119 -1.4761 -0.4235  0.6466
 5030SOL     OW16540   5.147   0.210   0.576 -0.1365 -0.3372  0.2456
 5030SOL    HW116541   5.111   0.122   0.570  0.0295 -0.3133 -1.8191
 5030SOL    HW216542   5.072   0.266   0.597 -1.1423 -0.4652 -2.6400
 5031SOL     OW16543   4.420   5.400   9.100 -0.0572  0.3910 -0.0173
 5031SOL    HW116544   4.386   5.391   9.189  0.0991  0.5563  0.0602
 5031SOL    HW216545   4.346   5.378   9.044  0.8517 -3.7792  0.0944
 5032SOL     OW16546   7.838   7.251   5.327  0.0622 -0.2783  0.7983
 5032SOL    HW116547   7.788   7.228   5.405  2.1912 -1.4487  1.9159
 5032SOL    HW216548   7.857   7.166   5.285 -0.0208  0.2426 -0.3246
 5033SOL     OW16549   4.335   7.922   7.492  0.7057 -0.3343  0.2472
 5033SOL    HW116550   4.430   7.935   7.491  0.6138  0.3489 -0.3495
 5033SOL    HW216551   4.317   7.887   7.580  1.3446  0.9067  0.9014
 5034SOL     OW16552   2.574   6.436   3.428 -0.6484 -0.1532 -0.0136
 5034SOL    HW116553   2.579   6.521   3.471  0.0169  0.0448 -0.4761
 5034SOL    HW216554   2.582   6.373   3.500 -2.2785  0.1453  0.4726
 5035SOL     OW16555   5.171   8.333   3.044  0.3763 -0.0835 -0.0055
 5035SOL    HW116556   5.177   8.296   3.132 -0.0090  0.2378  0.1592
 5035SOL    HW216557   5.239   8.288   2.994  0.8991  0.0447  0.5699
 5036SOL     OW16558   4.078   4.736   7.331 -0.2077 -0.0097  0.0215
 5036SOL    HW116559   4.122   4.720   7.415 -0.4806 -3.1449 -0.3177
 5036SOL    HW216560   3.986   4.713   7.347 -0.2627 -0.6600 -1.1359
 5037SOL     OW16561   4.841   6.388   6.039 -0.5584  0.0966 -0.4068
 5037SOL    HW116562   4.751   6.392   6.007 -1.1356  1.5616  1.2320
 5037SOL    HW216563   4.895   6.397   5.961 -1.8334 -0.2887 -1.3580
 5038SOL     OW16564   0.188   5.466   6.808  0.0167 -0.3564 -0.4774
 5038SOL    HW116565   0.138   5.389   6.781  0.8106 -1.0786  0.0549
 5038SOL    HW216566   0.242   5.487   6.732  0.5247 -0.9416 -0.2846
 5039SOL     OW16567   1.015   4.491   7.938 -0.3311  0.0021 -0.5662
 5039SOL    HW116568   1.106   4.476   7.912 -0.4681 -1.0308 -0.4727
 5039SOL    HW216569   1.021   4.553   8.011  0.2649  0.2377 -0.8110
 5040SOL     OW16570   1.933   3.165   7.285  0.1436  0.2592 -0.0125
 5040SOL    HW116571   1.951   3.168   7.379 -1.6796 -1.6198  0.4734
 5040SOL    HW216572   2.002   3.109   7.249 -1.0404 -1.8317  0.8148
 5041SOL     OW16573   6.805   6.887   6.179 -0.5387 -0.1952  0.3273
 5041SOL    HW116574   6.834   6.915   6.092 -0.0135  0.7462  0.7969
 5041SOL    HW216575   6.826   6.793   6.182  4.2194  0.6406  1.2219
 5042SOL     OW16576   5.524   2.430   6.508  0.0648 -0.1990 -0.2981
 5042SOL    HW116577   5.567   2.459   6.427  0.6906 -0.0052  0.1064
 5042SOL    HW216578   5.555   2.340   6.521 -1.8368 -1.1201 -1.5271
 5043SOL     OW16579   2.860   9.223   6.435 -0.6812  0.3422 -0.7356
 5043SOL    HW116580   2.820   9.201   6.351 -2.1946  0.9243 -0.2066
 5043SOL    HW216581   2.790   9.212   6.499  0.3962  0.0591  0.4482
 5044SOL     OW16582   8.639   2.677   5.071  0.0618  0.1821 -0.1374
 5044SOL    HW116583   8.732   2.677   5.093  0.1877  2.2223 -0.5149
 5044SOL    HW216584   8.620   2.767   5.044 -1.8123 -0.4169 -0.9985
 5045SOL     OW16585   3.098   1.986   8.990  0.3458  0.0424 -0.0836
 5045SOL    HW116586   3.029   2.023   8.936 -0.9441 -0.0060  1.4659
 5045SOL    HW216587   3.170   2.050   8.984 -1.1488  1.9417  1.0506
 5046SOL     OW16588   6.808   3.730   3.744 -0.2968  0.2774 -0.9168
 5046SOL    HW116589   6.778   3.710   3.833  0.4320 -0.4846 -0.8329
 5046SOL    HW216590   6.828   3.645   3.705  2.0288  0.7111 -0.8526
 5047SOL     OW16591   8.620   5.190   0.793 -0.0852 -0.2313  0.2021
 5047SOL    HW116592   8.698   5.191   0.737  0.0991  0.3475  0.4609
 5047SOL    HW216593   8.547   5.185   0.731  0.1338 -0.0157 -0.0792
 5048SOL     OW16594   8.041   7.118   4.293 -0.1036  0.0952 -0.1006
 5048SOL    HW116595   8.124   7.078   4.268 -0.6959  0.0002 -2.0465
 5048SOL    HW216596   8.011   7.065   4.368  0.5807 -1.2162 -0.7111
 5049SOL     OW16597   7.517   2.850   1.144  0.4914  0.3947 -0.0663
 5049SOL    HW116598   7.546   2.854   1.053 -0.3771 -0.1618 -0.3882
 5049SOL    HW216599   7.542   2.762   1.173 -1.2844 -0.3211 -0.5350
 5050SOL     OW16600   5.816   1.758   7.720  0.3654 -0.0904  0.4701
 5050SOL    HW116601   5.855   1.775   7.634  0.5523 -0.3292  0.5051
 5050SOL    HW216602   5.760   1.834   7.737  1.4590  0.6870  0.7867
 5051SOL     OW16603   6.230   0.322   7.873 -0.1208  0.2865  0.0037
 5051SOL    HW116604   6.222   0.361   7.786  0.3212  0.2319 -0.0642
 5051SOL    HW216605   6.141   0.320   7.907 -0.2339  0.7492 -0.2591
 5052SOL     OW16606   0.612   8.798   1.103 -0.8798  0.4758 -0.2757
 5052SOL    HW116607   0.704   8.778   1.122 -0.5144  2.7607  0.7580
 5052SOL    HW216608   0.616   8.860   1.029 -1.5308  1.0196  0.1304
 5053SOL     OW16609   0.080   0.773   7.176  0.4599 -0.7060  0.4004
 5053SOL    HW116610  -0.005   0.801   7.142 -0.5830 -1.6933  2.0362
 5053SOL    HW216611   0.121   0.726   7.104 -1.5329 -2.4734  0.3226
 5054SOL     OW16612   7.363   2.924   8.167  0.4937  0.1485 -0.1012
 5054SOL    HW116613   7.452   2.954   8.147 -0.2211  1.7976 -0.9229
 5054SOL    HW216614   7.307   2.998   8.147 -1.1790 -1.1152 -0.3197
 5055SOL     OW16615   7.731   7.444   2.608  0.1103 -0.0891 -0.3431
 5055SOL    HW116616   7.705   7.535   2.599  1.2654  0.3624  0.6138
 5055SOL    HW216617   7.819   7.440   2.570  0.8535 -0.3458  1.2912
 5056SOL     OW16618   3.935   2.369   8.293 -0.4278 -0.3080 -0.0420
 5056SOL    HW116619   3.971   2.458   8.299 -0.1715 -0.4495  0.6717
 5056SOL    HW216620   3.840   2.382   8.287 -0.3628  0.0242 -0.4470
 5057SOL     OW16621   0.355   7.854   7.414 -0.4608  0.4860 -0.2800
 5057SOL    HW116622   0.293   7.917   7.450 -0.4637  0.3069  0.0340
 5057SOL    HW216623   0.307   7.810   7.345 -0.5004  0.7394 -0.4162
 5058SOL     OW16624   9.009   4.264   5.341 -0.4885 -0.3368 -0.0921
 5058SOL    HW116625   9.091   4.310   5.362  0.1510 -0.8576 -1.3561
 5058SOL    HW216626   8.971   4.244   5.426  1.5220 -1.5452  0.6110
 5059SOL     OW16627   4.829   7.663   8.305 -0.0319  0.4501  0.3441
 5059SOL    HW116628   4.777   7.613   8.241  0.7470  0.7634 -0.5603
 5059SOL    HW216629   4.819   7.754   8.276 -0.2819  0.6802  1.1339
 5060SOL     OW16630   6.131   7.990   0.639 -0.8349  0.1183  0.0119
 5060SOL    HW116631   6.109   7.897   0.651  0.8309 -0.2957  0.2005
 5060SOL    HW216632   6.201   8.006   0.702 -0.4402  1.2409 -0.6804
 5061SOL     OW16633   4.686   4.034   4.389 -0.1930  0.1960  0.1047
 5061SOL    HW116634   4.644   4.028   4.303  2.9419  0.0061 -1.5639
 5061SOL    HW216635   4.743   3.958   4.393  0.4570  0.7280  1.9711
 5062SOL     OW16636   7.672   5.426   4.045  0.5584  0.3733 -0.2251
 5062SOL    HW116637   7.668   5.521   4.054 -0.2254  0.3708 -0.4859
 5062SOL    HW216638   7.648   5.409   3.954 -0.0786 -0.1134  0.0229
 5063SOL     OW16639   5.727   0.113   5.503  0.5960  0.0009  0.7565
 5063SOL    HW116640   5.666   0.167   5.451  2.9635  0.0154 -2.3116
 5063SOL    HW216641   5.771   0.176   5.560 -0.1254  0.4909  0.7883
 5064SOL     OW16642   2.174   3.174   4.767  0.2299  0.0029 -0.3565
 5064SOL    HW116643   2.192   3.115   4.840  2.2687  0.9291 -0.0379
 5064SOL    HW216644   2.092   3.141   4.729  0.4529 -2.0268  0.7731
 5065SOL     OW16645   1.710   5.338   3.645  0.8104  0.2564 -0.0376
 5065SOL    HW116646   1.664   5.418   3.672  0.2764 -0.4514  1.2233
 5065SOL    HW216647   1.692   5.330   3.551  2.5560  2.6995 -0.6833
 5066SOL     OW16648   1.147   6.970   2.428  0.0794 -0.0085 -0.3292
 5066SOL    HW116649   1.134   6.945   2.519  0.6287 -1.7708 -0.6793
 5066SOL    HW216650   1.236   6.941   2.408  0.4326  1.5124 -1.0771
 5067SOL     OW16651   5.739   9.206   1.886 -0.1514  0.0405 -0.4277
 5067SOL    HW116652   5.662   9.160   1.919 -0.7839  0.7226 -0.9124
 5067SOL    HW216653   5.748   9.281   1.945 -0.0524  0.1354 -0.5631
 5068SOL     OW16654   7.952   7.968   6.448  0.7278  0.3927 -0.1468
 5068SOL    HW116655   7.957   8.062   6.429  0.3900  0.6452  0.9629
 5068SOL    HW216656   8.043   7.939   6.448  0.8268  0.6984 -0.6120
 5069SOL     OW16657   3.584   2.900   5.420  0.0794 -0.2735 -0.6463
 5069SOL    HW116658   3.579   2.955   5.343 -0.9869  2.6426  1.3522
 5069SOL    HW216659   3.635   2.951   5.483  0.2096 -2.1674  0.8848
 5070SOL     OW16660   9.076   5.070   9.210 -0.6382 -0.2304  0.1288
 5070SOL    HW116661   9.082   5.146   9.268 -0.0146 -1.0156  1.1436
 5070SOL    HW216662   8.987   5.037   9.225 -1.8685  1.7056 -2.2275
 5071SOL     OW16663   4.376   2.583   3.188 -0.0873 -0.1657 -0.6974
 5071SOL    HW116664   4.375   2.678   3.196 -1.2337 -0.0585 -1.8584
 5071SOL    HW216665   4.284   2.557   3.197  0.1965 -1.1515 -0.5642
 5072SOL     OW16666   0.689   7.200   7.661  0.1365 -0.1883  0.2627
 5072SOL    HW116667   0.594   7.201   7.650  0.0847  0.2224  0.7060
 5072SOL    HW216668   0.703   7.213   7.755  0.5868 -2.2905  0.5317
 5073SOL     OW16669   4.191   4.485   5.511  0.5944 -0.6255  0.8649
 5073SOL    HW116670   4.100   4.460   5.497  0.2871  0.6640  0.3908
 5073SOL    HW216671   4.237   4.454   5.433  0.0108  1.1580 -0.2687
 5074SOL     OW16672   5.323   5.428   4.552 -0.0497  0.1252 -0.6814
 5074SOL    HW116673   5.398   5.450   4.496  1.2413 -0.7589  0.6174
 5074SOL    HW216674   5.317   5.333   4.548 -2.6808  0.2798 -2.6389
 5075SOL     OW16675   0.618   1.869   4.619  0.3433 -0.6215 -0.0436
 5075SOL    HW116676   0.611   1.880   4.714 -1.3494 -1.8348  0.0185
 5075SOL    HW216677   0.628   1.959   4.586 -0.5076 -0.0394  1.1890
 5076SOL     OW16678   0.023   0.866   4.955 -0.0877  0.7197 -0.6544
 5076SOL    HW116679   0.003   0.774   4.938 -0.5849  0.9679 -1.4653
 5076SOL    HW216680  -0.058   0.902   4.990  0.1824  0.7989 -0.0948
 5077SOL     OW16681   5.727   7.104   4.131  0.8345 -0.2604  0.1828
 5077SOL    HW116682   5.719   7.197   4.153  0.9786 -0.4517  1.0572
 5077SOL    HW216683   5.786   7.068   4.198  0.0181 -1.1865  0.4209
 5078SOL     OW16684   4.189   0.746   7.939  0.3456 -0.4399 -0.8131
 5078SOL    HW116685   4.236   0.671   7.976 -0.8473 -1.3303 -1.0354
 5078SOL    HW216686   4.258   0.805   7.908  1.3428 -0.6443  0.8774
 5079SOL     OW16687   1.027   7.663   8.809  0.1069 -0.0175 -0.4344
 5079SOL    HW116688   1.065   7.578   8.832  0.1297  0.3841  1.0821
 5079SOL    HW216689   1.015   7.658   8.714  1.5526 -1.1141 -0.5979
 5080SOL     OW16690   6.933   3.255   3.187 -0.0970 -0.1893 -0.1073
 5080SOL    HW116691   6.929   3.313   3.111  0.9688 -1.0715 -0.8644
 5080SOL    HW216692   6.862   3.192   3.173 -0.4667  0.1801  0.0873
 5081SOL     OW16693   5.179   5.197   2.252  0.3038 -0.5165 -0.1600
 5081SOL    HW116694   5.147   5.175   2.340 -0.7645 -0.9047 -0.6201
 5081SOL    HW216695   5.235   5.274   2.265 -0.2552 -0.2532  0.8021
 5082SOL     OW16696   1.056   0.302   4.725  0.1657 -0.0172 -0.2997
 5082SOL    HW116697   1.150   0.304   4.738  0.1614  2.2455 -0.1549
 5082SOL    HW216698   1.042   0.351   4.644 -0.9380  0.4524  0.1532
 5083SOL     OW16699   7.535   2.208   3.633 -0.4897 -0.0368  0.2555
 5083SOL    HW116700   7.612   2.178   3.584  0.5113  2.0200  0.4320
 5083SOL    HW216701   7.485   2.259   3.569 -1.4612 -0.9245  0.2844
 5084SOL     OW16702   0.936   5.666   2.305  0.0134 -0.0835  0.0644
 5084SOL    HW116703   0.907   5.595   2.248 -2.5170  0.6149  0.3409
 5084SOL    HW216704   1.014   5.632   2.350  1.0651 -1.2689 -2.4777
 5085SOL     OW16705   3.784   9.090   9.165  0.2742  0.1884  0.5620
 5085SOL    HW116706   3.853   9.136   9.117  0.3317  0.3246  0.7757
 5085SOL    HW216707   3.716   9.075   9.099  0.6417 -0.2318  0.2701
 5086SOL     OW16708   9.112   4.782   6.125 -0.4077  0.2048 -0.5846
 5086SOL    HW116709   9.180   4.735   6.076  0.7189 -0.0379  1.1197
 5086SOL    HW216710   9.055   4.819   6.057  0.0927 -1.5097 -2.0197
 5087SOL     OW16711   3.486   8.262   1.222 -0.4941 -0.3274 -0.0319
 5087SOL    HW116712   3.415   8.198   1.227 -0.4282 -0.3869  0.1338
 5087SOL    HW216713   3.488   8.288   1.130 -1.8088  0.9030  0.2642
 5088SOL     OW16714   3.272   6.028   0.882 -0.2227  0.5203 -0.7305
 5088SOL    HW116715   3.230   6.035   0.796 -1.4398 -1.7294 -0.3987
 5088SOL    HW216716   3.205   5.991   0.939  0.3335  2.6018  1.4152
 5089SOL     OW16717   2.781   6.381   6.387  0.0315  0.5165  0.0765
 5089SOL    HW116718   2.705   6.336   6.424  0.1453  0.1832 -0.0827
 5089SOL    HW216719   2.787   6.346   6.297  0.5773  0.2757  0.2027
 5090SOL     OW16720   7.800   4.414   1.820 -0.1564 -0.3280 -0.0005
 5090SOL    HW116721   7.871   4.442   1.878 -1.0460 -0.2337  1.0692
 5090SOL    HW216722   7.720   4.436   1.868 -1.0339  2.5558 -2.4805
 5091SOL     OW16723   4.961   7.077   3.499  0.0777  0.5167 -0.5984
 5091SOL    HW116724   4.888   7.139   3.497 -1.5700 -1.3094  0.0383
 5091SOL    HW216725   4.932   7.004   3.445  0.5874 -1.1222  1.2447
 5092SOL     OW16726   8.163   4.004   0.475  0.0151 -0.0949 -0.4280
 5092SOL    HW116727   8.093   3.945   0.502 -0.5508  1.1599  1.0310
 5092SOL    HW216728   8.135   4.038   0.390 -0.9500  0.0810 -0.0486
 5093SOL     OW16729   1.134   3.009   9.279  0.2052  0.5398  0.1100
 5093SOL    HW116730   1.158   2.949   9.208  1.2170 -0.3556  1.1753
 5093SOL    HW216731   1.039   3.001   9.286 -0.0224  1.1699 -1.5666
 5094SOL     OW16732   6.381   5.890   7.128 -0.3726  0.2204 -0.2579
 5094SOL    HW116733   6.412   5.976   7.101 -1.1503  0.5651 -0.1004
 5094SOL    HW216734   6.391   5.835   7.050 -2.4435  1.1636 -1.2941
 5095SOL     OW16735   6.410   2.333   0.281  0.3989  0.2251 -0.3892
 5095SOL    HW116736   6.323   2.346   0.318 -0.1374 -1.0599 -1.1500
 5095SOL    HW216737   6.445   2.422   0.270 -0.6293  0.7345  0.3398
 5096SOL     OW16738   5.965   2.476   4.489  0.1463 -0.1404  0.6232
 5096SOL    HW116739   5.872   2.451   4.489 -0.1850  0.7205 -2.4893
 5096SOL    HW216740   5.966   2.565   4.524 -0.1131 -0.2818  1.0088
 5097SOL     OW16741   6.083   4.449   5.655 -0.4132  0.0840  0.3116
 5097SOL    HW116742   6.082   4.354   5.642  0.0506  0.1261 -0.0706
 5097SOL    HW216743   6.170   4.476   5.627 -1.4145  0.9771 -2.2798
 5098SOL     OW16744   5.990   3.143   3.855 -0.5244  0.4201  0.1327
 5098SOL    HW116745   5.915   3.197   3.877 -1.3696 -1.3856  1.9757
 5098SOL    HW216746   6.066   3.198   3.874 -1.3490  1.5744  0.1543
 5099SOL     OW16747   3.224   5.849   1.232  0.1349  0.1625  0.0591
 5099SOL    HW116748   3.199   5.759   1.211 -0.3289 -0.0465  1.3991
 5099SOL    HW216749   3.318   5.845   1.248 -0.1943 -0.5408  2.1372
 5100SOL     OW16750   1.327   3.572   3.244 -0.3530 -0.2867  0.3677
 5100SOL    HW116751   1.402   3.527   3.284 -2.0769 -1.7328  2.2069
 5100SOL    HW216752   1.332   3.661   3.279 -0.4040 -0.8356  1.8472
 5101SOL     OW16753   8.682   3.598   0.940  1.0428  0.4584  0.4435
 5101SOL    HW116754   8.647   3.687   0.944  2.2158  0.9366  0.4323
 5101SOL    HW216755   8.703   3.577   1.031 -0.0626 -0.1595  0.5645
 5102SOL     OW16756   6.136   3.903   7.478  0.2531  0.2595 -0.4077
 5102SOL    HW116757   6.155   3.993   7.504 -0.0612  0.4765 -0.9225
 5102SOL    HW216758   6.202   3.851   7.524 -0.4845  0.5951  1.0860
 5103SOL     OW16759   1.919   5.631   1.443  0.4394 -0.6297 -0.3317
 5103SOL    HW116760   1.970   5.614   1.363  1.1617 -1.7488  0.3354
 5103SOL    HW216761   1.841   5.677   1.412 -1.6309 -4.9137 -2.4546
 5104SOL     OW16762   2.763   2.704   4.811 -0.2887  0.3419  0.2987
 5104SOL    HW116763   2.778   2.795   4.836  0.1917  0.7048 -1.1951
 5104SOL    HW216764   2.842   2.679   4.763  0.0699 -1.2424  1.6441
 5105SOL     OW16765   5.814   1.541   1.896  0.6983 -0.4150  0.5034
 5105SOL    HW116766   5.742   1.477   1.889  1.6944 -1.5449  0.2561
 5105SOL    HW216767   5.811   1.590   1.813 -0.3800  0.2179  0.8987
 5106SOL     OW16768   6.100   4.129   2.688  0.6615  0.1780 -0.3336
 5106SOL    HW116769   6.026   4.096   2.638  0.1960  1.8345 -0.8093
 5106SOL    HW216770   6.083   4.101   2.778  0.0296 -0.3844 -0.6188
 5107SOL     OW16771   4.759   5.964   8.968  0.7109 -0.2797  0.0495
 5107SOL    HW116772   4.722   5.887   9.011  2.8521 -0.7224  1.2202
 5107SOL    HW216773   4.682   6.010   8.932 -0.8319 -1.7455  1.2898
 5108SOL     OW16774   1.864   1.356   1.429 -0.7502 -0.0225  0.4848
 5108SOL    HW116775   1.821   1.394   1.506  0.0546 -1.2101  1.5749
 5108SOL    HW216776   1.954   1.339   1.459  0.1343  1.1889 -1.3189
 5109SOL     OW16777   2.758   2.802   0.406  0.5182  0.6568  0.4520
 5109SOL    HW116778   2.736   2.867   0.473  2.9235  1.5808  0.4408
 5109SOL    HW216779   2.755   2.851   0.324 -0.1952  0.0886  0.1304
 5110SOL     OW16780   7.870   7.272   8.957  0.2082  0.2494 -0.1544
 5110SOL    HW116781   7.828   7.336   9.014 -0.1711 -2.1806  2.5426
 5110SOL    HW216782   7.961   7.301   8.949 -0.3578  2.0089 -0.5187
 5111SOL     OW16783   4.543   3.979   7.723  0.0716  0.1859  0.0070
 5111SOL    HW116784   4.614   3.944   7.777  0.4483  2.1834  0.8881
 5111SOL    HW216785   4.497   4.041   7.780 -1.0737  0.5200 -1.2087
 5112SOL     OW16786   1.359   6.290   5.303 -0.0247 -0.1241  0.5618
 5112SOL    HW116787   1.445   6.332   5.308  0.4575 -1.1707  1.2342
 5112SOL    HW216788   1.358   6.227   5.375 -1.1767 -0.4609  0.2741
 5113SOL     OW16789   6.659   8.899   9.208  0.0931 -0.3887  0.8728
 5113SOL    HW116790   6.623   8.934   9.290  0.4425  2.2386 -0.0383
 5113SOL    HW216791   6.748   8.872   9.231  1.6491  3.8528  0.7120
 5114SOL     OW16792   5.517   1.706   0.338 -0.1126  0.1308  0.3134
 5114SOL    HW116793   5.535   1.651   0.414 -0.2015  0.8312  0.8460
 5114SOL    HW216794   5.428   1.738   0.352 -0.0675  0.4011 -0.0049
 5115SOL     OW16795   5.644   7.392   5.795 -0.0004  0.3750  0.0809
 5115SOL    HW116796   5.640   7.413   5.888  0.5877 -2.9898  1.0356
 5115SOL    HW216797   5.722   7.437   5.764  1.2176 -0.3473  1.8826
 5116SOL     OW16798   3.834   0.196   6.524  0.0927  0.7968  0.0267
 5116SOL    HW116799   3.792   0.200   6.609 -0.1878 -1.2854  0.0319
 5116SOL    HW216800   3.768   0.229   6.463 -0.4896  0.3047  0.3809
 5117SOL     OW16801   7.519   0.429   8.251 -0.9139 -0.1874 -0.0405
 5117SOL    HW116802   7.513   0.391   8.163  0.1209  1.8028 -1.0520
 5117SOL    HW216803   7.503   0.523   8.237 -0.9427  0.1322  1.9340
 5118SOL     OW16804   3.760   5.925   9.201  0.0576 -0.0112  0.1434
 5118SOL    HW116805   3.852   5.898   9.193  0.1611  0.2682  0.3882
 5118SOL    HW216806   3.714   5.846   9.228 -0.0883 -0.6714 -1.8694
 5119SOL     OW16807   4.459   3.760   8.884 -0.0726 -0.3874 -0.4694
 5119SOL    HW116808   4.434   3.848   8.912  1.1499 -0.3206  0.4995
 5119SOL    HW216809   4.416   3.749   8.799  0.1502  1.3437 -0.8521
 5120SOL     OW16810   7.239   2.101   6.812  0.2050 -0.1209  0.2336
 5120SOL    HW116811   7.254   2.051   6.731 -0.4381  0.7078 -0.4165
 5120SOL    HW216812   7.303   2.172   6.809 -0.9401  0.9217 -0.4307
 5121SOL     OW16813   1.430   0.503   7.538 -0.5945  0.0880  0.3263
 5121SOL    HW116814   1.472   0.589   7.544  0.3097 -0.4132  1.4245
 5121SOL    HW216815   1.471   0.451   7.606 -0.8677 -1.3516 -0.5642
 5122SOL     OW16816   2.485   4.918   1.805  0.0722 -0.3603 -0.4564
 5122SOL    HW116817   2.528   4.883   1.726  0.4324 -0.3744 -0.2587
 5122SOL    HW216818   2.532   4.877   1.878  0.9350  1.0173 -0.2050
 5123SOL     OW16819   0.093   0.806   3.908 -0.6404  0.0319  0.3058
 5123SOL    HW116820  -0.002   0.810   3.913 -0.8631 -2.0167 -1.0597
 5123SOL    HW216821   0.111   0.773   3.820  1.3147 -0.0823  0.7018
 5124SOL     OW16822   1.455   0.039   2.996  0.7587 -0.4205  0.0242
 5124SOL    HW116823   1.422  -0.042   3.033  1.9753  0.3672  3.1910
 5124SOL    HW216824   1.516   0.011   2.928  0.1298 -2.0933  0.1043
 5125SOL     OW16825   2.415   6.344   4.155  0.4577  0.3843 -0.2988
 5125SOL    HW116826   2.411   6.333   4.060  1.0508  2.3269 -0.5961
 5125SOL    HW216827   2.448   6.433   4.167 -0.8378  0.6426  1.7386
 5126SOL     OW16828   2.181   2.228   8.115 -0.0604  0.0179 -0.0323
 5126SOL    HW116829   2.228   2.279   8.181 -0.6001  0.6313 -0.1119
 5126SOL    HW216830   2.153   2.149   8.162  1.7630 -0.7914 -0.1990
 5127SOL     OW16831   3.034   7.394   1.087  0.0646 -0.0294  0.1320
 5127SOL    HW116832   2.940   7.409   1.071  0.3738  1.3589 -0.4905
 5127SOL    HW216833   3.037   7.352   1.173 -1.1984 -1.3028 -0.3868
 5128SOL     OW16834   2.488   4.309   1.987 -0.0016 -0.0278  0.0941
 5128SOL    HW116835   2.498   4.220   1.952  0.6172 -0.1612  0.5860
 5128SOL    HW216836   2.548   4.312   2.062  1.5335  1.4204 -1.1035
 5129SOL     OW16837   2.168   5.545   6.504  0.6928 -0.5575 -0.0073
 5129SOL    HW116838   2.128   5.600   6.571 -0.7841 -0.9876 -0.5002
 5129SOL    HW216839   2.262   5.550   6.521  0.4246  0.3624  1.2898
 5130SOL     OW16840   3.521   5.144   7.342 -0.1839  0.2955 -0.2168
 5130SOL    HW116841   3.492   5.128   7.432 -1.3125 -2.7238 -0.9927
 5130SOL    HW216842   3.444   5.126   7.288  0.9101  0.3617 -1.9013
 5131SOL     OW16843   6.876   8.900   8.155  0.0451 -0.4908  0.2378
 5131SOL    HW116844   6.790   8.926   8.185 -0.5282 -1.4345 -0.5180
 5131SOL    HW216845   6.936   8.927   8.225 -0.7155  1.0905  0.3098
 5132SOL     OW16846   4.796   6.873   6.336  0.3040 -0.6297  0.0851
 5132SOL    HW116847   4.772   6.798   6.282  2.0671 -0.5390 -0.9322
 5132SOL    HW216848   4.891   6.863   6.349  0.3421  0.7240  1.0247
 5133SOL     OW16849   0.075   5.367   2.279 -0.0820  0.3116  0.6080
 5133SOL    HW116850   0.066   5.409   2.364  1.9614 -0.2077  1.1472
 5133SOL    HW216851   0.108   5.280   2.298  1.5697  0.5757 -0.7144
 5134SOL     OW16852   4.267   1.318   0.374  0.4000 -0.3842  0.0019
 5134SOL    HW116853   4.362   1.328   0.366  0.4648  1.0495  1.9236
 5134SOL    HW216854   4.254   1.226   0.396  1.4378 -0.3442  0.8265
 5135SOL     OW16855   2.920   7.839   9.233  0.0446  0.0845 -0.1418
 5135SOL    HW116856   2.995   7.825   9.291  1.2869 -0.4507 -1.8004
 5135SOL    HW216857   2.904   7.933   9.239 -0.0380  0.0083  1.2504
 5136SOL     OW16858   6.970   2.220   2.437  0.6791 -0.4111 -0.4399
 5136SOL    HW116859   6.950   2.313   2.425 -0.0273 -0.7138 -1.9205
 5136SOL    HW216860   7.065   2.214   2.432  0.7906  0.3249  0.5471
 5137SOL     OW16861   2.110   0.276   4.500  0.1395 -0.2897  0.3504
 5137SOL    HW116862   2.063   0.201   4.538  0.3429  0.9646  3.3462
 5137SOL    HW216863   2.192   0.281   4.551  1.8441 -0.1355 -2.2097
 5138SOL     OW16864   4.353   3.908   2.972 -0.1237 -0.1907 -0.0113
 5138SOL    HW116865   4.335   3.846   2.902 -1.4870 -0.1541  0.2754
 5138SOL    HW216866   4.394   3.856   3.042  1.0949 -0.2550 -0.7463
 5139SOL     OW16867   0.145   8.023   3.079 -0.0220 -0.0911 -1.3678
 5139SOL    HW116868   0.146   7.927   3.078 -1.7700 -0.1400 -2.3362
 5139SOL    HW216869   0.081   8.046   3.146 -0.2853  0.3772 -1.7738
 5140SOL     OW16870   3.675   6.660   7.181  0.2211  0.3925 -0.0596
 5140SOL    HW116871   3.738   6.608   7.132 -0.9340  0.1697 -1.3432
 5140SOL    HW216872   3.649   6.731   7.122 -3.5108 -1.5985 -1.1019
 5141SOL     OW16873   6.059   8.688   7.582  0.0255 -0.1464 -0.0386
 5141SOL    HW116874   6.015   8.603   7.581  2.1957 -1.3399 -1.2198
 5141SOL    HW216875   6.114   8.686   7.660  0.4316 -0.0270 -0.3191
 5142SOL     OW16876   1.255   8.679   5.241 -0.0722 -0.1693  0.2617
 5142SOL    HW116877   1.218   8.749   5.293 -0.6834 -0.8037  0.7047
 5142SOL    HW216878   1.217   8.599   5.278  1.0148 -0.7759  0.1149
 5143SOL     OW16879   6.365   4.133   4.046  0.1587  0.6179 -0.8038
 5143SOL    HW116880   6.397   4.046   4.020  1.2228  0.1091  1.8712
 5143SOL    HW216881   6.434   4.193   4.018  0.3456  0.3520 -0.9178
 5144SOL     OW16882   5.332   2.178   8.513 -0.1125 -0.1036  0.1860
 5144SOL    HW116883   5.324   2.169   8.608 -1.8662  0.3650  0.1294
 5144SOL    HW216884   5.257   2.233   8.488 -0.4868 -1.3341 -1.6225
 5145SOL     OW16885   4.172   7.832   8.737  0.0669 -0.1527  0.0539
 5145SOL    HW116886   4.120   7.906   8.767 -0.1392  0.1278 -0.9944
 5145SOL    HW216887   4.262   7.858   8.753  0.0572  0.8029 -1.3543
 5146SOL     OW16888   8.299   9.232   2.893 -0.0294  0.0366  0.6963
 5146SOL    HW116889   8.221   9.186   2.925 -1.5873  1.6212 -0.6002
 5146SOL    HW216890   8.281   9.324   2.911  0.8874  0.5635 -0.9166
 5147SOL     OW16891   5.576   2.055   4.950  0.3068  0.0052  0.1735
 5147SOL    HW116892   5.522   1.976   4.960  0.4324 -0.4127 -2.0575
 5147SOL    HW216893   5.520   2.116   4.903  1.3026  0.0547 -0.9780
 5148SOL     OW16894   6.988   8.867   1.180 -0.6297  0.5863 -0.1806
 5148SOL    HW116895   7.071   8.880   1.226 -0.0079 -0.3984 -0.9864
 5148SOL    HW216896   6.958   8.956   1.161  1.4982  1.0124 -2.0370
 5149SOL     OW16897   1.902   2.466   1.924 -0.4380 -0.5063  0.3413
 5149SOL    HW116898   1.969   2.497   1.985 -2.2722  0.2623  2.1005
 5149SOL    HW216899   1.916   2.518   1.845  0.0007  0.8938  1.2927
 5150SOL     OW16900   4.889   4.983   2.775 -0.2530 -0.2358  0.1793
 5150SOL    HW116901   4.841   4.923   2.832 -0.7265 -1.1596 -1.1393
 5150SOL    HW216902   4.947   4.926   2.725 -2.1104  0.0595 -2.5328
 5151SOL     OW16903   0.817   5.466   5.041 -0.3004 -0.5444 -0.5455
 5151SOL    HW116904   0.744   5.516   5.078  0.7497 -0.0085  0.9079
 5151SOL    HW216905   0.852   5.416   5.116 -0.6804 -2.6931 -1.7359
 5152SOL     OW16906   3.229   3.894   4.180  0.1374 -0.1403 -0.3522
 5152SOL    HW116907   3.220   3.814   4.128 -2.5746 -0.3693  0.3382
 5152SOL    HW216908   3.253   3.863   4.267  0.2181 -0.0947 -0.3575
 5153SOL     OW16909   5.598   2.151   3.198 -0.5531  0.6623 -0.4689
 5153SOL    HW116910   5.581   2.201   3.118  0.8170 -0.2233 -1.3533
 5153SOL    HW216911   5.566   2.063   3.177  0.4810  0.2397 -0.3339
 5154SOL     OW16912   0.927   7.393   2.385  0.3967 -0.4691 -0.1107
 5154SOL    HW116913   0.959   7.411   2.473  0.0111 -0.4004  0.0196
 5154SOL    HW216914   0.981   7.321   2.354  1.0791  0.0516 -0.1370
 5155SOL     OW16915   2.849   8.918   9.129 -0.1508 -0.2743 -0.2651
 5155SOL    HW116916   2.851   8.838   9.077  1.2277 -0.6276  0.2770
 5155SOL    HW216917   2.941   8.937   9.148 -0.5335  0.6545  0.8104
 5156SOL     OW16918   8.377   0.271   8.332  0.4383 -0.2661  0.0258
 5156SOL    HW116919   8.367   0.340   8.266  1.3852  1.8452  1.9710
 5156SOL    HW216920   8.471   0.260   8.342  0.3064 -2.0057 -0.3397
 5157SOL     OW16921   7.105   1.596   7.364  0.2697 -0.2780 -0.4958
 5157SOL    HW116922   7.038   1.570   7.426  0.1986 -0.9518 -0.8425
 5157SOL    HW216923   7.089   1.542   7.287 -0.1572  1.1199 -1.4242
 5158SOL     OW16924   6.630   7.211   0.531  0.2469 -0.0538  0.0023
 5158SOL    HW116925   6.688   7.197   0.456 -0.2406  0.4062 -0.4763
 5158SOL    HW216926   6.662   7.292   0.571 -0.5135  0.6278 -0.7204
 5159SOL     OW16927   1.934   0.512   0.270 -0.0724 -0.4167 -0.4772
 5159SOL    HW116928   2.028   0.507   0.254 -0.1787 -0.5505 -1.0645
 5159SOL    HW216929   1.902   0.579   0.210 -0.2680  0.0425  0.1248
 5160SOL     OW16930   0.610   1.650   8.531  0.5838 -0.0823 -0.1148
 5160SOL    HW116931   0.706   1.653   8.524  0.7177 -1.9975  0.5328
 5160SOL    HW216932   0.583   1.741   8.515  2.5329  0.6170  0.2285
 5161SOL     OW16933   6.357   0.408   3.221 -0.3964 -0.1823 -0.0344
 5161SOL    HW116934   6.351   0.313   3.208  0.7224 -0.4259  1.1001
 5161SOL    HW216935   6.441   0.422   3.264 -1.2590  1.1510  1.3311
 5162SOL     OW16936   5.968   3.504   3.415 -0.3994  0.4374  0.0512
 5162SOL    HW116937   5.937   3.417   3.389 -0.6329  0.1856  1.1191
 5162SOL    HW216938   5.997   3.544   3.334 -2.4358  0.2354 -0.8324
 5163SOL     OW16939   5.094   3.495   1.252 -0.0355  0.4585  0.4484
 5163SOL    HW116940   5.113   3.508   1.159  1.2241  0.2537  0.6518
 5163SOL    HW216941   5.009   3.451   1.254  0.1424  0.0312 -0.6357
 5164SOL     OW16942   5.829   6.016   3.685 -0.1979  0.4947  0.0776
 5164SOL    HW116943   5.739   6.044   3.699 -0.9718 -2.2234  1.2901
 5164SOL    HW216944   5.840   6.018   3.590 -1.4886  1.0054 -0.0817
 5165SOL     OW16945   8.310   2.985   4.417 -0.1805  0.0432 -0.5790
 5165SOL    HW116946   8.277   3.061   4.369 -1.8075 -0.7710 -0.8178
 5165SOL    HW216947   8.237   2.958   4.473 -0.2357 -2.3061 -1.6739
 5166SOL     OW16948   0.578   9.160   3.333  0.2322  0.0584  0.1766
 5166SOL    HW116949   0.520   9.091   3.301  1.7482 -0.5730 -1.4035
 5166SOL    HW216950   0.595   9.137   3.424  0.3639 -1.4258 -0.2047
 5167SOL     OW16951   8.194   4.205   8.118 -0.2969 -0.7139  0.1997
 5167SOL    HW116952   8.275   4.194   8.170 -0.1126  0.1281  0.1012
 5167SOL    HW216953   8.200   4.137   8.051  0.9384  0.1007 -0.5585
 5168SOL     OW16954   0.256   9.178   2.848  0.3189  0.2530 -0.0383
 5168SOL    HW116955   0.211   9.096   2.829  2.7869 -1.2912  0.4254
 5168SOL    HW216956   0.329   9.181   2.786  2.1570  0.4412  2.0324
 5169SOL     OW16957   0.550   8.460   1.694  0.2198  0.0677  0.1677
 5169SOL    HW116958   0.604   8.467   1.773 -0.1263  0.3968  0.3785
 5169SOL    HW216959   0.606   8.488   1.623  0.6075 -0.4429  0.2643
 5170SOL     OW16960   8.372   8.911   3.986  1.1743 -0.1505 -0.3155
 5170SOL    HW116961   8.356   8.848   3.915 -2.6182 -0.7536  0.8224
 5170SOL    HW216962   8.354   8.996   3.946  1.8030 -0.2064 -0.7321
 5171SOL     OW16963   1.387   7.226   2.402  0.4103 -0.2938 -0.5584
 5171SOL    HW116964   1.295   7.224   2.376  0.9060  0.6132 -2.5952
 5171SOL    HW216965   1.405   7.138   2.435 -0.8123 -0.9667 -1.6001
 5172SOL     OW16966   6.514   0.145   5.324 -0.2459  0.0186  0.1352
 5172SOL    HW116967   6.545   0.089   5.395 -0.0976 -0.0604  0.0071
 5172SOL    HW216968   6.450   0.091   5.277  0.8934 -0.5428 -0.8187
 5173SOL     OW16969   5.463   5.373   7.504 -0.3013 -0.1143  0.0911
 5173SOL    HW116970   5.429   5.303   7.449 -0.3138 -0.5328  0.6144
 5173SOL    HW216971   5.557   5.373   7.488 -0.3016 -0.2509  0.0930
 5174SOL     OW16972   6.040   6.498   2.280  0.3254  0.0507  0.4773
 5174SOL    HW116973   5.955   6.453   2.290 -1.0503  2.1710 -0.8182
 5174SOL    HW216974   6.046   6.556   2.356  1.1122 -0.7988  1.0781
 5175SOL     OW16975   5.558   1.616   9.174 -0.2783  0.1251  0.3927
 5175SOL    HW116976   5.589   1.691   9.224  0.8740 -0.4499  0.5617
 5175SOL    HW216977   5.543   1.650   9.086  0.9782  0.4030  0.2678
 5176SOL     OW16978   0.370   4.636   6.651 -0.0130  0.2827 -0.0229
 5176SOL    HW116979   0.423   4.558   6.666 -0.7280 -0.4000 -0.8738
 5176SOL    HW216980   0.373   4.649   6.556 -0.7949  0.6315 -0.0107
 5177SOL     OW16981   9.122   4.137   7.398 -0.2655 -0.0249 -0.0073
 5177SOL    HW116982   9.064   4.061   7.393 -0.7327  0.1628  1.8682
 5177SOL    HW216983   9.069   4.206   7.439  0.9397  0.4923  0.7400
 5178SOL     OW16984   4.174   3.605   2.171 -0.0036  0.5458 -0.1882
 5178SOL    HW116985   4.111   3.655   2.119 -1.6088 -1.4094 -0.2763
 5178SOL    HW216986   4.141   3.612   2.261 -1.2936 -1.6392 -0.4130
 5179SOL     OW16987   0.385   4.958   0.054 -0.3798  0.5697 -0.1067
 5179SOL    HW116988   0.365   5.040   0.008 -1.1924  0.0974 -0.6288
 5179SOL    HW216989   0.474   4.936   0.028  0.6824  2.3762  1.7177
 5180SOL     OW16990   6.874   1.394   2.178 -0.3474  0.5527  0.0444
 5180SOL    HW116991   6.929   1.429   2.248  1.8488 -0.4150 -1.1158
 5180SOL    HW216992   6.833   1.316   2.216 -1.4859  1.6156  1.1062
 5181SOL     OW16993   1.914   4.100   5.559  0.3442  0.6040 -1.1679
 5181SOL    HW116994   1.881   4.049   5.633  1.5034 -0.0272 -1.0496
 5181SOL    HW216995   1.846   4.165   5.541 -0.8435 -0.5207 -0.8454
 5182SOL     OW16996   3.742   6.925   2.751  0.4971 -0.4937  0.3527
 5182SOL    HW116997   3.753   6.858   2.683 -0.2074  0.2258 -0.4943
 5182SOL    HW216998   3.823   6.975   2.748 -0.2928  0.8106 -1.4315
 5183SOL     OW16999   6.616   1.269   1.880  0.0872 -0.3390 -0.6598
 5183SOL    HW117000   6.689   1.211   1.899  0.1212  0.1089  0.6852
 5183SOL    HW217001   6.644   1.319   1.803  0.4484 -1.3997 -1.2322
 5184SOL     OW17002   3.114   4.659   1.711  0.0844  0.4993 -0.2081
 5184SOL    HW117003   3.173   4.592   1.676 -0.8032 -1.1226  1.2244
 5184SOL    HW217004   3.152   4.681   1.796 -0.9407 -0.0194  0.4014
 5185SOL     OW17005   3.740   6.491   1.422 -0.3548 -0.5946 -0.6216
 5185SOL    HW117006   3.827   6.529   1.405 -0.0237 -1.2906 -0.5240
 5185SOL    HW217007   3.741   6.408   1.374 -1.6276  0.1875 -2.1155
 5186SOL     OW17008   5.425   2.015   6.623  0.9966  0.2082 -0.2789
 5186SOL    HW117009   5.357   2.072   6.660 -0.3620 -1.9558  0.7812
 5186SOL    HW217010   5.503   2.070   6.620 -0.1428  2.0258  0.9576
 5187SOL     OW17011   7.674   3.544   6.872  0.6128 -0.2700  0.4009
 5187SOL    HW117012   7.758   3.576   6.905  0.8219 -0.0225 -0.3516
 5187SOL    HW217013   7.609   3.581   6.931  0.7254  2.6579 -1.1551
 5188SOL     OW17014   0.232   8.083   7.942 -0.3011 -0.6391 -0.3349
 5188SOL    HW117015   0.284   8.007   7.919 -0.3758 -1.0977  0.9349
 5188SOL    HW217016   0.280   8.124   8.014 -1.9319 -1.3936  1.2569
 5189SOL     OW17017   7.276   1.928   7.037 -0.0076  0.1826  0.6671
 5189SOL    HW117018   7.238   1.978   6.966 -2.1710  0.2805  1.7996
 5189SOL    HW217019   7.224   1.848   7.041  0.2669  0.0408  1.9221
 5190SOL     OW17020   8.885   1.238   1.219  0.0775 -0.5188 -0.1587
 5190SOL    HW117021   8.889   1.332   1.239  1.8308 -0.6682  0.4040
 5190SOL    HW217022   8.847   1.234   1.132 -1.6671  0.5954  0.5003
 5191SOL     OW17023   7.147   3.686   5.043 -0.5526  0.4672  0.1760
 5191SOL    HW117024   7.171   3.610   4.989  0.9533  0.7325  0.4132
 5191SOL    HW217025   7.168   3.761   4.989 -0.6099  0.7248  0.5075
 5192SOL     OW17026   8.123   8.551   5.828  0.6449 -0.1347  0.2960
 5192SOL    HW117027   8.212   8.529   5.855  0.7047 -0.7906 -0.4099
 5192SOL    HW217028   8.111   8.507   5.745  0.2376  1.3215 -0.4566
 5193SOL     OW17029   3.574   0.647   7.369 -0.2588 -0.5240  0.3117
 5193SOL    HW117030   3.536   0.593   7.300  0.9971 -1.1539  0.1009
 5193SOL    HW217031   3.632   0.589   7.417  3.2275  1.1417 -1.5381
 5194SOL     OW17032   6.359   1.943   3.678 -0.4745  0.4279 -0.1256
 5194SOL    HW117033   6.358   1.980   3.766 -0.5400 -1.5465  0.7563
 5194SOL    HW217034   6.427   1.992   3.632 -1.4825  2.5333  0.5081
 5195SOL     OW17035   5.596   5.904   0.863  0.7667 -0.4476 -0.5725
 5195SOL    HW117036   5.518   5.849   0.853 -0.0708  0.2558  1.5596
 5195SOL    HW217037   5.569   5.990   0.830 -1.0797  1.1031  4.1279
 5196SOL     OW17038   3.527   7.052   1.314  0.4095 -0.1052 -0.3930
 5196SOL    HW117039   3.609   7.032   1.267  1.0841  1.5140  0.0216
 5196SOL    HW217040   3.458   7.024   1.254  1.2376 -1.6782 -0.6874
 5197SOL     OW17041   5.667   0.009   3.977 -0.2568  0.0425 -0.0007
 5197SOL    HW117042   5.679  -0.055   4.047 -0.4982  0.8625  0.7975
 5197SOL    HW217043   5.574   0.031   3.981 -0.2195  0.2859 -0.4198
 5198SOL     OW17044   6.419   5.073   2.285  0.3376  0.2844 -0.2457
 5198SOL    HW117045   6.478   5.047   2.356  1.3850  2.5365 -0.2178
 5198SOL    HW217046   6.432   5.007   2.217  2.4481  0.3755  0.0101
 5199SOL     OW17047   5.457   0.878   0.051 -0.1646  0.2646  0.2301
 5199SOL    HW117048   5.371   0.840   0.066 -0.9876  1.3004 -1.5472
 5199SOL    HW217049   5.461   0.953   0.111 -0.8122  0.6388 -0.1868
 5200SOL     OW17050   7.204   5.474   0.430 -0.2899 -0.0811  0.2714
 5200SOL    HW117051   7.275   5.513   0.379 -0.3968 -0.4115 -0.1385
 5200SOL    HW217052   7.238   5.469   0.519  0.0249  0.1913  0.1698
 5201SOL     OW17053   3.570   2.838   8.772 -0.2582 -0.4393  0.6879
 5201SOL    HW117054   3.638   2.905   8.762 -0.5257 -0.2297  0.1998
 5201SOL    HW217055   3.544   2.843   8.864  1.2029 -1.3316  1.1696
 5202SOL     OW17056   6.189   5.713   6.574 -0.1212 -0.0263  0.4758
 5202SOL    HW117057   6.105   5.728   6.616  0.5676 -0.1735  1.9684
 5202SOL    HW217058   6.193   5.777   6.503 -1.7539 -0.4575 -0.0376
 5203SOL     OW17059   4.370   8.076   1.182  0.2287 -0.1624  1.1083
 5203SOL    HW117060   4.357   7.994   1.133  0.8808 -0.3288  1.2020
 5203SOL    HW217061   4.319   8.064   1.262 -1.2194  0.2964  0.2836
 5204SOL     OW17062   7.869   4.320   0.568  0.0986 -0.4355  0.4030
 5204SOL    HW117063   7.959   4.342   0.544  0.0258  0.1686  0.6821
 5204SOL    HW217064   7.878   4.249   0.632  0.3187 -1.4675 -0.7307
 5205SOL     OW17065   5.584   7.648   0.652  0.3169  0.7876  0.9363
 5205SOL    HW117066   5.587   7.667   0.746 -1.5891  0.2321  1.1498
 5205SOL    HW217067   5.515   7.706   0.619  0.2373  0.2057  0.0799
 5206SOL     OW17068   7.681   1.140   2.199 -0.0738 -0.4189 -0.8709
 5206SOL    HW117069   7.639   1.079   2.260 -0.1370  0.1478 -0.3379
 5206SOL    HW217070   7.708   1.085   2.125 -1.0283 -0.9242 -0.8558
 5207SOL     OW17071   4.915   6.500   9.021  0.2669 -0.4359 -0.5617
 5207SOL    HW117072   4.829   6.540   9.033  0.9391  1.0192 -0.3635
 5207SOL    HW217073   4.976   6.574   9.020  1.6026 -1.4816  0.0969
 5208SOL     OW17074   5.122   0.476   0.240  0.3632  0.2076 -0.0222
 5208SOL    HW117075   5.102   0.414   0.310  0.7119  1.3622  1.1287
 5208SOL    HW217076   5.208   0.511   0.263  1.0398 -0.2639 -1.6777
 5209SOL     OW17077   1.989   4.379   1.218 -0.8080  0.6821  0.0317
 5209SOL    HW117078   1.916   4.324   1.245 -0.9841  0.3111 -1.1490
 5209SOL    HW217079   2.066   4.335   1.255 -0.9037 -0.6243 -1.2377
 5210SOL     OW17080   8.811   5.971   4.934 -0.3717 -0.1721  0.8187
 5210SOL    HW117081   8.825   6.027   5.010  1.0921 -1.3873  1.4915
 5210SOL    HW217082   8.885   5.989   4.876 -0.0692 -1.1119  0.8829
 5211SOL     OW17083   4.278   5.865   2.769 -0.5920  0.6947  0.3227
 5211SOL    HW117084   4.340   5.886   2.699 -0.5903  0.3139  0.2042
 5211SOL    HW217085   4.258   5.949   2.810  0.6068  0.7223  0.8684
 5212SOL     OW17086   2.855   9.153   3.329 -0.1940 -0.3697 -0.3140
 5212SOL    HW117087   2.929   9.213   3.316 -0.0631 -0.4501  0.0657
 5212SOL    HW217088   2.877   9.104   3.407 -0.6481 -0.4006 -0.2018
 5213SOL     OW17089   8.722   1.571   5.467 -0.4476  0.3693  0.2103
 5213SOL    HW117090   8.633   1.585   5.500 -1.4376  0.8870 -2.4020
 5213SOL    HW217091   8.757   1.500   5.521 -2.4663  0.0803  1.2499
 5214SOL     OW17092   1.417   8.744   6.850 -0.2391  0.1413  0.1534
 5214SOL    HW117093   1.387   8.782   6.933 -1.7819  0.0772 -0.3364
 5214SOL    HW217094   1.344   8.688   6.822 -0.0862  0.7541 -1.6077
 5215SOL     OW17095   2.446   3.177   0.808  0.1149 -0.2770  0.3289
 5215SOL    HW117096   2.518   3.231   0.776 -0.7133  0.0811 -0.9688
 5215SOL    HW217097   2.478   3.142   0.892  1.7934 -0.1538 -0.2320
 5216SOL     OW17098   1.882   5.393   9.184 -0.1579  0.4067  0.5056
 5216SOL    HW117099   1.965   5.356   9.213  0.4147  1.1611 -0.1549
 5216SOL    HW217100   1.847   5.329   9.122  1.1426  1.2194 -1.1343
 5217SOL     OW17101   3.382   6.760   8.909  0.1302  0.1994  0.4008
 5217SOL    HW117102   3.315   6.705   8.869  1.2695 -0.4096 -0.7360
 5217SOL    HW217103   3.334   6.832   8.950 -1.3035 -0.9956  0.8796
 5218SOL     OW17104   8.209   1.462   8.059 -0.0272  0.2696  0.0868
 5218SOL    HW117105   8.265   1.492   7.987  0.1515 -1.7906 -0.6969
 5218SOL    HW217106   8.126   1.438   8.017 -1.3594  2.6785  1.1491
 5219SOL     OW17107   5.948   5.762   6.658 -0.1100 -0.2628 -0.7353
 5219SOL    HW117108   5.865   5.747   6.614 -0.9590  1.4201  0.1684
 5219SOL    HW217109   5.940   5.850   6.696  1.3976 -0.7505  0.8818
 5220SOL     OW17110   1.360   2.798   0.846  0.4507  0.0555  0.6593
 5220SOL    HW117111   1.349   2.849   0.766 -0.6333  1.4733  1.6727
 5220SOL    HW217112   1.455   2.796   0.860  0.5314  1.9797  0.6846
 5221SOL     OW17113   6.230   3.145   8.989  0.0212 -0.4750  0.0935
 5221SOL    HW117114   6.265   3.213   9.046  0.5114  0.8326 -1.6724
 5221SOL    HW217115   6.149   3.182   8.954  0.0322 -1.0028 -0.5201
 5222SOL     OW17116   7.669   1.099   8.069  0.0173  0.3621  0.0463
 5222SOL    HW117117   7.726   1.022   8.068 -1.6021 -0.9087  0.6284
 5222SOL    HW217118   7.647   1.112   8.161  0.8396  2.0041  0.0453
 5223SOL     OW17119   7.616   1.161   2.748  0.1095  0.6608 -0.3469
 5223SOL    HW117120   7.640   1.204   2.666 -1.0378  2.0869  0.0214
 5223SOL    HW217121   7.586   1.074   2.722  1.0201  0.6177 -1.2870
 5224SOL     OW17122   4.821   9.148   6.111  0.1628  0.2346  0.1855
 5224SOL    HW117123   4.904   9.133   6.157 -0.1364  1.7092  1.2925
 5224SOL    HW217124   4.784   9.226   6.153 -2.9232 -1.6584  1.3867
 5225SOL     OW17125   0.426   2.052   5.579  0.2333 -0.0573 -0.0918
 5225SOL    HW117126   0.367   2.001   5.635 -0.8100  0.6031 -0.5407
 5225SOL    HW217127   0.450   2.127   5.633 -0.8712  0.6431 -0.5354
 5226SOL     OW17128   2.414   1.137   0.660 -0.6044  0.3361 -0.0631
 5226SOL    HW117129   2.327   1.174   0.678 -0.2113  1.1008  0.3162
 5226SOL    HW217130   2.470   1.174   0.728 -0.3224 -1.5424  0.7747
 5227SOL     OW17131   1.470   6.151   5.540 -0.2628  0.2192 -0.3498
 5227SOL    HW117132   1.410   6.147   5.615 -0.5392  2.4076 -0.3744
 5227SOL    HW217133   1.555   6.126   5.576 -0.9469 -1.8340 -0.0547
 5228SOL     OW17134   1.599   7.791   4.659 -0.0243  0.2121 -0.0493
 5228SOL    HW117135   1.673   7.784   4.719 -0.7646 -1.7986  0.7140
 5228SOL    HW217136   1.598   7.707   4.613 -1.1762  0.6401 -0.8438
 5229SOL     OW17137   0.383   8.912   0.120  0.6864  0.5839 -0.2598
 5229SOL    HW117138   0.309   8.887   0.065 -0.0406  1.5190  0.2458
 5229SOL    HW217139   0.355   8.995   0.160  1.3845  0.1828  1.1262
 5230SOL     OW17140   1.921   3.237   1.288 -0.1960 -0.0430  0.3044
 5230SOL    HW117141   1.864   3.161   1.300 -0.3361  0.1632  1.0134
 5230SOL    HW217142   1.911   3.261   1.196  0.4037 -1.3165 -0.1206
 5231SOL     OW17143   1.119   3.517   0.610  0.0044  0.1452 -0.3237
 5231SOL    HW117144   1.164   3.477   0.535 -2.1739  0.0861 -1.6844
 5231SOL    HW217145   1.083   3.599   0.576  0.1920  0.8476  1.0873
 5232SOL     OW17146   4.223   1.102   1.745 -0.5046  0.0175 -0.3847
 5232SOL    HW117147   4.294   1.038   1.749 -1.7395 -1.4502 -0.7916
 5232SOL    HW217148   4.193   1.098   1.654 -0.9185  0.8504 -0.2974
 5233SOL     OW17149   1.728   4.084   3.912  0.0585 -0.0036  0.0204
 5233SOL    HW117150   1.782   4.150   3.955  0.8209 -1.0049  0.6336
 5233SOL    HW217151   1.786   4.042   3.849 -0.8990  1.0769 -1.6653
 5234SOL     OW17152   6.818   0.819   3.562  0.1962 -0.3276  0.1314
 5234SOL    HW117153   6.788   0.777   3.643 -0.4162 -1.1487 -0.5068
 5234SOL    HW217154   6.839   0.746   3.504  1.2451  0.2520 -0.2414
 5235SOL     OW17155   2.230   4.847   2.405 -0.8008 -0.1133  0.4891
 5235SOL    HW117156   2.202   4.827   2.494 -0.9514 -0.6067  0.3380
 5235SOL    HW217157   2.255   4.762   2.368  0.5419  0.2517  0.4895
 5236SOL     OW17158   2.655   3.237   6.607  0.2671  0.4977  0.0487
 5236SOL    HW117159   2.696   3.158   6.572  0.7231  0.1865  1.2580
 5236SOL    HW217160   2.683   3.241   6.698 -1.1719  1.1029  0.4926
 5237SOL     OW17161   7.967   3.551   4.533  0.2501  0.2510  0.2267
 5237SOL    HW117162   7.974   3.598   4.450 -0.4142  0.2968  0.1954
 5237SOL    HW217163   7.975   3.459   4.510 -1.2890  0.1669 -0.0679
 5238SOL     OW17164   4.174   6.209   2.184 -0.0442  0.7484  0.0584
 5238SOL    HW117165   4.238   6.268   2.147  0.6998  0.7063  1.2148
 5238SOL    HW217166   4.224   6.156   2.246 -0.8377 -0.5696 -0.3870
 5239SOL     OW17167   5.802   3.709   7.920 -0.5768 -0.1365  0.0005
 5239SOL    HW117168   5.708   3.704   7.938 -0.6222  3.1387  1.4954
 5239SOL    HW217169   5.843   3.697   8.005  0.2017  0.5559 -0.2662
 5240SOL     OW17170   0.857   4.467   7.685 -0.6400 -0.0723  0.1308
 5240SOL    HW117171   0.916   4.499   7.753 -0.8253  0.1018  0.2106
 5240SOL    HW217172   0.855   4.373   7.698  0.2638 -0.1771 -0.3902
 5241SOL     OW17173   7.070   4.693   3.505  0.0860  0.4014  0.2047
 5241SOL    HW117174   7.130   4.685   3.431  0.8109  1.6118  0.6364
 5241SOL    HW217175   7.127   4.712   3.580 -0.7727  0.8969  0.7483
 5242SOL     OW17176   0.201   0.418   8.524 -0.2254 -0.0135  0.1494
 5242SOL    HW117177   0.195   0.415   8.620 -1.8258 -2.2271  0.0538
 5242SOL    HW217178   0.131   0.477   8.497 -0.3120 -0.0489  0.2977
 5243SOL     OW17179   2.196   4.937   3.351  0.3396 -0.3774 -0.5382
 5243SOL    HW117180   2.282   4.960   3.386  0.9533 -1.0162 -1.5709
 5243SOL    HW217181   2.171   4.857   3.398  0.2432 -0.1080 -0.1318
 5244SOL     OW17182   7.727   6.902   0.429 -0.2436  0.3348 -0.0233
 5244SOL    HW117183   7.813   6.867   0.406 -0.6733  0.2503 -1.5874
 5244SOL    HW217184   7.702   6.853   0.508  0.6914 -0.3843 -0.1595
 5245SOL     OW17185   4.758   3.149   4.644 -0.4864  0.4084 -0.5317
 5245SOL    HW117186   4.767   3.171   4.737  0.5091 -1.1418 -0.2193
 5245SOL    HW217187   4.679   3.195   4.616 -1.2230  0.3410  1.2778
 5246SOL     OW17188   1.172   6.272   6.583 -0.6084  0.0960  0.3899
 5246SOL    HW117189   1.252   6.229   6.551 -0.3880  1.9087 -1.7401
 5246SOL    HW217190   1.203   6.340   6.643 -0.6587 -0.0727  0.6081
 5247SOL     OW17191   7.995   4.622   0.017 -0.1412 -0.3779  0.1492
 5247SOL    HW117192   8.054   4.571  -0.039  1.6545 -1.9878  3.2475
 5247SOL    HW217193   8.036   4.708   0.022  0.3492 -0.5970 -0.0090
 5248SOL     OW17194   5.622   8.727   2.826 -0.1377  0.5066  0.0469
 5248SOL    HW117195   5.566   8.716   2.902  0.2626  0.7886  0.3848
 5248SOL    HW217196   5.709   8.745   2.862  0.5351 -1.4790 -0.4345
 5249SOL     OW17197   5.506   4.279   5.817  0.3559 -0.3031  0.0281
 5249SOL    HW117198   5.509   4.207   5.879  0.4992  0.4985  0.9820
 5249SOL    HW217199   5.566   4.253   5.747  1.1611 -0.6804  0.8335
 5250SOL     OW17200   6.484   7.478   1.549  0.3404 -0.2061 -0.4820
 5250SOL    HW117201   6.564   7.448   1.591  0.7379  2.0964  0.5764
 5250SOL    HW217202   6.413   7.438   1.600  0.7345 -2.2699 -1.4411
 5251SOL     OW17203   0.666   9.018   7.641  0.2551 -0.2136  0.0738
 5251SOL    HW117204   0.648   8.988   7.730  0.7798  0.4470  0.4094
 5251SOL    HW217205   0.663   9.113   7.647  2.5595 -0.0708 -0.1098
 5252SOL     OW17206   6.533   5.340   9.270  0.4517 -0.2751 -0.6806
 5252SOL    HW117207   6.605   5.307   9.324 -0.3126 -0.4606  0.2347
 5252SOL    HW217208   6.541   5.436   9.276 -0.0481 -0.2854  0.3553
 5253SOL     OW17209   1.500   4.575   8.832 -0.1096  0.5022 -0.0992
 5253SOL    HW117210   1.532   4.630   8.904  1.4513  1.4677 -1.4350
 5253SOL    HW217211   1.550   4.494   8.839 -1.8072 -0.4797  1.3719
 5254SOL     OW17212   7.432   7.470   6.643 -0.4593 -0.7817  0.1420
 5254SOL    HW117213   7.363   7.405   6.652 -0.6537 -0.3932  1.7824
 5254SOL    HW217214   7.393   7.540   6.590 -0.4462 -1.6822 -1.1074
 5255SOL     OW17215   9.027   1.553   1.539  0.1862  0.1917  0.9388
 5255SOL    HW117216   9.123   1.550   1.541  0.3110  0.9129 -1.2275
 5255SOL    HW217217   9.005   1.633   1.586  0.9906  2.3754 -2.0594
 5256SOL     OW17218   6.258   2.423   7.502 -0.3050 -0.0367 -0.1834
 5256SOL    HW117219   6.316   2.480   7.452  0.7380 -2.4687 -1.9335
 5256SOL    HW217220   6.304   2.407   7.584  0.7300 -0.5981 -0.8617
 5257SOL     OW17221   6.107   5.674   6.908  0.2344 -0.5036 -0.4795
 5257SOL    HW117222   6.025   5.697   6.865  0.2459 -1.0229 -0.7866
 5257SOL    HW217223   6.174   5.689   6.841  0.6369  1.7802  0.3432
 5258SOL     OW17224   4.605   6.854   9.102 -0.1359 -0.3311 -0.1009
 5258SOL    HW117225   4.684   6.826   9.055  0.1833  0.9199 -0.3658
 5258SOL    HW217226   4.633   6.932   9.150 -1.4768  0.8315 -1.1124
 5259SOL     OW17227   0.453   9.023   3.901 -0.4878  0.1094 -0.2173
 5259SOL    HW117228   0.360   9.006   3.918 -0.7238  0.9907 -0.5811
 5259SOL    HW217229   0.457   9.115   3.875  0.4035 -0.0978 -0.8859
 5260SOL     OW17230   7.759   2.059   6.038 -0.2951 -0.0031  0.5198
 5260SOL    HW117231   7.667   2.080   6.024 -0.2642  0.5940  1.1562
 5260SOL    HW217232   7.806   2.113   5.974 -0.4198 -1.0194 -0.4716
 5261SOL     OW17233   8.610   6.127   1.488 -0.3737 -0.3543  0.2331
 5261SOL    HW117234   8.541   6.065   1.508 -0.1369 -0.1787  1.6681
 5261SOL    HW217235   8.644   6.098   1.403 -1.7589 -0.8155 -0.1946
 5262SOL     OW17236   6.281   3.902   0.689  0.1785  0.2492  0.0611
 5262SOL    HW117237   6.190   3.872   0.680 -0.1233  1.0499  0.3249
 5262SOL    HW217238   6.320   3.886   0.603  0.7690 -3.1341  0.8149
 5263SOL     OW17239   4.542   0.741   6.915 -0.1671  0.1738 -0.5384
 5263SOL    HW117240   4.518   0.679   6.846 -0.7161  0.0460 -0.2335
 5263SOL    HW217241   4.542   0.826   6.871 -1.2195  0.1815 -0.5338
 5264SOL     OW17242   5.418   3.464   2.982 -0.5837  0.7655  0.0029
 5264SOL    HW117243   5.403   3.415   2.900 -1.6253  1.3334 -0.1735
 5264SOL    HW217244   5.450   3.549   2.953  1.8757  0.0295  0.3359
 5265SOL     OW17245   8.978   7.266   3.872 -0.0425 -0.0672  0.0014
 5265SOL    HW117246   8.952   7.282   3.963 -0.1071 -2.7135  0.5227
 5265SOL    HW217247   9.060   7.216   3.879 -0.1799 -0.5313 -1.3730
 5266SOL     OW17248   0.067   4.232   6.180 -0.2415  0.2289 -0.3106
 5266SOL    HW117249   0.156   4.210   6.151 -0.0868  2.3455 -1.6740
 5266SOL    HW217250   0.010   4.202   6.110 -0.5522 -0.3633  0.1799
 5267SOL     OW17251   5.704   1.536   0.532  0.0906 -0.2927  0.3104
 5267SOL    HW117252   5.705   1.467   0.599 -0.5798 -0.3233  0.2960
 5267SOL    HW217253   5.654   1.607   0.572  2.3244  0.9558  1.0541
 5268SOL     OW17254   2.585   7.634   2.464 -0.5442 -0.2137 -0.1478
 5268SOL    HW117255   2.638   7.557   2.486  0.1407  0.5343  0.8832
 5268SOL    HW217256   2.573   7.680   2.547 -0.2629  1.2198 -0.8710
 5269SOL     OW17257   0.809   4.596   4.438 -0.2805  0.1104  0.5975
 5269SOL    HW117258   0.763   4.557   4.364  0.7549 -0.4051  0.2003
 5269SOL    HW217259   0.743   4.602   4.507 -0.7749 -1.2123  0.2681
 5270SOL     OW17260   6.911   7.693   7.122  0.6507  0.0773  0.1905
 5270SOL    HW117261   6.969   7.629   7.083  2.2138  0.9673  0.9596
 5270SOL    HW217262   6.892   7.755   7.052 -0.9133 -1.1833 -0.5718
 5271SOL     OW17263   8.991   4.762   4.058  0.4081  0.1976 -0.5148
 5271SOL    HW117264   8.984   4.857   4.060  0.5653  0.1995  0.1569
 5271SOL    HW217265   8.956   4.734   4.142 -0.9668 -0.4371 -1.2592
 5272SOL     OW17266   0.066   4.600   2.666  0.5199 -0.1944  0.1353
 5272SOL    HW117267   0.012   4.585   2.588  0.3299 -2.6407  0.6457
 5272SOL    HW217268   0.022   4.550   2.735  1.7377  0.3412  1.3376
 5273SOL     OW17269   2.551   2.798   1.229  0.2000 -0.5400 -0.0794
 5273SOL    HW117270   2.545   2.705   1.211 -0.0101 -0.4271 -0.6051
 5273SOL    HW217271   2.473   2.836   1.187 -0.6653 -0.3462  1.6036
 5274SOL     OW17272   4.230   4.979   6.886 -0.2695 -0.1936 -0.3427
 5274SOL    HW117273   4.136   4.961   6.880  0.1942 -2.2610 -2.8103
 5274SOL    HW217274   4.252   5.023   6.804  0.7107  1.7165  0.8704
 5275SOL     OW17275   0.548   1.394   8.525 -0.0229  0.3666  0.1639
 5275SOL    HW117276   0.553   1.489   8.539  2.1012  0.0328  2.4280
 5275SOL    HW217277   0.632   1.371   8.485 -1.4271 -0.3491 -2.6028
 5276SOL     OW17278   2.339   7.750   5.937  0.1619 -0.3942  0.2778
 5276SOL    HW117279   2.247   7.747   5.911  1.0062  0.7390 -3.4389
 5276SOL    HW217280   2.372   7.663   5.915  0.0702 -0.7576  1.4930
 5277SOL     OW17281   2.859   6.036   8.578 -0.2786 -0.5624  1.0737
 5277SOL    HW117282   2.823   6.046   8.666  1.7222 -0.0906  1.8862
 5277SOL    HW217283   2.888   6.124   8.554 -1.8755 -0.4347 -0.5894
 5278SOL     OW17284   5.144   9.029   8.441 -0.2267 -0.3854  0.1506
 5278SOL    HW117285   5.232   9.010   8.472 -0.0183 -0.3428 -0.4148
 5278SOL    HW217286   5.133   8.974   8.363 -0.7500 -0.4957  0.2926
 5279SOL     OW17287   5.783   1.971   4.799  0.3938 -0.1220 -0.0702
 5279SOL    HW117288   5.711   2.014   4.846  3.1035  1.7491  2.7336
 5279SOL    HW217289   5.799   2.028   4.723  1.1961  1.5833  1.3091
 5280SOL     OW17290   1.499   6.234   4.980 -0.5656 -0.0474  0.3911
 5280SOL    HW117291   1.530   6.167   4.920 -2.1743 -0.5004  0.0223
 5280SOL    HW217292   1.417   6.200   5.014 -0.7670  1.1681  1.1870
 5281SOL     OW17293   5.070   2.629   0.194 -0.1717 -1.0894  0.6607
 5281SOL    HW117294   5.122   2.591   0.123  0.0686 -2.3103  1.4493
 5281SOL    HW217295   5.131   2.636   0.268 -0.6563 -0.7523  1.0411
 5282SOL     OW17296   8.794   2.653   3.450 -0.5899  0.5170 -0.2126
 5282SOL    HW117297   8.850   2.678   3.524  1.6003  1.4312 -2.0856
 5282SOL    HW217298   8.789   2.731   3.395 -2.1826 -0.1351 -1.0711
 5283SOL     OW17299   8.184   0.091   7.381 -0.3822 -0.4456 -0.2851
 5283SOL    HW117300   8.154   0.005   7.411 -0.2650 -0.6847 -0.8483
 5283SOL    HW217301   8.218   0.076   7.293 -0.0467  0.1173 -0.2571
 5284SOL     OW17302   6.549   8.052   0.376 -0.1577 -0.4642  0.3402
 5284SOL    HW117303   6.610   8.080   0.308  1.6017 -2.0256  1.2071
 5284SOL    HW217304   6.540   8.129   0.433  1.1550 -0.2541  0.2874
 5285SOL     OW17305   3.880   5.042   6.165  0.4774  0.1968  0.7060
 5285SOL    HW117306   3.797   5.025   6.210  0.3185  1.3004  0.8534
 5285SOL    HW217307   3.858   5.033   6.072 -0.1672  1.8810  0.6703
 5286SOL     OW17308   7.751   0.661   5.063  0.5875 -0.7288  0.0279
 5286SOL    HW117309   7.845   0.670   5.078  0.9489 -1.2044 -1.7352
 5286SOL    HW217310   7.725   0.744   5.024 -0.2585  0.3472  2.6778
 5287SOL     OW17311   1.380   5.765   3.769  0.4764 -0.1629  0.2968
 5287SOL    HW117312   1.337   5.728   3.846 -1.9436  2.9797  0.6670
 5287SOL    HW217313   1.402   5.855   3.794  0.1519  0.8002 -2.4559
 5288SOL     OW17314   5.392   3.006   2.822  0.2063 -0.2656  0.1825
 5288SOL    HW117315   5.343   3.024   2.741  0.8604  1.6209  0.1417
 5288SOL    HW217316   5.449   2.933   2.800  0.2930  0.1482 -1.0472
 5289SOL     OW17317   2.655   7.933   8.516 -0.1999  0.2641 -0.1422
 5289SOL    HW117318   2.612   7.911   8.598  0.0832  3.3014  0.9030
 5289SOL    HW217319   2.744   7.898   8.525 -1.0845 -2.4321 -0.6797
 5290SOL     OW17320   1.910   8.197   5.314  0.4542 -0.3627  0.6726
 5290SOL    HW117321   1.896   8.237   5.229 -1.3817  0.0992  1.1322
 5290SOL    HW217322   1.960   8.261   5.364 -0.8684  0.6062  0.8056
 5291SOL     OW17323   6.107   7.342   8.021  0.3607 -0.5577  0.2321
 5291SOL    HW117324   6.166   7.276   7.984 -0.1010 -1.3195  0.7975
 5291SOL    HW217325   6.103   7.320   8.114  0.3988  0.4414  0.4730
 5292SOL     OW17326   8.844   8.076   7.870  0.1656 -0.2336  0.0069
 5292SOL    HW117327   8.908   8.006   7.869  1.0430  0.5519  0.1389
 5292SOL    HW217328   8.769   8.041   7.822  0.7484 -1.1063 -0.2737
 5293SOL     OW17329   7.549   7.867   5.690  0.2741  0.3671 -0.2811
 5293SOL    HW117330   7.478   7.808   5.666  0.8671  0.0260 -1.1986
 5293SOL    HW217331   7.626   7.811   5.699  0.6079  0.8486 -0.0663
 5294SOL     OW17332   5.971   4.051   1.671  0.1444 -0.3815 -0.0235
 5294SOL    HW117333   5.877   4.038   1.669 -0.0305  0.8141 -0.0621
 5294SOL    HW217334   5.993   4.057   1.764 -0.0854  1.0855 -0.0486
 5295SOL     OW17335   6.925   9.044   6.539  0.1904  0.6256 -0.4571
 5295SOL    HW117336   6.882   9.116   6.585  0.6848  0.0345  1.0203
 5295SOL    HW217337   6.859   9.010   6.479 -0.7520  0.9774  0.3493
 5296SOL     OW17338   7.045   7.752   0.131 -0.0470 -0.5265  0.6422
 5296SOL    HW117339   7.074   7.689   0.066 -0.1949  0.2824 -0.2196
 5296SOL    HW217340   7.064   7.710   0.215 -0.6628 -1.9559  0.0985
 5297SOL     OW17341   5.082   3.861   7.368 -0.0583 -0.2496  0.1828
 5297SOL    HW117342   5.107   3.953   7.356  1.5843 -0.8791 -1.5359
 5297SOL    HW217343   4.992   3.857   7.337  0.3623  0.4997 -1.2106
 5298SOL     OW17344   7.066   8.435   2.032 -0.0443  0.1037  0.2918
 5298SOL    HW117345   7.024   8.512   2.072 -0.5020 -0.4338  0.8583
 5298SOL    HW217346   7.115   8.395   2.103  0.5598  0.1132 -0.1124
 5299SOL     OW17347   3.854   1.132   0.572 -0.7978 -0.9721  0.4282
 5299SOL    HW117348   3.770   1.088   0.580 -0.7031 -1.7614 -2.1888
 5299SOL    HW217349   3.835   1.211   0.522 -0.1905 -0.3952  1.0853
 5300SOL     OW17350   5.107   3.468   7.158  0.4089  0.1512  0.1014
 5300SOL    HW117351   5.025   3.518   7.158  0.5362  0.3620 -0.2166
 5300SOL    HW217352   5.079   3.377   7.168  0.0799  0.1399 -0.8014
 5301SOL     OW17353   6.555   6.839   1.880 -0.2406  0.2693  0.0264
 5301SOL    HW117354   6.595   6.812   1.798 -1.1994 -1.2442  0.0122
 5301SOL    HW217355   6.618   6.815   1.948  1.1206  2.6657 -0.2692
 5302SOL     OW17356   4.822   6.204   7.691 -0.0868  0.4591  0.0232
 5302SOL    HW117357   4.763   6.129   7.700 -0.4341  0.7715  0.4030
 5302SOL    HW217358   4.888   6.191   7.758 -0.8466  1.1192  0.9274
 5303SOL     OW17359   1.500   0.746   5.248 -0.1225 -0.1559  0.4654
 5303SOL    HW117360   1.588   0.728   5.214  0.3693  0.2117  1.5023
 5303SOL    HW217361   1.490   0.841   5.240 -1.2653 -0.4084 -1.5833
 5304SOL     OW17362   2.533   0.529   5.442  0.5841  0.3367  0.0238
 5304SOL    HW117363   2.582   0.561   5.518  0.0255  1.4258 -0.0637
 5304SOL    HW217364   2.554   0.435   5.439  2.6373  0.7549 -0.0076
 5305SOL     OW17365   6.759   8.971   6.983 -0.6035 -0.2769  0.1524
 5305SOL    HW117366   6.795   9.011   7.063  1.8341 -1.4376 -0.2797
 5305SOL    HW217367   6.681   8.924   7.013 -0.2241  0.0165  1.6825
 5306SOL     OW17368   3.290   8.673   4.034  0.2252  0.0261  0.1333
 5306SOL    HW117369   3.368   8.643   3.988  1.3757  0.2957  1.7939
 5306SOL    HW217370   3.231   8.597   4.035  1.0635 -0.6344  0.0618
 5307SOL     OW17371   5.820   9.063   5.635 -0.2420  0.3367 -0.1378
 5307SOL    HW117372   5.889   9.129   5.642  0.2721 -0.1049 -0.8936
 5307SOL    HW217373   5.738   9.113   5.639  0.1180  0.9009  0.3801
 5308SOL     OW17374   3.970   5.493   6.059  0.4216  0.2696 -0.2398
 5308SOL    HW117375   3.933   5.429   6.120 -2.2264 -1.0275 -2.9956
 5308SOL    HW217376   4.047   5.448   6.022  1.5774  0.7613  1.4571
 5309SOL     OW17377   6.713   2.793   2.138 -0.0665  0.0985  0.1620
 5309SOL    HW117378   6.751   2.869   2.095 -0.3334 -0.5066 -1.2168
 5309SOL    HW217379   6.787   2.751   2.183  0.5084  0.0566 -0.7832
 5310SOL     OW17380   6.646   3.209   2.349 -0.9804  0.0657 -0.2205
 5310SOL    HW117381   6.722   3.212   2.291 -0.8380  0.2031 -0.0283
 5310SOL    HW217382   6.682   3.182   2.434 -1.3417 -1.2126 -0.4477
 5311SOL     OW17383   8.907   4.113   8.298 -0.2780  0.0789 -0.1126
 5311SOL    HW117384   8.956   4.033   8.319 -0.5678  0.2791  1.4756
 5311SOL    HW217385   8.865   4.137   8.380  0.6470  2.4599 -0.2427
 5312SOL     OW17386   3.021   8.391   8.931  0.1626  0.4340 -0.8474
 5312SOL    HW117387   3.076   8.458   8.891  0.6320  1.1193  0.8703
 5312SOL    HW217388   3.076   8.354   9.001 -0.6093 -0.7470 -0.8450
 5313SOL     OW17389   4.124   1.441   4.472  0.3031  0.0873 -0.3858
 5313SOL    HW117390   4.148   1.531   4.448  0.0453  0.1526 -0.4053
 5313SOL    HW217391   4.082   1.406   4.394 -1.2913  0.5757  0.2216
 5314SOL     OW17392   2.521   6.653   9.243 -0.5697 -0.0094  0.0541
 5314SOL    HW117393   2.539   6.566   9.277 -1.8698  0.6110  2.5705
 5314SOL    HW217394   2.440   6.643   9.193 -0.6939 -0.2449  0.3019
 5315SOL     OW17395   4.503   7.489   2.909  0.1214 -0.0456 -0.5092
 5315SOL    HW117396   4.480   7.446   2.991  0.0161 -3.4223 -2.1523
 5315SOL    HW217397   4.598   7.497   2.911  0.1181 -0.0938 -0.0664
 5316SOL     OW17398   1.585   3.099   5.807  0.5173  0.2524 -0.3552
 5316SOL    HW117399   1.522   3.043   5.762 -1.1075 -0.3487  2.4293
 5316SOL    HW217400   1.552   3.188   5.795  0.8197  0.2431 -1.3461
 5317SOL     OW17401   0.335   1.871   5.830  0.1760  0.4046 -0.3307
 5317SOL    HW117402   0.247   1.851   5.797 -0.1451  0.3616  0.5321
 5317SOL    HW217403   0.321   1.941   5.894  1.0451  2.0477 -1.8565
 5318SOL     OW17404   0.172   6.096   1.245 -0.1279  0.2354  0.1087
 5318SOL    HW117405   0.145   6.187   1.232  0.0256  0.2874  0.1461
 5318SOL    HW217406   0.106   6.044   1.199 -0.2584  0.3626  0.1528
 5319SOL     OW17407   8.216   2.769   7.524 -0.0594 -0.4210  0.5476
 5319SOL    HW117408   8.310   2.762   7.544  0.4427  0.8392 -1.1701
 5319SOL    HW217409   8.191   2.680   7.499  0.9295 -0.5863  0.0711
 5320SOL     OW17410   2.999   0.035   4.616  0.6691  0.4184  0.2507
 5320SOL    HW117411   2.960   0.081   4.690  0.3592  1.1965 -0.3900
 5320SOL    HW217412   3.059  -0.028   4.657 -0.6299 -0.2437  1.2191
 5321SOL     OW17413   7.744   3.007   4.738  0.6187 -0.6752 -0.8551
 5321SOL    HW117414   7.738   2.974   4.649  1.6833  0.0075 -1.2049
 5321SOL    HW217415   7.824   3.060   4.739  0.1837  0.0175  0.2795
 5322SOL     OW17416   1.419   1.094   7.898 -0.0245  0.0512 -0.2274
 5322SOL    HW117417   1.491   1.034   7.879 -0.5482 -0.4696 -0.6303
 5322SOL    HW217418   1.387   1.067   7.984 -0.2110 -0.1996 -0.3749
 5323SOL     OW17419   1.652   7.078   6.427  0.1141  0.1549  0.1040
 5323SOL    HW117420   1.598   7.057   6.351  0.6476 -0.2517 -0.1731
 5323SOL    HW217421   1.593   7.121   6.488 -0.2667  0.7114 -0.6417
 5324SOL     OW17422   9.184   5.103   3.276  0.4545  0.1893  0.4815
 5324SOL    HW117423   9.201   5.123   3.184 -2.3743 -0.8979 -0.3835
 5324SOL    HW217424   9.099   5.144   3.293  0.5605 -0.3330  2.3902
 5325SOL     OW17425   4.799   4.804   6.652 -0.0253  0.3643  0.2848
 5325SOL    HW117426   4.734   4.735   6.638  0.4311 -0.3644  1.5588
 5325SOL    HW217427   4.880   4.756   6.672  0.6555  1.2657 -0.2428
 5326SOL     OW17428   0.516   8.686   9.231 -0.6022  0.0330  0.0678
 5326SOL    HW117429   0.518   8.593   9.209 -0.1754  0.6677 -2.9407
 5326SOL    HW217430   0.483   8.688   9.321 -0.1446 -3.0214  0.4197
 5327SOL     OW17431   8.408   8.581   0.232 -0.5064 -0.0175 -0.4179
 5327SOL    HW117432   8.456   8.516   0.181  0.3968  0.1033  0.2541
 5327SOL    HW217433   8.400   8.543   0.320  0.1340  0.8115  0.0167
 5328SOL     OW17434   5.088   1.946   8.677 -0.0623 -0.5694 -0.4191
 5328SOL    HW117435   5.090   2.042   8.679  1.2026 -0.5961  0.1419
 5328SOL    HW217436   5.081   1.920   8.769  0.1313 -1.0277 -0.5309
 5329SOL     OW17437   4.535   7.850   6.937 -0.0348 -0.5492 -0.1334
 5329SOL    HW117438   4.511   7.769   6.893  0.7044 -2.0240  2.0350
 5329SOL    HW217439   4.515   7.835   7.029  1.3830  1.2391  0.5292
 5330SOL     OW17440   7.523   8.021   7.223 -0.2849 -0.3862  0.0538
 5330SOL    HW117441   7.583   8.096   7.220 -2.1729  1.1952 -0.7150
 5330SOL    HW217442   7.522   7.987   7.134 -2.1435  1.0330 -0.5314
 5331SOL     OW17443   8.966   3.722   7.208  0.3846  0.3543  0.2462
 5331SOL    HW117444   8.892   3.662   7.218  1.2144 -0.6289  0.6419
 5331SOL    HW217445   8.987   3.719   7.115 -0.8772  1.6423 -0.1075
 5332SOL     OW17446   2.117   3.406   6.851 -0.5756  0.0588 -0.1890
 5332SOL    HW117447   2.210   3.388   6.836 -0.6747 -0.5157 -0.1429
 5332SOL    HW217448   2.089   3.452   6.772  0.0636  1.4719  0.3785
 5333SOL     OW17449   2.361   4.059   2.762 -0.3987 -0.5826 -0.3653
 5333SOL    HW117450   2.352   3.970   2.795  2.7857 -0.1023  2.3249
 5333SOL    HW217451   2.453   4.066   2.737  0.4046  2.7549  2.6666
 5334SOL     OW17452   3.957   6.733   5.083  0.0536 -0.3085  0.6868
 5334SOL    HW117453   3.881   6.710   5.029 -1.1200  0.3811  1.9949
 5334SOL    HW217454   3.981   6.821   5.054  1.3709 -1.0923 -0.7882
 5335SOL     OW17455   8.561   4.774   6.240  0.0381 -0.3416  0.1021
 5335SOL    HW117456   8.563   4.829   6.162  0.0981 -0.4094  0.0545
 5335SOL    HW217457   8.622   4.703   6.219  0.9217  0.2316  0.6454
 5336SOL     OW17458   4.200   2.421   5.115 -0.8306  0.1647 -0.3720
 5336SOL    HW117459   4.184   2.485   5.184 -3.1704 -0.0213 -0.6818
 5336SOL    HW217460   4.192   2.471   5.033  1.9135  0.3844 -0.6203
 5337SOL     OW17461   3.140   0.701   4.462  0.2793 -0.3596 -0.0134
 5337SOL    HW117462   3.084   0.636   4.419 -0.6809 -0.4780  1.3330
 5337SOL    HW217463   3.079   0.770   4.489  1.2538  1.0738 -1.2793
 5338SOL     OW17464   7.433   7.582   6.894 -0.3378  0.2740  0.0964
 5338SOL    HW117465   7.456   7.674   6.879  1.9683 -0.0520  1.0879
 5338SOL    HW217466   7.449   7.539   6.810  1.5118  0.3427  0.3537
 5339SOL     OW17467   8.540   0.410   3.033  0.5520 -0.7628  0.2275
 5339SOL    HW117468   8.445   0.406   3.043  0.5760  1.3658  2.0268
 5339SOL    HW217469   8.554   0.412   2.938 -1.1425 -1.5432 -0.0789
 5340SOL     OW17470   2.279   9.114   9.077  0.2232 -0.2381 -0.4512
 5340SOL    HW117471   2.247   9.090   8.990  1.3939 -1.7555 -0.4978
 5340SOL    HW217472   2.225   9.062   9.137 -0.0733  0.2372 -0.2998
 5341SOL     OW17473   8.217   5.885   7.752  0.1778  0.0168 -0.3122
 5341SOL    HW117474   8.219   5.980   7.735 -1.4263 -0.2386 -2.1879
 5341SOL    HW217475   8.149   5.875   7.818  2.0727  0.3474  1.8393
 5342SOL     OW17476   3.703   8.377   4.238  0.3251 -0.6421  0.4284
 5342SOL    HW117477   3.642   8.368   4.311  0.1549  0.0713  0.3781
 5342SOL    HW217478   3.713   8.471   4.225  1.1444 -0.7512  0.1847
 5343SOL     OW17479   5.381   0.644   2.254 -0.0480  0.4268 -0.3875
 5343SOL    HW117480   5.327   0.698   2.312 -0.6855  0.3836 -0.9263
 5343SOL    HW217481   5.345   0.556   2.263  0.1566  0.3329 -0.4835
 5344SOL     OW17482   1.878   4.990   1.591  0.4174 -0.0397 -0.4777
 5344SOL    HW117483   1.865   5.001   1.497 -0.4907 -1.2850 -0.5148
 5344SOL    HW217484   1.801   4.943   1.621  1.2680 -0.7514  0.6854
 5345SOL     OW17485   5.504   0.931   8.226  0.5089  0.2405 -0.3866
 5345SOL    HW117486   5.503   0.863   8.295  1.1843  1.7411  1.1820
 5345SOL    HW217487   5.414   0.934   8.194  0.2487 -0.7266  0.2041
 5346SOL     OW17488   0.465   7.467   6.438 -0.6518  0.2066  0.3987
 5346SOL    HW117489   0.549   7.449   6.480  0.2756  1.5357 -0.7581
 5346SOL    HW217490   0.468   7.561   6.419 -2.4503  0.2941  0.4069
 5347SOL     OW17491   1.616   3.875   1.143 -0.2074  0.3864  0.2435
 5347SOL    HW117492   1.615   3.955   1.090  0.3871  1.1686  1.3588
 5347SOL    HW217493   1.638   3.906   1.231  1.0886 -1.1437  0.4875
 5348SOL     OW17494   5.309   3.976   4.060  0.4585 -1.0934  0.5044
 5348SOL    HW117495   5.357   3.936   4.132 -0.2303 -0.3805  1.3963
 5348SOL    HW217496   5.221   3.992   4.096  0.7043  1.2344  0.2479
 5349SOL     OW17497   8.532   5.612   6.964 -0.0652 -0.2920  0.3659
 5349SOL    HW117498   8.494   5.688   7.007 -0.5418  0.5530 -1.4576
 5349SOL    HW217499   8.599   5.581   7.024 -0.8496  0.6822  1.7878
 5350SOL     OW17500   2.797   8.268   4.632  0.0283 -0.4769  0.2758
 5350SOL    HW117501   2.753   8.353   4.635  1.1848  0.1288  1.6037
 5350SOL    HW217502   2.736   8.207   4.674 -0.2776 -0.0160  0.5095
 5351SOL     OW17503   7.453   9.180   3.213 -0.0309 -0.1486 -0.3820
 5351SOL    HW117504   7.418   9.134   3.289  1.0705 -1.4772 -0.6349
 5351SOL    HW217505   7.396   9.256   3.202  0.1713  0.4696  2.1777
 5352SOL     OW17506   8.030   8.004   3.916  0.2292 -0.2020 -0.1868
 5352SOL    HW117507   8.010   7.977   3.826 -2.2973  1.3676 -0.2114
 5352SOL    HW217508   7.950   8.048   3.945 -0.0976 -2.9695  3.8027
 5353SOL     OW17509   3.898   5.952   8.213 -0.2720  0.2469 -0.1562
 5353SOL    HW117510   3.933   5.877   8.262  0.6960  0.2830 -0.7625
 5353SOL    HW217511   3.943   5.949   8.129 -0.6798  1.1601 -0.4214
 5354SOL     OW17512   6.428   8.094   8.354 -0.2027 -0.1119  0.7384
 5354SOL    HW117513   6.400   8.082   8.445  0.5211 -0.1702  0.9593
 5354SOL    HW217514   6.346   8.096   8.304 -0.5530 -1.7886  1.1863
 5355SOL     OW17515   6.643   4.740   4.470  0.1891 -0.0084  0.0889
 5355SOL    HW117516   6.587   4.812   4.501 -1.1762 -0.4431 -1.2331
 5355SOL    HW217517   6.639   4.745   4.374  0.1053 -1.7838 -0.0477
 5356SOL     OW17518   8.738   6.078   3.010 -0.0791  0.2307  0.7653
 5356SOL    HW117519   8.687   6.131   2.949 -0.0712  0.2181  0.7478
 5356SOL    HW217520   8.777   6.142   3.070  1.3190  0.4019 -0.2789
 5357SOL     OW17521   8.904   7.573   1.104 -0.3869 -0.0839 -1.1106
 5357SOL    HW117522   8.961   7.496   1.112 -0.5054 -0.2788 -1.9641
 5357SOL    HW217523   8.846   7.567   1.180  1.0985  0.4580  0.1204
 5358SOL     OW17524   6.877   7.862   6.889  0.1312  0.4153  0.1289
 5358SOL    HW117525   6.798   7.855   6.836  0.2786  0.0095 -0.0419
 5358SOL    HW217526   6.942   7.809   6.843 -0.5042 -2.2772  2.1047
 5359SOL     OW17527   0.331   1.981   2.123  0.6343 -0.3680  0.5056
 5359SOL    HW117528   0.332   1.989   2.028  1.5895  0.7104  0.5833
 5359SOL    HW217529   0.324   1.887   2.139  0.2561 -0.5453 -0.6245
 5360SOL     OW17530   8.085   8.391   3.015 -0.6169 -0.0831  0.5157
 5360SOL    HW117531   8.045   8.305   3.032 -2.0518  0.5708  0.5282
 5360SOL    HW217532   8.011   8.449   2.999  0.4340  0.4140 -3.2491
 5361SOL     OW17533   7.115   4.471   2.888 -0.1236  0.8766 -0.5332
 5361SOL    HW117534   7.120   4.434   2.977 -1.5533  1.3240 -0.2386
 5361SOL    HW217535   7.204   4.500   2.869  0.4916 -0.4215  0.2219
 5362SOL     OW17536   6.640   6.739   5.015 -0.5415 -0.1471 -0.0423
 5362SOL    HW117537   6.593   6.658   4.997  0.6081 -0.5890 -1.1910
 5362SOL    HW217538   6.728   6.711   5.041 -0.5652  0.6915  1.0151
 5363SOL     OW17539   1.319   4.746   9.180  0.3012 -0.1237 -0.0019
 5363SOL    HW117540   1.257   4.779   9.115 -0.9996 -0.1869  1.1776
 5363SOL    HW217541   1.296   4.790   9.261  0.2573 -1.8885  0.9976
 5364SOL     OW17542   7.339   1.238   4.486  0.7896  0.3286 -0.0664
 5364SOL    HW117543   7.249   1.225   4.514  0.6689 -1.7950 -1.2535
 5364SOL    HW217544   7.373   1.307   4.544 -1.4282  0.8636  0.6729
 5365SOL     OW17545   7.350   1.613   0.207  0.3518  0.7192  0.0691
 5365SOL    HW117546   7.424   1.555   0.224 -0.3611 -0.6998 -1.4205
 5365SOL    HW217547   7.303   1.572   0.135 -2.0289  1.4672  1.0956
 5366SOL     OW17548   8.951   7.764   3.818  0.1226 -0.4865  0.5347
 5366SOL    HW117549   9.027   7.818   3.839  0.8115 -1.2815  0.1607
 5366SOL    HW217550   8.879   7.826   3.805  1.1654  0.4392 -1.0998
 5367SOL     OW17551   3.698   7.148   7.739  0.0088  0.1569  0.0604
 5367SOL    HW117552   3.714   7.098   7.819 -1.2074  1.4131  1.1408
 5367SOL    HW217553   3.779   7.142   7.689  1.3891  0.6757  2.1398
 5368SOL     OW17554   8.581   4.896   0.372 -0.0150 -0.1342 -0.3057
 5368SOL    HW117555   8.579   4.927   0.281  1.1591  1.4824  0.1855
 5368SOL    HW217556   8.665   4.852   0.381 -0.5165 -1.1103 -0.2269
 5369SOL     OW17557   9.096   5.121   2.935 -0.0422  0.2230  0.0720
 5369SOL    HW117558   9.087   5.185   2.864  0.4270  0.0149 -0.1817
 5369SOL    HW217559   9.006   5.101   2.961 -0.2460 -0.2458 -0.9591
 5370SOL     OW17560   4.007   1.912   8.041  0.5071  0.3682 -0.0181
 5370SOL    HW117561   3.969   1.941   8.124  1.8139 -0.4493  0.9005
 5370SOL    HW217562   3.953   1.955   7.974 -1.7659 -0.4047  1.2029
 5371SOL     OW17563   2.636   3.910   4.223  0.3799 -0.5814 -0.0640
 5371SOL    HW117564   2.678   3.912   4.309  0.5770 -1.0106 -0.1506
 5371SOL    HW217565   2.661   3.826   4.186 -0.3124 -0.7097 -0.2445
 5372SOL     OW17566   2.420   2.565   2.806 -0.0779  0.1400 -0.2612
 5372SOL    HW117567   2.404   2.659   2.803  1.4869  0.4204 -0.8272
 5372SOL    HW217568   2.335   2.525   2.791 -1.0136  1.4416  1.2858
 5373SOL     OW17569   6.547   2.646   7.839  0.4262  0.1015  0.0298
 5373SOL    HW117570   6.552   2.732   7.797  0.1951  0.3709  0.5381
 5373SOL    HW217571   6.469   2.652   7.895 -1.9684 -1.7293 -2.8016
 5374SOL     OW17572   3.416   4.671   6.244 -0.6125 -0.1537 -0.0321
 5374SOL    HW117573   3.467   4.724   6.305 -0.7607 -0.2381  0.1631
 5374SOL    HW217574   3.482   4.625   6.192 -0.4129 -2.6615  2.2250
 5375SOL     OW17575   4.662   3.920   1.341 -0.7357 -0.0268 -0.6784
 5375SOL    HW117576   4.660   3.852   1.274  1.2636 -0.9386  0.1179
 5375SOL    HW217577   4.659   4.002   1.292 -0.0671 -0.6759 -1.8516
 5376SOL     OW17578   0.915   9.078   3.461 -0.2899  0.1771  0.0298
 5376SOL    HW117579   0.827   9.088   3.497 -0.5784  0.3669 -0.7197
 5376SOL    HW217580   0.941   9.166   3.433  0.6181  0.3436  1.3101
 5377SOL     OW17581   2.834   5.292   8.443 -0.3295 -0.0635  0.1038
 5377SOL    HW117582   2.810   5.298   8.536  0.6133 -1.3601  0.4685
 5377SOL    HW217583   2.907   5.229   8.442 -1.6246 -1.6493 -1.7210
 5378SOL     OW17584   9.201   6.765   5.546 -0.1136  0.3505 -0.3918
 5378SOL    HW117585   9.163   6.810   5.470  0.0774 -0.7824 -1.1751
 5378SOL    HW217586   9.295   6.764   5.528 -0.1467 -0.6813 -0.5773
 5379SOL     OW17587   4.108   0.246   7.414 -0.0098  0.7692 -0.1388
 5379SOL    HW117588   4.197   0.270   7.387 -0.8681  2.8041 -1.3551
 5379SOL    HW217589   4.051   0.283   7.346 -1.7195 -2.4543 -0.7074
 5380SOL     OW17590   4.312   6.937   3.818 -0.0486 -0.3677  0.4547
 5380SOL    HW117591   4.321   6.843   3.802 -0.3141 -0.5896  1.5622
 5380SOL    HW217592   4.234   6.962   3.768  1.3575 -0.2144 -1.8406
 5381SOL     OW17593   4.277   6.953   0.030  0.4301  0.2056 -0.0548
 5381SOL    HW117594   4.219   7.028   0.020 -1.0615 -1.0418 -1.4216
 5381SOL    HW217595   4.340   6.961  -0.041  1.9132  1.4668  1.3250
 5382SOL     OW17596   1.813   3.135   8.162  0.4102 -0.3100 -0.1233
 5382SOL    HW117597   1.736   3.163   8.113 -0.8518 -1.4726  1.1093
 5382SOL    HW217598   1.871   3.212   8.163 -1.7511  1.4013  0.8918
 5383SOL     OW17599   8.433   0.016   6.328 -0.2453 -0.3023  0.0155
 5383SOL    HW117600   8.475   0.097   6.297  0.9412 -0.3501  1.4050
 5383SOL    HW217601   8.370  -0.005   6.259  1.3247  0.3116 -1.7167
 5384SOL     OW17602   8.172   4.200   7.003 -0.1272 -0.0703  0.4092
 5384SOL    HW117603   8.195   4.237   6.918 -1.2365  1.6002  0.7914
 5384SOL    HW217604   8.249   4.216   7.058  0.2978 -0.4673 -0.0684
 5385SOL     OW17605   8.221   1.505   2.394  0.2441  0.0243  0.3917
 5385SOL    HW117606   8.154   1.443   2.363  1.4848 -1.3868  0.4043
 5385SOL    HW217607   8.264   1.536   2.314 -0.6706  1.2543  0.3568
 5386SOL     OW17608   5.957   2.435   0.819  0.1093  0.1328 -0.5504
 5386SOL    HW117609   5.975   2.481   0.737  0.3443  0.5843 -0.2513
 5386SOL    HW217610   5.863   2.422   0.819  0.2585 -1.3420 -1.6574
 5387SOL     OW17611   1.521   2.589   4.047  0.4256  0.2077 -0.2838
 5387SOL    HW117612   1.436   2.547   4.034 -0.8885  2.4254  0.5529
 5387SOL    HW217613   1.575   2.557   3.974 -0.3180 -3.0506  0.4744
 5388SOL     OW17614   5.273   2.607   8.286 -0.3147  0.3871 -0.1446
 5388SOL    HW117615   5.266   2.674   8.218 -1.2808  0.9432  0.4761
 5388SOL    HW217616   5.333   2.645   8.351  0.4599 -0.0641 -0.5915
 5389SOL     OW17617   1.908   7.109   0.522  0.0277  0.0847 -0.1701
 5389SOL    HW117618   1.984   7.119   0.580 -0.9476  2.4901  0.7934
 5389SOL    HW217619   1.945   7.080   0.439  1.7016 -1.3004  0.9900
 5390SOL     OW17620   3.687   2.775   3.099 -0.5372 -0.5501  1.0273
 5390SOL    HW117621   3.714   2.846   3.156  0.2308 -1.7648  2.2375
 5390SOL    HW217622   3.766   2.751   3.051 -0.5421 -1.1922  1.3248
 5391SOL     OW17623   1.821   5.746   4.943  0.0554  0.1532 -0.0790
 5391SOL    HW117624   1.778   5.803   4.879 -1.0355  0.2878  0.7446
 5391SOL    HW217625   1.759   5.674   4.957  1.5363 -1.4411 -1.3227
 5392SOL     OW17626   1.862   6.719   4.980 -0.1508  0.3481 -0.0149
 5392SOL    HW117627   1.790   6.658   4.993  0.6772 -0.4057  1.2577
 5392SOL    HW217628   1.828   6.803   5.012 -0.6780  0.1418 -0.0197
 5393SOL     OW17629   2.698   2.996   0.208 -0.5371  0.0361 -0.7940
 5393SOL    HW117630   2.751   3.058   0.158  0.0146  1.3876  1.2944
 5393SOL    HW217631   2.609   3.032   0.205  0.0997  2.2706  2.0552
 5394SOL     OW17632   5.864   7.823   8.050 -0.2875 -0.3039  0.4429
 5394SOL    HW117633   5.913   7.741   8.040  1.9347  0.8411  1.2989
 5394SOL    HW217634   5.879   7.870   7.968 -0.0806 -0.0058  0.6513
 5395SOL     OW17635   9.235   2.563   2.934  0.2800 -0.5861 -0.2594
 5395SOL    HW117636   9.309   2.622   2.950 -0.2981  0.3233 -0.8728
 5395SOL    HW217637   9.181   2.571   3.013 -1.1495  1.7834 -1.3700
 5396SOL     OW17638   1.162   4.785   6.196 -0.0971 -0.1485 -0.1037
 5396SOL    HW117639   1.158   4.862   6.252  0.4343  0.9148 -1.4554
 5396SOL    HW217640   1.241   4.739   6.224  1.2758  1.4015 -1.1681
 5397SOL     OW17641   2.120   5.668   8.399  0.7485 -0.6555  0.0168
 5397SOL    HW117642   2.095   5.582   8.365 -1.3581  0.0293 -0.3662
 5397SOL    HW217643   2.125   5.724   8.321 -0.3879  0.0813  0.4323
 5398SOL     OW17644   4.776   7.723   1.061  0.1413 -0.1142  0.0806
 5398SOL    HW117645   4.721   7.726   1.139  1.3584 -2.2134  1.0945
 5398SOL    HW217646   4.753   7.640   1.018 -0.9322  1.2473 -2.2068
 5399SOL     OW17647   6.332   6.401   4.044  0.1608  0.1540 -0.1118
 5399SOL    HW117648   6.238   6.414   4.054  0.1369  0.0847 -0.2531
 5399SOL    HW217649   6.342   6.361   3.958  0.2572 -0.5155  0.2037
 5400SOL     OW17650   8.695   2.297   2.371 -0.5090 -0.5557 -0.2927
 5400SOL    HW117651   8.620   2.242   2.391  0.3640 -1.5119  0.4805
 5400SOL    HW217652   8.688   2.314   2.278 -1.3688 -1.1083 -0.3423
 5401SOL     OW17653   1.885   7.126   6.314 -0.6118  0.4569 -0.1545
 5401SOL    HW117654   1.884   7.222   6.316 -2.0135  0.4455  1.0068
 5401SOL    HW217655   1.805   7.100   6.358 -0.3188 -1.2718 -0.5684
 5402SOL     OW17656   5.277   4.487   6.489 -0.1668 -0.0252 -0.1411
 5402SOL    HW117657   5.280   4.445   6.575 -0.5849  0.6188  0.2018
 5402SOL    HW217658   5.349   4.550   6.490  0.3260 -0.5699 -0.5725
 5403SOL     OW17659   1.645   5.526   3.224  0.1767  0.1094  0.2499
 5403SOL    HW117660   1.564   5.486   3.192  0.2738  0.6275 -0.7011
 5403SOL    HW217661   1.713   5.461   3.207 -0.0740 -0.4289  1.2855
 5404SOL     OW17662   3.865   4.687   0.768 -0.5850  0.5625 -0.6292
 5404SOL    HW117663   3.773   4.668   0.785 -0.6631  1.2729 -0.2401
 5404SOL    HW217664   3.888   4.757   0.829  0.4858 -0.2731 -0.0290
 5405SOL     OW17665   1.950   1.104   5.421 -0.0961 -1.0968  0.3781
 5405SOL    HW117666   1.875   1.130   5.474 -0.2475 -1.5385  0.3890
 5405SOL    HW217667   1.938   1.150   5.338  0.3176 -0.1423  0.8363
 5406SOL     OW17668   8.126   4.030   5.925 -0.2901 -0.5244 -0.6163
 5406SOL    HW117669   8.096   3.959   5.983 -1.7791 -0.2504 -1.0006
 5406SOL    HW217670   8.067   4.103   5.944 -1.2852 -0.6315 -2.9068
 5407SOL     OW17671   3.358   3.910   0.113  0.2092 -0.1838 -0.0503
 5407SOL    HW117672   3.306   3.986   0.140 -0.7359 -0.6721 -0.4346
 5407SOL    HW217673   3.398   3.879   0.194  1.4776  1.3279 -0.0468
 5408SOL     OW17674   2.148   6.787   2.315  0.5026 -0.0142  0.1970
 5408SOL    HW117675   2.189   6.711   2.357  0.4347 -0.1637 -0.0074
 5408SOL    HW217676   2.070   6.751   2.272  0.3897  0.1968  0.2246
 5409SOL     OW17677   7.025   2.781   5.134 -0.3737 -0.0399  0.0524
 5409SOL    HW117678   6.953   2.844   5.131  1.2975  2.0093 -0.2320
 5409SOL    HW217679   7.024   2.747   5.223 -1.2530  0.5043  0.2625
 5410SOL     OW17680   8.109   0.331   5.960  0.5660  0.0682  0.3817
 5410SOL    HW117681   8.126   0.358   6.050  0.0156  2.1544 -0.0891
 5410SOL    HW217682   8.185   0.361   5.910  0.7105 -0.7642  0.0857
 5411SOL     OW17683   2.815   3.269   5.852 -0.1707  0.2559 -0.5069
 5411SOL    HW117684   2.860   3.338   5.804  1.0648 -1.5554 -2.1006
 5411SOL    HW217685   2.726   3.271   5.819 -0.1019  0.9573 -0.6643
 5412SOL     OW17686   8.314   2.633   4.009 -0.4746 -0.5633 -0.8058
 5412SOL    HW117687   8.299   2.649   3.915  2.4794 -1.8707 -1.5909
 5412SOL    HW217688   8.345   2.717   4.042  0.8825 -0.7288 -1.6000
 5413SOL     OW17689   3.712   0.194   4.111  0.2556  0.1831  0.1097
 5413SOL    HW117690   3.709   0.119   4.171 -0.9192  0.6823  0.7023
 5413SOL    HW217691   3.712   0.271   4.167 -2.3731  0.7040 -0.4533
 5414SOL     OW17692   1.848   9.264   6.857  0.7292 -0.0320 -0.3541
 5414SOL    HW117693   1.873   9.356   6.865  0.3784 -0.0586  1.3156
 5414SOL    HW217694   1.924   9.222   6.817  2.6065  0.2672  2.6314
 5415SOL     OW17695   7.968   6.703   4.165  0.0270 -0.1760  0.1063
 5415SOL    HW117696   7.976   6.608   4.167  1.2756 -0.0871  0.6243
 5415SOL    HW217697   8.027   6.734   4.234 -0.0027  0.9901 -0.3567
 5416SOL     OW17698   7.772   7.837   1.631  0.3968 -0.6394  0.6630
 5416SOL    HW117699   7.853   7.808   1.673  1.1772 -1.2971 -1.1422
 5416SOL    HW217700   7.801   7.905   1.570 -0.4141 -0.8047  0.0770
 5417SOL     OW17701   8.911   5.445   5.013  0.3661  0.2021 -0.3294
 5417SOL    HW117702   8.989   5.459   5.066  0.0965 -0.2070  0.1823
 5417SOL    HW217703   8.919   5.509   4.942  1.3115 -0.0510 -0.4588
 5418SOL     OW17704   6.549   6.360   3.018  0.2154 -0.7010  0.0306
 5418SOL    HW117705   6.508   6.307   2.949  0.7538 -2.1127  0.7411
 5418SOL    HW217706   6.492   6.436   3.027  1.2732  0.7034 -3.4565
 5419SOL     OW17707   3.739   4.208   3.138  0.2266  0.0906 -0.0073
 5419SOL    HW117708   3.742   4.136   3.202  0.5676  1.1270  1.1869
 5419SOL    HW217709   3.812   4.264   3.161 -0.7953  1.5060 -0.0679
 5420SOL     OW17710   5.823   8.435   6.687 -0.6325  0.3870  0.6833
 5420SOL    HW117711   5.848   8.410   6.776 -0.6207 -0.3481  0.4774
 5420SOL    HW217712   5.775   8.517   6.698 -0.9378  0.1217  1.3985
 5421SOL     OW17713   5.124   7.839   8.271 -0.0826 -0.3542 -0.5182
 5421SOL    HW117714   5.042   7.865   8.227 -0.4473 -0.4140  0.1179
 5421SOL    HW217715   5.147   7.914   8.325  0.5005 -0.1876 -0.9825
 5422SOL     OW17716   0.202   8.351   3.240  0.5063  0.0390  0.3100
 5422SOL    HW117717   0.191   8.319   3.330 -1.9989  1.0214  0.4378
 5422SOL    HW217718   0.149   8.291   3.188  1.2179  0.0176 -0.3896
 5423SOL     OW17719   8.026   1.328   7.755 -0.1518 -0.3035 -0.4993
 5423SOL    HW117720   8.014   1.422   7.749  1.8483 -0.0157 -0.5691
 5423SOL    HW217721   7.979   1.293   7.678 -2.7703  0.3658  0.6814
 5424SOL     OW17722   1.212   8.582   6.750 -0.1290  0.3318 -0.5866
 5424SOL    HW117723   1.286   8.523   6.760  0.4269  1.3881  2.5531
 5424SOL    HW217724   1.149   8.553   6.816 -0.9468  1.6782 -0.7455
 5425SOL     OW17725   6.582   2.611   6.394  0.0154  0.4796  0.1522
 5425SOL    HW117726   6.555   2.659   6.472 -1.4426  0.2911 -0.2201
 5425SOL    HW217727   6.649   2.667   6.354  1.3231  0.2530  1.8732
 5426SOL     OW17728   3.821   2.341   4.481  0.3379  0.0574 -0.4583
 5426SOL    HW117729   3.744   2.286   4.470  0.5627 -0.5983  1.0179
 5426SOL    HW217730   3.874   2.296   4.546  1.1406  1.3890 -0.1415
 5427SOL     OW17731   8.309   6.378   2.278  0.3752  0.3617 -0.7319
 5427SOL    HW117732   8.242   6.332   2.329  0.8422 -0.1298 -0.5554
 5427SOL    HW217733   8.361   6.426   2.343  0.4742  0.3831 -0.8256
 5428SOL     OW17734   7.411   3.578   1.557 -0.3745  0.9307 -0.3254
 5428SOL    HW117735   7.448   3.657   1.597  2.7152 -1.3521  1.8339
 5428SOL    HW217736   7.348   3.546   1.621  1.1338 -0.2275  0.6593
 5429SOL     OW17737   5.597   4.199   2.187 -0.5603  0.1502 -0.3074
 5429SOL    HW117738   5.567   4.289   2.204  0.7786  0.5073  0.3197
 5429SOL    HW217739   5.624   4.200   2.095  0.1041  0.5990 -0.1142
 5430SOL     OW17740   2.764   6.929   5.581 -0.2620 -0.7129  0.0538
 5430SOL    HW117741   2.851   6.889   5.571  1.1767  1.9583  1.0589
 5430SOL    HW217742   2.769   6.977   5.663 -2.9977 -1.0948  0.5207
 5431SOL     OW17743   8.145   2.005   7.221  0.6257  0.7015 -0.1207
 5431SOL    HW117744   8.078   2.005   7.152 -0.3277  1.1162  0.7661
 5431SOL    HW217745   8.158   1.913   7.243 -0.5740  0.6637  0.5240
 5432SOL     OW17746   4.898   8.979   0.667 -0.0668 -0.0999  0.4760
 5432SOL    HW117747   4.819   8.997   0.718 -0.8550 -2.5020  0.2239
 5432SOL    HW217748   4.874   8.907   0.609  2.4050 -1.1879  0.6553
 5433SOL     OW17749   2.023   3.493   0.780  0.5052  0.6359 -0.2683
 5433SOL    HW117750   2.067   3.410   0.762  1.1065  0.5250  1.5468
 5433SOL    HW217751   1.930   3.471   0.784  0.7123 -0.0954  0.8768
 5434SOL     OW17752   2.365   1.617   2.578  0.3197  0.2395 -0.3519
 5434SOL    HW117753   2.431   1.667   2.626  0.4005  1.1414 -1.3668
 5434SOL    HW217754   2.414   1.567   2.513  0.0972  0.1104 -0.4244
 5435SOL     OW17755   7.239   2.135   1.613 -0.0896  0.5114  0.4725
 5435SOL    HW117756   7.157   2.173   1.645  0.7841  1.2925  1.8765
 5435SOL    HW217757   7.302   2.207   1.616  0.7473 -0.1673 -0.2324
 5436SOL     OW17758   2.510   7.284   1.380 -0.0953 -0.7000 -0.0131
 5436SOL    HW117759   2.478   7.312   1.295 -0.5600 -0.2337  0.3090
 5436SOL    HW217760   2.433   7.246   1.423  0.0262 -0.5278  0.3670
 5437SOL     OW17761   9.083   0.291   1.188 -0.4992  0.0409  0.7920
 5437SOL    HW117762   9.071   0.362   1.251 -1.8708 -0.5090  1.1808
 5437SOL    HW217763   9.014   0.228   1.209  0.4883 -1.2550  0.2325
 5438SOL     OW17764   3.497   2.020   5.697  0.4394  0.4718 -0.6892
 5438SOL    HW117765   3.502   1.925   5.712  2.9631  0.8369  1.6553
 5438SOL    HW217766   3.432   2.030   5.628 -2.4855 -2.7100  1.2787
 5439SOL     OW17767   9.266   0.486   2.808  0.6787  0.0676 -0.4895
 5439SOL    HW117768   9.246   0.550   2.876 -1.4030 -1.2424  0.2306
 5439SOL    HW217769   9.211   0.411   2.829  1.3181 -1.0809 -2.6245
 5440SOL     OW17770   4.886   6.266   2.112  0.8237 -0.1050  0.1494
 5440SOL    HW117771   4.879   6.352   2.071 -0.3145 -0.4732 -0.4836
 5440SOL    HW217772   4.951   6.277   2.181  0.2414  1.4244  0.4890
 5441SOL     OW17773   2.442   4.835   5.123  0.5744  0.2553  0.3203
 5441SOL    HW117774   2.386   4.774   5.073 -1.0526 -0.1883  2.5252
 5441SOL    HW217775   2.404   4.921   5.106  0.3151  0.1605  0.4078
 5442SOL     OW17776   5.493   0.712   6.197 -0.1542  0.2024 -0.4576
 5442SOL    HW117777   5.478   0.622   6.226  0.4041  0.2726  0.0541
 5442SOL    HW217778   5.459   0.714   6.108  2.2070 -1.2660 -1.4950
 5443SOL     OW17779   8.597   3.298   5.055 -0.1802 -0.4882 -0.3250
 5443SOL    HW117780   8.652   3.362   5.100 -1.5843 -0.5979  1.7128
 5443SOL    HW217781   8.518   3.346   5.031 -0.9064 -1.1997  0.5111
 5444SOL     OW17782   6.174   6.376   0.535  0.5626 -0.2263  0.4687
 5444SOL    HW117783   6.201   6.284   0.530 -0.6828 -0.6834  1.5160
 5444SOL    HW217784   6.202   6.414   0.452 -2.2071 -2.4574 -1.6970
 5445SOL     OW17785   4.769   0.008   8.631  0.3149 -0.2762  0.2585
 5445SOL    HW117786   4.805   0.059   8.558 -0.1036 -2.2930 -1.4305
 5445SOL    HW217787   4.742   0.074   8.695 -0.1250  1.6282 -1.7727
 5446SOL     OW17788   4.571   3.363   6.745 -0.5332 -0.2044 -1.0166
 5446SOL    HW117789   4.610   3.341   6.829 -0.3986  1.5986 -0.5719
 5446SOL    HW217790   4.600   3.293   6.686 -1.8421 -2.3156  0.7208
 5447SOL     OW17791   2.649   4.923   0.196 -0.3090 -0.3747  0.3945
 5447SOL    HW117792   2.729   4.874   0.219  0.3603  0.7337  0.4875
 5447SOL    HW217793   2.596   4.921   0.276  0.4063  0.3608  0.9052
 5448SOL     OW17794   8.958   2.057   3.630 -0.0033 -0.3595 -0.4715
 5448SOL    HW117795   8.880   2.040   3.682  0.4665 -2.7118 -0.4570
 5448SOL    HW217796   8.928   2.052   3.539  0.0373 -0.7814 -0.4621
 5449SOL     OW17797   1.137   4.669   3.852 -0.3348  0.0482 -0.9045
 5449SOL    HW117798   1.218   4.620   3.870  0.2554  1.7106  1.4044
 5449SOL    HW217799   1.144   4.692   3.759  1.3939 -0.6296 -0.9928
 5450SOL     OW17800   2.949   8.534   9.282  0.7290  0.6855  0.3042
 5450SOL    HW117801   2.926   8.574   9.198  0.4597 -0.2199 -0.0648
 5450SOL    HW217802   3.030   8.577   9.307  1.6991 -0.1775 -1.2219
 5451SOL     OW17803   6.279   2.885   4.374 -0.3447 -0.2291 -0.3236
 5451SOL    HW117804   6.260   2.908   4.465 -0.2143  0.3741 -0.4472
 5451SOL    HW217805   6.273   2.968   4.326 -3.0296 -0.9030 -1.3296
 5452SOL     OW17806   7.185   8.667   1.443 -0.1184 -0.5509  0.5343
 5452SOL    HW117807   7.093   8.643   1.453 -0.0009 -0.4331  2.0449
 5452SOL    HW217808   7.188   8.716   1.361 -1.1158 -1.8835 -0.3424
 5453SOL     OW17809   4.702   6.183   0.796 -0.0810  0.5124 -0.1542
 5453SOL    HW117810   4.640   6.131   0.746 -1.3134  1.6731  0.0969
 5453SOL    HW217811   4.705   6.268   0.751 -0.0736  1.0778  0.8749
 5454SOL     OW17812   1.546   6.578   0.175  0.2921 -0.2616  0.3093
 5454SOL    HW117813   1.460   6.588   0.215 -0.5745  0.9781 -1.6880
 5454SOL    HW217814   1.608   6.591   0.247 -1.1614 -1.5990  1.8735
 5455SOL     OW17815   5.091   6.219   3.909 -0.0031  0.3583 -0.1008
 5455SOL    HW117816   5.163   6.156   3.916 -0.1720  0.3056  1.8091
 5455SOL    HW217817   5.022   6.173   3.863  0.5584 -0.2003 -0.3961
 5456SOL     OW17818   8.491   7.885   4.524 -0.6790  0.4360 -0.4041
 5456SOL    HW117819   8.431   7.951   4.559  0.8477  1.1516  1.0585
 5456SOL    HW217820   8.573   7.933   4.510  0.8527 -1.2708  1.7934
 5457SOL     OW17821   6.151   1.084   6.432  0.9376  0.0218  0.1843
 5457SOL    HW117822   6.232   1.034   6.442  1.6427  0.4947 -2.4066
 5457SOL    HW217823   6.101   1.065   6.511  3.0060 -1.3319  1.2529
 5458SOL     OW17824   2.994   0.242   1.997  0.2515  0.4342  0.3596
 5458SOL    HW117825   3.029   0.214   2.081  0.9266 -0.5746 -0.2267
 5458SOL    HW217826   2.986   0.160   1.946  0.0193  1.0363 -0.6087
 5459SOL     OW17827   5.630   6.658   3.841 -0.5816 -0.0292  0.3462
 5459SOL    HW117828   5.609   6.716   3.914 -1.1095  0.6473 -0.3266
 5459SOL    HW217829   5.725   6.668   3.830 -0.6857  0.8495  0.1370
 5460SOL     OW17830   2.258   7.970   9.069 -0.1208  0.0918  0.3223
 5460SOL    HW117831   2.207   7.929   8.999  0.1858 -0.6375  0.5163
 5460SOL    HW217832   2.204   8.043   9.098 -0.5524 -0.0050 -0.2237
 5461SOL     OW17833   4.752   2.789   4.136  0.3644 -0.0640  0.0586
 5461SOL    HW117834   4.821   2.735   4.173  0.7731  0.6649  0.3627
 5461SOL    HW217835   4.797   2.864   4.098 -0.3953  1.7271  2.4750
 5462SOL     OW17836   3.010   3.921   0.884  0.0766 -0.1874  0.4415
 5462SOL    HW117837   3.023   3.842   0.936 -0.6167 -0.4734  0.1916
 5462SOL    HW217838   2.943   3.897   0.820  1.0435  0.1101 -0.7014
 5463SOL     OW17839   0.467   0.717   3.877  0.6011 -0.3429  0.2851
 5463SOL    HW117840   0.534   0.784   3.876  0.3761 -0.0031  2.2699
 5463SOL    HW217841   0.409   0.742   3.950  0.3507 -2.5011  0.9204
 5464SOL     OW17842   0.296   0.637   6.491 -0.0372  0.4849  0.0974
 5464SOL    HW117843   0.253   0.711   6.534 -0.9389 -0.7483  1.4113
 5464SOL    HW217844   0.269   0.560   6.542 -0.2685 -0.9401 -2.0264
 5465SOL     OW17845   6.499   6.808   8.151 -0.1522  0.3725  0.2242
 5465SOL    HW117846   6.410   6.844   8.147 -0.2442  0.0612 -1.9685
 5465SOL    HW217847   6.554   6.882   8.177 -1.0467  0.5043  1.8749
 5466SOL     OW17848   7.506   2.464   1.949 -0.1650  0.5469 -0.0539
 5466SOL    HW117849   7.477   2.548   1.913 -0.8270  0.1973 -0.3375
 5466SOL    HW217850   7.592   2.483   1.986  1.5448  0.5263 -3.5579
 5467SOL     OW17851   2.473   7.926   1.415 -0.3568  0.5027  0.4252
 5467SOL    HW117852   2.551   7.904   1.363 -1.3695  0.0021 -0.9591
 5467SOL    HW217853   2.504   7.930   1.505  1.1952 -0.0449 -0.0559
 5468SOL     OW17854   2.601   4.930   7.560 -0.1739  0.3977  0.3863
 5468SOL    HW117855   2.633   4.879   7.486 -0.4025  0.0008  0.5574
 5468SOL    HW217856   2.595   4.867   7.632  1.1067  0.9935  1.0553
 5469SOL     OW17857   9.119   0.344   2.210 -0.6708  0.4705  0.3371
 5469SOL    HW117858   9.189   0.311   2.268  0.1816 -1.5936 -1.7125
 5469SOL    HW217859   9.114   0.279   2.140 -4.9308  0.3734  0.5221
 5470SOL     OW17860   7.647   2.849   1.597 -0.0567 -0.4888 -0.0118
 5470SOL    HW117861   7.635   2.790   1.523  0.1479  0.0933 -0.5157
 5470SOL    HW217862   7.558   2.870   1.625 -0.1351 -1.3081  0.4092
 5471SOL     OW17863   5.740   7.490   2.907  0.0129  0.5325  0.5704
 5471SOL    HW117864   5.822   7.517   2.865 -0.1143  0.6932  0.4258
 5471SOL    HW217865   5.768   7.437   2.982  0.2324 -1.1633 -0.6510
 5472SOL     OW17866   3.474   4.393   4.471 -0.0853 -0.5383  0.3498
 5472SOL    HW117867   3.528   4.317   4.448 -0.3176 -0.3377 -0.9592
 5472SOL    HW217868   3.536   4.458   4.504  0.2142 -1.0210  0.7465
 5473SOL     OW17869   2.503   5.074   6.398 -0.7175 -0.2238 -0.2578
 5473SOL    HW117870   2.505   4.978   6.409  1.4340 -0.2505 -0.3866
 5473SOL    HW217871   2.552   5.089   6.318 -2.0462  0.9651 -0.8836
 5474SOL     OW17872   0.556   0.416   4.583 -0.1621 -0.2210  0.0505
 5474SOL    HW117873   0.498   0.340   4.586 -1.0089  0.4225  2.0334
 5474SOL    HW217874   0.514   0.475   4.520 -0.6555 -0.5254  0.0855
 5475SOL     OW17875   2.362   8.148   8.128 -0.8023  0.0184 -0.3727
 5475SOL    HW117876   2.368   8.207   8.203  1.0841 -0.1463 -0.3401
 5475SOL    HW217877   2.338   8.204   8.055 -0.9058  0.4993  0.0234
 5476SOL     OW17878   0.272   3.762   7.341 -0.3683  0.0313 -0.5673
 5476SOL    HW117879   0.332   3.740   7.270  1.0845  0.6692  0.3923
 5476SOL    HW217880   0.212   3.826   7.303 -0.4720 -0.6566 -1.5784
 5477SOL     OW17881   5.932   1.530   8.882  0.0716  0.4386 -0.0080
 5477SOL    HW117882   5.981   1.599   8.928 -0.0225 -0.1040  0.9319
 5477SOL    HW217883   5.878   1.489   8.949  0.9934 -1.3334 -0.2622
 5478SOL     OW17884   7.240   1.681   5.355 -0.1722 -0.0529 -0.5451
 5478SOL    HW117885   7.332   1.681   5.381  0.5087 -0.4669 -2.6876
 5478SOL    HW217886   7.196   1.733   5.422  1.9843  1.9750 -0.5486
 5479SOL     OW17887   8.740   7.077   0.380  0.1154 -0.4378  0.4625
 5479SOL    HW117888   8.669   7.140   0.364  0.4883 -0.2351 -0.4532
 5479SOL    HW217889   8.734   7.058   0.474 -1.0139 -0.2649  0.4411
 5480SOL     OW17890   7.433   7.873   4.309 -0.1530  0.0730  0.0780
 5480SOL    HW117891   7.344   7.844   4.328 -1.1657  2.8170 -0.0259
 5480SOL    HW217892   7.438   7.961   4.346  2.7395 -0.2056  0.5853
 5481SOL     OW17893   1.048   7.750   7.424  0.6128  0.2056  0.1790
 5481SOL    HW117894   1.125   7.764   7.369  1.4912  0.0643  1.3448
 5481SOL    HW217895   1.083   7.716   7.506 -0.8138 -1.0895  0.2763
 5482SOL     OW17896   0.991   4.884   5.515 -0.9939  0.6461 -0.4411
 5482SOL    HW117897   0.975   4.868   5.422  3.2084  1.8895 -1.5916
 5482SOL    HW217898   0.975   4.799   5.556  0.1912 -0.9169 -2.9109
 5483SOL     OW17899   2.356   9.131   5.009 -0.4497  0.3473  0.1328
 5483SOL    HW117900   2.334   9.175   4.927  3.0578  1.3308 -0.4405
 5483SOL    HW217901   2.420   9.065   4.984 -1.3919 -1.2899  1.7798
 5484SOL     OW17902   5.790   2.006   3.831 -0.0907 -0.3414 -0.9129
 5484SOL    HW117903   5.735   2.085   3.833 -1.2758 -1.1251 -1.6783
 5484SOL    HW217904   5.865   2.029   3.885 -0.8298  1.0119 -0.3987
 5485SOL     OW17905   2.724   5.898   0.898  0.1754 -0.0995 -0.5523
 5485SOL    HW117906   2.730   5.975   0.842 -1.0009 -0.3550 -1.0584
 5485SOL    HW217907   2.634   5.898   0.930  0.0845 -1.3809 -0.7532
 5486SOL     OW17908   5.601   3.576   8.873  0.0575  0.5255 -0.1143
 5486SOL    HW117909   5.536   3.508   8.890  0.3143  0.5478  1.0367
 5486SOL    HW217910   5.615   3.573   8.778 -1.9485  0.8443 -0.4567
 5487SOL     OW17911   4.014   5.108   3.809  0.1445 -0.3435  0.1994
 5487SOL    HW117912   3.965   5.187   3.787 -0.0900 -0.3877  0.5490
 5487SOL    HW217913   3.951   5.052   3.853  0.0306 -1.1613 -0.9507
 5488SOL     OW17914   4.922   7.252   6.341  0.1943 -0.3396 -0.3396
 5488SOL    HW117915   4.951   7.224   6.427  0.1338  1.7926  0.4461
 5488SOL    HW217916   4.829   7.233   6.339 -0.5214  2.4823  1.4167
 5489SOL     OW17917   8.259   0.884   6.856  0.5469 -0.1375  0.0393
 5489SOL    HW117918   8.335   0.872   6.799  0.7460  1.0674  0.0240
 5489SOL    HW217919   8.251   0.979   6.866 -0.1448 -0.2913  1.1347
 5490SOL     OW17920   6.493   0.331   5.598  0.3042 -0.2310  0.4156
 5490SOL    HW117921   6.478   0.421   5.569  0.8295 -0.0834  0.5817
 5490SOL    HW217922   6.423   0.280   5.557  0.4628  0.1278 -0.3206
 5491SOL     OW17923   2.167   8.519   3.504  0.5292 -0.2246 -1.0187
 5491SOL    HW117924   2.100   8.507   3.571 -0.5806 -1.2772 -2.2686
 5491SOL    HW217925   2.240   8.465   3.533  1.0786  1.2643  0.5760
 5492SOL     OW17926   4.054   7.821   6.326  0.1217 -0.1342 -0.4965
 5492SOL    HW117927   4.091   7.899   6.285  1.1693 -0.2828  0.1342
 5492SOL    HW217928   3.960   7.827   6.309  0.0252  1.8609  0.5167
 5493SOL     OW17929   8.491   2.577   8.111 -0.0284  0.0518 -0.1033
 5493SOL    HW117930   8.411   2.528   8.130  0.8452 -0.5590  2.4082
 5493SOL    HW217931   8.562   2.514   8.127  0.9986  0.5500 -2.3483
 5494SOL     OW17932   5.645   3.656   1.523 -0.2657  0.1272 -0.2208
 5494SOL    HW117933   5.639   3.589   1.591 -2.1329  1.2743  0.8375
 5494SOL    HW217934   5.611   3.613   1.445 -1.0306 -0.3090  0.3349
 5495SOL     OW17935   5.581   2.380   3.021  0.2844 -0.0401 -0.5227
 5495SOL    HW117936   5.605   2.362   2.930 -1.3493 -1.1491 -0.7691
 5495SOL    HW217937   5.627   2.462   3.042  0.2251  0.5551 -2.5280
 5496SOL     OW17938   4.139   0.387   8.203 -0.0358 -0.5284 -0.3203
 5496SOL    HW117939   4.158   0.302   8.245 -1.6862 -2.1607 -2.6358
 5496SOL    HW217940   4.053   0.412   8.238  0.1564 -0.1114 -0.1391
 5497SOL     OW17941   1.971   3.302   1.989  0.6035  0.5150  0.5199
 5497SOL    HW117942   2.021   3.362   2.045  2.3361 -1.5206  1.3187
 5497SOL    HW217943   2.009   3.313   1.902  0.6536  0.8449  0.5825
 5498SOL     OW17944   4.090   0.626   5.349  0.6195  0.3750 -0.1820
 5498SOL    HW117945   4.052   0.602   5.434  0.2875 -1.1223 -0.7171
 5498SOL    HW217946   4.182   0.600   5.356  0.7247  0.7754 -0.0842
 5499SOL     OW17947   5.171   1.634   2.313 -0.0092  0.1163 -0.2848
 5499SOL    HW117948   5.267   1.626   2.308  0.0290  1.2704 -4.2814
 5499SOL    HW217949   5.138   1.548   2.288 -0.0687 -0.1382  0.6192
 5500SOL     OW17950   8.815   5.838   0.245 -0.4699 -0.3076 -0.2625
 5500SOL    HW117951   8.909   5.842   0.230 -0.6975 -1.0674 -2.1372
 5500SOL    HW217952   8.799   5.904   0.313  1.6035 -1.3174  1.3045
 5501SOL     OW17953   8.661   5.641   2.240 -0.2561  0.4015 -0.1179
 5501SOL    HW117954   8.568   5.650   2.261 -0.9290 -0.4471 -2.4727
 5501SOL    HW217955   8.687   5.729   2.211 -0.5950  0.3921 -0.4529
 5502SOL     OW17956   5.622   7.576   6.044  0.3428 -0.6075 -0.3540
 5502SOL    HW117957   5.655   7.590   6.133 -0.7524 -0.4611  0.0400
 5502SOL    HW217958   5.528   7.587   6.051 -0.0043 -2.6648 -1.1250
 5503SOL     OW17959   8.511   7.341   5.918  0.1857  0.3858 -0.3420
 5503SOL    HW117960   8.465   7.405   5.863 -0.5885  0.0532 -0.1022
 5503SOL    HW217961   8.492   7.256   5.878 -2.8065 -0.1995  1.9344
 5504SOL     OW17962   8.363   1.546   1.590 -0.2893  0.2972  0.0117
 5504SOL    HW117963   8.386   1.486   1.662 -2.7072 -1.0132 -0.2046
 5504SOL    HW217964   8.436   1.538   1.528  0.3413 -0.9711  0.8695
 5505SOL     OW17965   5.988   6.860   5.932  0.3977 -0.4482  0.3597
 5505SOL    HW117966   6.008   6.954   5.922  0.0896 -0.3275  0.8333
 5505SOL    HW217967   6.004   6.823   5.845  2.9808 -0.4127  0.7411
 5506SOL     OW17968   4.178   2.706   2.331  0.5812  0.1139 -0.4377
 5506SOL    HW117969   4.100   2.761   2.340 -0.1704 -1.0931  0.7951
 5506SOL    HW217970   4.249   2.758   2.368  0.1381  0.7469 -0.4677
 5507SOL     OW17971   7.932   2.722   1.987  0.0054 -0.1193  0.5464
 5507SOL    HW117972   7.924   2.637   2.029  2.1468 -0.4017  0.5114
 5507SOL    HW217973   7.899   2.784   2.052 -1.6272 -0.9470  0.5484
 5508SOL     OW17974   7.172   1.793   6.689 -0.9782 -0.3877  0.5093
 5508SOL    HW117975   7.215   1.755   6.766  0.6826  1.9290  0.8206
 5508SOL    HW217976   7.078   1.785   6.708 -0.6306  0.7369  3.1276
 5509SOL     OW17977   6.005   0.124   3.957 -0.1699 -0.2835 -0.0782
 5509SOL    HW117978   6.046   0.207   3.934  1.7018 -1.1303  0.0553
 5509SOL    HW217979   6.051   0.095   4.036  0.7319 -2.4680 -1.3283
 5510SOL     OW17980   9.077   0.376   3.000  0.0340 -0.0100  0.0245
 5510SOL    HW117981   9.044   0.457   3.040  0.5857  0.6259 -0.7999
 5510SOL    HW217982   9.001   0.317   3.000 -0.8874  1.1312 -1.0261
 5511SOL     OW17983   7.922   4.289   8.150 -0.7038  0.6200  0.2250
 5511SOL    HW117984   8.012   4.280   8.119 -1.3297 -0.5379 -1.3756
 5511SOL    HW217985   7.908   4.384   8.157  0.2965  0.8400 -0.5850
 5512SOL     OW17986   5.657   0.021   5.144  0.0467  0.0804  1.1044
 5512SOL    HW117987   5.564   0.025   5.164 -0.6595 -2.9503 -0.9191
 5512SOL    HW217988   5.678  -0.073   5.149  1.5474 -0.1064 -3.8992
 5513SOL     OW17989   2.095   1.084   0.735  0.2033  0.2640  0.0600
 5513SOL    HW117990   2.101   1.011   0.673 -1.3748  0.8645 -0.8474
 5513SOL    HW217991   2.019   1.064   0.790  0.3994  0.7118  0.5086
 5514SOL     OW17992   5.254   2.432   7.656 -0.1192 -0.3681 -0.1162
 5514SOL    HW117993   5.172   2.412   7.610  0.5064 -0.5242 -1.2124
 5514SOL    HW217994   5.319   2.374   7.616  1.1593  1.8159 -1.4307
 5515SOL     OW17995   8.454   1.011   8.105  0.0093  0.2855 -0.6111
 5515SOL    HW117996   8.528   1.008   8.044  0.6129 -2.5450  0.1083
 5515SOL    HW217997   8.400   0.935   8.081 -0.0167 -0.5964  1.9670
 5516SOL     OW17998   2.790   7.230   6.846 -0.2492 -0.0969  0.0091
 5516SOL    HW117999   2.832   7.150   6.816  0.4735  0.1520  0.3203
 5516SOL    HW218000   2.859   7.275   6.896 -0.8259  0.4286  0.3372
 5517SOL     OW18001   4.677   8.458   2.060 -0.9465 -0.2697  0.1947
 5517SOL    HW118002   4.641   8.500   1.982 -1.9003  0.3768  0.9652
 5517SOL    HW218003   4.616   8.386   2.078  1.9687 -3.8020 -2.5798
 5518SOL     OW18004   0.210   2.083   0.370  0.1700  0.3870  0.5653
 5518SOL    HW118005   0.118   2.054   0.370  0.1214  0.4480 -1.2313
 5518SOL    HW218006   0.256   2.015   0.419 -0.7324 -0.0152  0.8822
 5519SOL     OW18007   0.035   0.568   7.694  0.0675 -0.2032  0.2095
 5519SOL    HW118008   0.079   0.650   7.718  0.5434 -0.3404 -0.2006
 5519SOL    HW218009  -0.014   0.544   7.773 -2.9913  2.3286 -0.7082
 5520SOL     OW18010   0.583   2.066   8.289 -0.0702 -0.3945 -0.0017
 5520SOL    HW118011   0.551   2.028   8.207  2.0304  1.8430 -2.0228
 5520SOL    HW218012   0.566   1.999   8.355 -2.0121 -2.2388 -2.1955
 5521SOL     OW18013   3.643   2.757   1.218 -0.5930 -0.1576  0.1634
 5521SOL    HW118014   3.577   2.710   1.168 -0.3950 -0.1100 -0.1483
 5521SOL    HW218015   3.611   2.847   1.224 -0.4091 -0.0606 -0.2603
 5522SOL     OW18016   2.728   6.148   7.037 -0.5801  0.3742 -0.0566
 5522SOL    HW118017   2.777   6.206   6.980 -0.5585  0.3749 -0.0375
 5522SOL    HW218018   2.785   6.073   7.051 -0.5982  0.3594 -0.0622
 5523SOL     OW18019   3.393   0.402   4.659  0.7760 -0.0007 -0.7441
 5523SOL    HW118020   3.304   0.370   4.644  0.5960  0.4106 -0.5787
 5523SOL    HW218021   3.402   0.477   4.600  0.1638  1.4429  0.9235
 5524SOL     OW18022   1.612   4.356   7.677 -0.1375  0.0274 -0.0098
 5524SOL    HW118023   1.554   4.280   7.676 -0.6356  0.4050 -0.3093
 5524SOL    HW218024   1.630   4.371   7.770  0.0345 -0.4976  0.0509
 5525SOL     OW18025   5.246   3.829   4.483 -0.5396  0.3700  0.7480
 5525SOL    HW118026   5.171   3.783   4.444  0.6056 -1.3447  0.4785
 5525SOL    HW218027   5.258   3.788   4.569  1.3022 -0.8569 -0.0176
 5526SOL     OW18028   8.620   5.064   1.032  0.3509 -0.1754 -0.0686
 5526SOL    HW118029   8.540   5.013   1.037 -0.1091  0.5242 -0.1837
 5526SOL    HW218030   8.613   5.112   0.949  1.1619 -0.5619 -0.3705
 5527SOL     OW18031   0.038   5.657   0.791  0.0992 -0.3466  0.5005
 5527SOL    HW118032   0.064   5.748   0.781 -1.8240  0.2136  0.1730
 5527SOL    HW218033   0.091   5.609   0.726  2.1938  0.2535  1.6730
 5528SOL     OW18034   8.854   7.887   9.041 -0.3209  0.3563 -0.6660
 5528SOL    HW118035   8.794   7.840   8.983  1.0239 -1.6047 -0.5457
 5528SOL    HW218036   8.803   7.903   9.121  0.2034 -4.7181  1.0242
 5529SOL     OW18037   6.951   4.452   5.183  0.1916 -0.2545 -0.1221
 5529SOL    HW118038   6.910   4.535   5.162  0.2476 -0.0651  0.4797
 5529SOL    HW218039   7.036   4.475   5.220  0.5879 -0.6180 -0.7932
 5530SOL     OW18040   7.475   3.796   2.207  0.6405  0.6849  0.1230
 5530SOL    HW118041   7.463   3.865   2.272  0.2140  1.5627 -0.8655
 5530SOL    HW218042   7.553   3.823   2.158  0.9676  0.0212  0.2610
 5531SOL     OW18043   5.040   2.974   0.969 -0.1093  0.2182  0.4916
 5531SOL    HW118044   5.049   2.983   1.064 -2.2489  2.7943  0.5431
 5531SOL    HW218045   5.034   2.879   0.955  0.1867 -0.2222  2.9344
 5532SOL     OW18046   8.874   8.894   1.188 -0.2378  0.3845  0.3301
 5532SOL    HW118047   8.930   8.829   1.146  0.1506  0.2654  1.0145
 5532SOL    HW218048   8.925   8.975   1.186 -2.3640  1.9719 -4.5244
 5533SOL     OW18049   2.283   0.227   2.652  0.3289 -0.0744 -0.3955
 5533SOL    HW118050   2.363   0.198   2.696  1.2100 -0.5407 -2.2178
 5533SOL    HW218051   2.232   0.147   2.639 -1.3016  0.3880  2.1884
 5534SOL     OW18052   6.978   2.425   1.880 -0.0603 -0.0627 -0.0131
 5534SOL    HW118053   6.943   2.377   1.955  1.6118 -0.8986  0.2898
 5534SOL    HW218054   6.987   2.360   1.811 -0.6553  0.4938 -0.6329
 5535SOL     OW18055   3.189   3.057   8.369  0.2477  0.0639  0.3697
 5535SOL    HW118056   3.238   3.075   8.449  0.1592 -1.6587  0.8516
 5535SOL    HW218057   3.239   2.989   8.325 -1.6548 -1.7638  0.8859
 5536SOL     OW18058   2.550   5.419   7.110 -0.7386 -0.8809 -0.4201
 5536SOL    HW118059   2.501   5.377   7.181  2.1879 -2.8140  0.6693
 5536SOL    HW218060   2.613   5.476   7.155  0.9139 -1.8454 -1.4131
 5537SOL     OW18061   7.336   4.990   6.308  0.6351  0.1791  0.3607
 5537SOL    HW118062   7.399   4.964   6.376  1.7789 -1.1952 -1.1427
 5537SOL    HW218063   7.383   5.057   6.258  0.7094 -0.4402 -0.4186
 5538SOL     OW18064   8.380   4.503   6.417  0.7554  0.1422 -0.0119
 5538SOL    HW118065   8.440   4.535   6.484 -1.1248 -1.5074  2.6420
 5538SOL    HW218066   8.307   4.566   6.419 -0.2152 -0.9821  0.9600
 5539SOL     OW18067   5.420   5.380   3.243  0.3101  0.2919  0.0123
 5539SOL    HW118068   5.388   5.358   3.156  1.4192 -2.6064  0.2058
 5539SOL    HW218069   5.515   5.390   3.233  0.6067 -1.0968  0.9473
 5540SOL     OW18070   3.761   3.964   8.958 -0.4801 -0.3959 -0.2678
 5540SOL    HW118071   3.838   4.019   8.974 -1.0109  0.3553 -0.2653
 5540SOL    HW218072   3.797   3.881   8.926  0.3469 -0.1781  0.0886
 5541SOL     OW18073   2.944   2.044   5.951 -0.0845 -0.0604 -0.4495
 5541SOL    HW118074   2.904   2.040   6.038  2.2648 -0.5844  0.6777
 5541SOL    HW218075   2.882   1.997   5.894 -1.5922  0.1626  0.9420
 5542SOL     OW18076   4.766   6.683   7.528  0.4414 -0.2110 -0.6423
 5542SOL    HW118077   4.691   6.719   7.480  0.7157  1.3608  0.0424
 5542SOL    HW218078   4.730   6.660   7.614  0.3809 -1.1721 -0.9065
 5543SOL     OW18079   2.178   2.531   3.122  0.1775 -0.1106  0.6022
 5543SOL    HW118080   2.095   2.509   3.080  0.8089 -0.0866 -0.7334
 5543SOL    HW218081   2.153   2.566   3.208 -1.1816 -0.1380  0.2496
 5544SOL     OW18082   3.639   0.747   1.323  0.8870  0.6702 -0.6460
 5544SOL    HW118083   3.725   0.723   1.289 -0.0358  0.3072 -2.8989
 5544SOL    HW218084   3.651   0.755   1.417  2.9228 -1.3122 -0.6815
 5545SOL     OW18085   7.738   2.571   1.059  0.3822 -0.3718 -1.0231
 5545SOL    HW118086   7.759   2.601   0.971  0.0348  1.2419 -0.5922
 5545SOL    HW218087   7.807   2.609   1.114 -0.1180 -0.2873 -0.4386
 5546SOL     OW18088   2.216   5.952   7.737  0.4597 -0.1255 -0.4937
 5546SOL    HW118089   2.126   5.985   7.734  0.7789  0.6924 -1.3665
 5546SOL    HW218090   2.218   5.897   7.815 -0.5756  0.5027 -0.0030
 5547SOL     OW18091   5.856   0.082   0.727  0.2345 -0.5036  0.1532
 5547SOL    HW118092   5.911   0.106   0.652  0.6812  0.6810  0.8350
 5547SOL    HW218093   5.889   0.136   0.799 -0.1850 -1.6241  1.2158
 5548SOL     OW18094   2.950   2.699   7.882  0.6162  0.2273 -0.2652
 5548SOL    HW118095   2.967   2.750   7.803 -1.0057  2.3754  0.6687
 5548SOL    HW218096   3.029   2.710   7.935  0.9880  0.2947 -0.8200
 5549SOL     OW18097   9.133   5.089   8.954 -0.8550 -0.2877  0.5641
 5549SOL    HW118098   9.104   5.105   9.044 -1.1048  0.3777  0.3731
 5549SOL    HW218099   9.051   5.077   8.905 -0.7714  0.3696  0.2477
 5550SOL     OW18100   7.117   5.040   2.708 -0.0263 -0.4826  0.3651
 5550SOL    HW118101   7.202   5.083   2.718  0.8973 -2.2625  0.6710
 5550SOL    HW218102   7.089   5.021   2.798 -1.7282  1.7517  0.4051
 5551SOL     OW18103   8.203   3.184   5.659 -0.6554  0.3996  0.0515
 5551SOL    HW118104   8.262   3.117   5.626  1.2216  1.8138  0.3482
 5551SOL    HW218105   8.197   3.167   5.753 -0.4364  0.4504  0.0748
 5552SOL     OW18106   3.856   5.607   0.959 -0.3868  0.5186  0.1609
 5552SOL    HW118107   3.888   5.570   0.877  1.7538 -1.6808  1.8217
 5552SOL    HW218108   3.933   5.647   0.999 -1.4989  2.0182  0.9048
 5553SOL     OW18109   3.425   2.576   7.924  0.3115 -0.1382 -0.0855
 5553SOL    HW118110   3.482   2.596   7.849  0.9045 -0.9623  0.1336
 5553SOL    HW218111   3.347   2.538   7.884  0.6305 -0.5887 -0.2966
 5554SOL     OW18112   6.204   1.534   8.770  0.1281 -0.4532  0.0637
 5554SOL    HW118113   6.132   1.586   8.734  0.3523  0.1971  0.5416
 5554SOL    HW218114   6.164   1.486   8.843 -0.0855 -0.9856 -0.3942
 5555SOL     OW18115   7.721   3.592   6.052  0.2911  0.2700 -0.3081
 5555SOL    HW118116   7.693   3.523   5.991  1.5918 -0.7330  0.1825
 5555SOL    HW218117   7.766   3.545   6.122 -0.0586  1.5180  0.7858
 5556SOL     OW18118   0.028   2.478   3.592  0.0079  0.2040  0.3194
 5556SOL    HW118119  -0.006   2.567   3.604  0.6042  0.6482 -1.0278
 5556SOL    HW218120  -0.039   2.434   3.539  0.4791  0.3974 -0.4574
 5557SOL     OW18121   0.479   1.120   8.420  0.3181 -0.8043  0.1893
 5557SOL    HW118122   0.464   1.204   8.377  0.9487 -1.2175 -0.8687
 5557SOL    HW218123   0.510   1.143   8.508  1.7206  0.0809 -0.5110
 5558SOL     OW18124   1.515   3.138   6.615  0.0064 -0.3688 -0.2858
 5558SOL    HW118125   1.470   3.178   6.689  1.3981 -2.4787  1.8592
 5558SOL    HW218126   1.603   3.177   6.617  0.2681 -0.9481 -0.3546
 5559SOL     OW18127   3.728   7.293   1.338  0.3124  0.2352 -0.7711
 5559SOL    HW118128   3.658   7.257   1.284  1.1425 -0.8578 -1.1416
 5559SOL    HW218129   3.807   7.284   1.285  0.6264  2.3579 -0.7659
 5560SOL     OW18130   1.196   6.527   8.366 -0.3014  0.1513 -0.0489
 5560SOL    HW118131   1.166   6.567   8.285 -1.4341 -1.1082 -0.2841
 5560SOL    HW218132   1.155   6.579   8.435  2.2230  2.4912 -0.1181
 5561SOL     OW18133   2.535   1.601   9.000  0.2486 -0.0829  0.3302
 5561SOL    HW118134   2.610   1.598   9.060  1.0739 -1.8856 -0.6768
 5561SOL    HW218135   2.541   1.518   8.951 -1.6473  0.3368 -0.7086
 5562SOL     OW18136   9.155   8.277   0.834 -0.3353 -0.8038  0.5525
 5562SOL    HW118137   9.182   8.226   0.911 -0.1389 -0.1995  0.8921
 5562SOL    HW218138   9.150   8.213   0.763  0.6301 -1.1716  0.8011
 5563SOL     OW18139   0.294   2.676   2.150 -0.3373  0.3005  0.2451
 5563SOL    HW118140   0.276   2.760   2.107 -2.3455 -1.3642 -2.4364
 5563SOL    HW218141   0.382   2.652   2.118 -0.4686  0.6042 -0.3692
 5564SOL     OW18142   0.196   8.610   8.126 -0.4125 -0.2295  0.2603
 5564SOL    HW118143   0.259   8.578   8.062 -0.3304 -0.4972  0.4745
 5564SOL    HW218144   0.141   8.671   8.077  0.3159  0.3877  0.1813
 5565SOL     OW18145   2.652   2.204   8.952 -0.0743 -0.0327 -0.0370
 5565SOL    HW118146   2.597   2.241   8.883 -0.3062  1.1161  0.7392
 5565SOL    HW218147   2.591   2.155   9.008 -0.1724  0.5213  0.3425
 5566SOL     OW18148   3.083   1.252   9.159 -0.0569  0.3898 -0.0274
 5566SOL    HW118149   3.122   1.182   9.211  0.8850  1.6712  1.0593
 5566SOL    HW218150   2.991   1.227   9.149 -0.0516 -0.3412  1.4821
 5567SOL     OW18151   2.077   5.053   3.898  0.3087  0.9652 -0.1797
 5567SOL    HW118152   2.142   5.057   3.827  1.8800  0.8979  1.1975
 5567SOL    HW218153   2.074   5.142   3.932 -1.2916  1.2651 -1.0176
 5568SOL     OW18154   8.164   5.511   6.470  0.7778  0.6782 -0.0272
 5568SOL    HW118155   8.180   5.422   6.501  1.2927  0.9231  0.4321
 5568SOL    HW218156   8.249   5.555   6.479  0.3317  1.4460  0.5497
 5569SOL     OW18157   7.613   5.349   9.181 -0.2383  0.6211 -1.1499
 5569SOL    HW118158   7.567   5.342   9.098 -1.5132  0.8098 -0.4769
 5569SOL    HW218159   7.546   5.331   9.248  1.2671 -2.2478 -0.2119
 5570SOL     OW18160   2.168   0.017   2.508 -0.3877  0.4355 -0.0896
 5570SOL    HW118161   2.138   0.043   2.421  0.7304  0.2466 -0.5485
 5570SOL    HW218162   2.210  -0.067   2.494 -2.7853 -1.1031  1.1417
 5571SOL     OW18163   0.047   9.094   5.639 -0.3199 -0.4873 -0.2709
 5571SOL    HW118164   0.093   9.051   5.711  0.4726  0.5557 -0.1409
 5571SOL    HW218165  -0.045   9.095   5.666 -0.5112 -2.7104 -0.5880
 5572SOL     OW18166   1.473   2.196   7.652 -0.3438 -0.3313 -0.5917
 5572SOL    HW118167   1.412   2.216   7.723 -1.3069  1.0217 -1.7523
 5572SOL    HW218168   1.428   2.130   7.599 -1.2715  1.3004 -1.9432
 5573SOL     OW18169   4.493   1.192   7.160 -0.0943 -0.2668  0.4233
 5573SOL    HW118170   4.586   1.212   7.149 -0.6201  2.3453 -0.0830
 5573SOL    HW218171   4.491   1.106   7.202  2.4991 -0.8261 -0.4227
 5574SOL     OW18172   7.282   7.320   0.582 -0.3355  0.4630 -0.4137
 5574SOL    HW118173   7.211   7.352   0.638 -0.8886 -1.4402  0.0339
 5574SOL    HW218174   7.238   7.270   0.513  0.5348 -1.7421  0.5162
 5575SOL     OW18175   8.172   1.863   6.071 -0.4861 -0.4241 -0.1040
 5575SOL    HW118176   8.229   1.924   6.025  1.2787 -0.9067  1.3142
 5575SOL    HW218177   8.130   1.916   6.139  0.1784 -0.5300  0.4034
 5576SOL     OW18178   4.941   0.849   7.814  0.3511  0.5735  0.0221
 5576SOL    HW118179   5.003   0.849   7.887 -0.1213  0.9217  0.4331
 5576SOL    HW218180   4.857   0.828   7.855  0.3405 -0.8371 -0.6642
 5577SOL     OW18181   0.999   2.793   4.655  0.3190  0.4576  0.1987
 5577SOL    HW118182   0.947   2.844   4.717  0.5699  1.2437 -0.2221
 5577SOL    HW218183   0.943   2.719   4.631 -0.7151  1.3977 -0.4148
 5578SOL     OW18184   4.914   6.654   3.128  0.2716  0.4659 -0.0214
 5578SOL    HW118185   4.826   6.617   3.137 -0.6444  2.7317  1.3553
 5578SOL    HW218186   4.904   6.724   3.064  0.4861  2.1651  1.6953
 5579SOL     OW18187   2.837   0.743   1.115 -0.1662  0.5078 -0.0503
 5579SOL    HW118188   2.814   0.797   1.191 -0.1864 -1.1594  1.1831
 5579SOL    HW218189   2.867   0.660   1.152  1.9543  0.3950 -1.7969
 5580SOL     OW18190   5.725   3.412   4.581  0.1741 -0.2019 -0.4380
 5580SOL    HW118191   5.808   3.395   4.625 -0.1495  0.5088  0.4895
 5580SOL    HW218192   5.719   3.344   4.514  1.2086 -0.6354 -0.1189
 5581SOL     OW18193   5.497   3.853   1.796  0.3607 -0.2752 -0.0216
 5581SOL    HW118194   5.458   3.770   1.767 -0.2238 -0.5666  1.5193
 5581SOL    HW218195   5.445   3.920   1.751  0.7480 -0.7125 -1.1683
 5582SOL     OW18196   6.491   2.921   1.319  0.7645  0.4533 -0.0859
 5582SOL    HW118197   6.491   3.016   1.313 -0.4628  0.5086  0.4848
 5582SOL    HW218198   6.580   2.899   1.346  0.1000  1.7672  3.7887
 5583SOL     OW18199   4.203   8.836   2.342  0.0956 -0.0881 -0.7385
 5583SOL    HW118200   4.254   8.804   2.417 -0.3217  2.2408  0.6413
 5583SOL    HW218201   4.237   8.925   2.327 -2.6245  1.0596 -0.5835
 5584SOL     OW18202   0.364   3.102   0.430  0.0540  1.0690  0.1023
 5584SOL    HW118203   0.299   3.096   0.360 -0.5660  3.1228  0.4306
 5584SOL    HW218204   0.347   3.187   0.471  1.8327  0.8871  1.3263
 5585SOL     OW18205   9.110   7.262   2.218  0.0154 -0.0182  0.5327
 5585SOL    HW118206   9.083   7.171   2.212 -0.4290  0.1620 -0.3264
 5585SOL    HW218207   9.048   7.309   2.163  0.6999  0.7115  0.3674
 5586SOL     OW18208   1.581   5.985   8.981 -0.4205 -0.0073  0.2596
 5586SOL    HW118209   1.607   5.898   9.009 -1.1109 -0.4657 -0.5053
 5586SOL    HW218210   1.511   5.971   8.918  1.0791  0.9738 -1.7479
 5587SOL     OW18211   8.864   6.520   0.915 -0.3751 -0.9665  0.3034
 5587SOL    HW118212   8.940   6.536   0.971 -1.9166  1.1363  1.9718
 5587SOL    HW218213   8.837   6.430   0.935  0.9177 -1.3069  0.6003
 5588SOL     OW18214   3.702   5.939   2.493  0.1351  0.5354  0.2176
 5588SOL    HW118215   3.660   5.999   2.555  0.2613  0.4165  0.4200
 5588SOL    HW218216   3.778   5.906   2.540 -1.6149 -2.2337  1.3782
 5589SOL     OW18217   0.737   4.306   7.915  0.0314 -0.2778 -0.0539
 5589SOL    HW118218   0.800   4.258   7.862  0.8822 -0.3626  0.9942
 5589SOL    HW218219   0.783   4.323   7.997 -0.5920  1.4636 -0.0185
 5590SOL     OW18220   8.779   8.951   1.449  0.2217  0.6690 -0.1118
 5590SOL    HW118221   8.717   9.014   1.413  0.1778  1.1680  0.8127
 5590SOL    HW218222   8.834   8.927   1.374 -0.5198  0.8754 -0.7479
 5591SOL     OW18223   1.629   5.698   9.086 -0.1559 -0.4202 -0.7614
 5591SOL    HW118224   1.587   5.712   9.171  0.1840 -2.0022 -0.2973
 5591SOL    HW218225   1.607   5.608   9.063  0.3999 -0.2638 -1.9943
 5592SOL     OW18226   2.043   3.614   7.058 -0.2390 -0.2843  0.3685
 5592SOL    HW118227   1.973   3.668   7.021  0.0120  1.2919  2.0545
 5592SOL    HW218228   2.091   3.581   6.981 -0.8481  1.2899 -0.7428
 5593SOL     OW18229   4.234   3.671   4.916  0.5682 -0.2920 -0.7144
 5593SOL    HW118230   4.283   3.601   4.960  2.0642  0.9458 -0.3068
 5593SOL    HW218231   4.187   3.628   4.846  2.4864 -1.5500 -1.3038
 5594SOL     OW18232   4.039   7.669   6.542  0.2995 -0.5567  0.2861
 5594SOL    HW118233   4.061   7.736   6.478 -0.8287 -1.7192 -1.4202
 5594SOL    HW218234   4.120   7.652   6.589  0.7165  1.6113  0.4181
 5595SOL     OW18235   0.454   2.148   8.894 -0.2699 -0.0019  0.3793
 5595SOL    HW118236   0.416   2.223   8.849  0.3243 -0.9019 -1.7431
 5595SOL    HW218237   0.403   2.073   8.862 -0.4877 -0.6050  2.0189
 5596SOL     OW18238   7.225   6.794   9.038  0.4289 -0.4521 -0.4570
 5596SOL    HW118239   7.185   6.736   9.104  1.6378 -0.7315  0.0518
 5596SOL    HW218240   7.179   6.877   9.050 -1.8647 -1.4531 -1.7083
 5597SOL     OW18241   7.471   0.144   3.981 -0.2313 -0.0377  0.1443
 5597SOL    HW118242   7.458   0.061   4.027 -1.7998  0.1060  0.0307
 5597SOL    HW218243   7.431   0.130   3.896  1.2590  0.2142 -0.6196
 5598SOL     OW18244   4.389   0.485   3.340 -0.0704  0.3990  0.0648
 5598SOL    HW118245   4.296   0.504   3.327  0.3300  1.4431 -1.5730
 5598SOL    HW218246   4.408   0.412   3.282  0.0806 -0.0259  0.6355
 5599SOL     OW18247   7.624   1.245   6.708 -0.1777 -0.6180 -0.0599
 5599SOL    HW118248   7.600   1.227   6.799 -0.1405  0.7618  0.2581
 5599SOL    HW218249   7.553   1.208   6.656 -1.2441  0.3535  0.6625
 5600SOL     OW18250   3.537   4.305   2.482  0.1351  0.1746 -0.1027
 5600SOL    HW118251   3.452   4.347   2.488  0.5768  1.3541 -1.5762
 5600SOL    HW218252   3.572   4.309   2.571 -1.7774 -1.3786  0.7944
 5601SOL     OW18253   4.234   4.895   7.612 -0.4072 -0.0003  0.1867
 5601SOL    HW118254   4.251   4.811   7.571  0.3393  0.8125 -1.2491
 5601SOL    HW218255   4.140   4.893   7.633 -0.2506 -1.4452  0.8571
 5602SOL     OW18256   0.775   0.956   1.494 -0.0097  0.1260  0.0306
 5602SOL    HW118257   0.710   0.930   1.430 -0.9443  1.4368  0.3999
 5602SOL    HW218258   0.820   1.031   1.455 -0.0190  0.4131  0.5517
 5603SOL     OW18259   2.693   0.422   2.782 -0.2346  0.2677 -0.3833
 5603SOL    HW118260   2.639   0.496   2.754 -0.7051 -0.0364 -0.2878
 5603SOL    HW218261   2.778   0.438   2.742  0.2074  1.7944  1.0941
 5604SOL     OW18262   8.361   3.882   5.436 -0.1576  0.3074 -0.4649
 5604SOL    HW118263   8.391   3.791   5.424 -0.9106  0.0442 -0.3696
 5604SOL    HW218264   8.266   3.877   5.429 -0.2703  0.9577  0.4168
 5605SOL     OW18265   3.949   0.577   3.212  0.4866  0.2504  0.0827
 5605SOL    HW118266   3.940   0.483   3.228 -0.2640  0.2047 -0.5087
 5605SOL    HW218267   3.864   0.613   3.237  1.5642  1.1831  2.7872
 5606SOL     OW18268   1.557   1.063   2.490 -0.4064  0.4406 -0.5119
 5606SOL    HW118269   1.645   1.081   2.459 -0.3198 -1.3222 -1.3947
 5606SOL    HW218270   1.504   1.135   2.455  0.4241  0.7383 -1.1958
 5607SOL     OW18271   6.586   8.992   8.973 -0.3746 -0.1554  0.2128
 5607SOL    HW118272   6.561   8.914   8.924 -2.2683 -0.6834  1.8951
 5607SOL    HW218273   6.626   8.958   9.054  3.8888  0.6702 -1.2753
 5608SOL     OW18274   5.086   2.507   7.947  0.3835  0.1487  0.9734
 5608SOL    HW118275   5.090   2.434   8.008 -1.0912 -0.8929 -0.0975
 5608SOL    HW218276   5.177   2.534   7.936  0.8506 -0.8062  2.2343
 5609SOL     OW18277   3.362   6.379   8.926 -0.4632 -0.0838  0.3261
 5609SOL    HW118278   3.286   6.380   8.868  0.2004 -1.6087 -0.6178
 5609SOL    HW218279   3.436   6.358   8.869  0.4153 -0.3085  1.5014
 5610SOL     OW18280   8.099   3.519   2.327  0.1795 -0.0281 -0.3206
 5610SOL    HW118281   8.100   3.602   2.375  2.6949  0.8155 -1.6319
 5610SOL    HW218282   8.052   3.539   2.246 -2.5230 -0.9880  0.8889
 5611SOL     OW18283   7.272   5.700   4.681 -0.5167 -0.0264 -0.0048
 5611SOL    HW118284   7.328   5.633   4.721 -1.2955 -1.0456 -0.5927
 5611SOL    HW218285   7.215   5.729   4.752 -1.9085 -1.8455 -0.2944
 5612SOL     OW18286   3.934   8.870   2.339  0.0074  0.5449 -0.7336
 5612SOL    HW118287   3.899   8.897   2.424 -1.1648 -1.9992 -0.2897
 5612SOL    HW218288   4.028   8.885   2.345 -0.4753  4.3953 -0.6495
 5613SOL     OW18289   4.772   5.452   2.404  0.1128 -0.0399  0.0662
 5613SOL    HW118290   4.742   5.449   2.495 -0.1974 -0.8860 -0.0602
 5613SOL    HW218291   4.703   5.409   2.354  1.1800 -1.4056 -0.3056
 5614SOL     OW18292   5.219   8.975   0.123 -0.4213  0.5943  0.1068
 5614SOL    HW118293   5.221   9.057   0.075 -0.8898  0.3584 -0.3229
 5614SOL    HW218294   5.173   8.914   0.066  0.3146 -0.0975  0.2292
 5615SOL     OW18295   1.071   7.084   8.064  0.3570  0.5997 -0.3073
 5615SOL    HW118296   1.072   7.027   8.140 -1.2796  1.6823  0.5826
 5615SOL    HW218297   1.081   7.172   8.099  1.0400  1.0192 -1.4904
 5616SOL     OW18298   5.063   4.198   6.766 -0.3579  0.1398  0.8448
 5616SOL    HW118299   5.065   4.124   6.827  2.1302 -0.9307 -0.4216
 5616SOL    HW218300   5.046   4.159   6.681  1.0878  0.9616  0.1326
 5617SOL     OW18301   8.964   4.017   7.980 -0.7784  0.2724  0.2699
 5617SOL    HW118302   8.889   3.961   7.960 -1.1040  0.6534  0.4002
 5617SOL    HW218303   9.000   3.981   8.062 -1.3924  0.6571  0.7153
 5618SOL     OW18304   7.457   4.859   8.452  0.0688  0.2747 -0.5518
 5618SOL    HW118305   7.447   4.779   8.400  0.0636  0.6054 -1.0629
 5618SOL    HW218306   7.510   4.917   8.397  0.6737  0.3656  0.1091
 5619SOL     OW18307   2.274   0.420   0.431 -0.1644 -0.8155  0.1532
 5619SOL    HW118308   2.329   0.407   0.508 -0.3228 -2.3019  0.0387
 5619SOL    HW218309   2.330   0.394   0.357 -0.3194 -0.2960 -0.1496
 5620SOL     OW18310   0.958   6.698   0.922  0.1820 -0.7793  0.1891
 5620SOL    HW118311   0.971   6.603   0.915 -0.9314 -0.9455  0.1806
 5620SOL    HW218312   0.964   6.716   1.015  2.4610 -0.5131  0.0449
 5621SOL     OW18313   2.275   4.159   5.805  0.6975 -0.6773  0.3405
 5621SOL    HW118314   2.216   4.182   5.877  0.4298 -0.4656  0.0575
 5621SOL    HW218315   2.220   4.162   5.727  0.8180 -1.6014  0.2097
 5622SOL     OW18316   9.031   0.274   8.609 -0.1316  0.4593 -0.0931
 5622SOL    HW118317   9.059   0.326   8.685 -0.6198  2.9641 -1.5329
 5622SOL    HW218318   9.088   0.197   8.611  0.6142  0.9790  2.1612
 5623SOL     OW18319   5.313   4.007   0.172 -0.1499  0.3198 -0.2364
 5623SOL    HW118320   5.395   4.055   0.158  0.0585  0.5464  1.4581
 5623SOL    HW218321   5.338   3.929   0.222 -0.8914  0.1130 -0.1620
 5624SOL     OW18322   8.265   7.334   1.616  0.0978 -0.1534  0.5470
 5624SOL    HW118323   8.260   7.302   1.526  0.9620  1.6685 -0.2052
 5624SOL    HW218324   8.174   7.335   1.647 -0.0862 -1.9256  0.1496
 5625SOL     OW18325   1.438   3.372   4.094  0.3949 -0.8153  0.2031
 5625SOL    HW118326   1.497   3.396   4.166  0.4002  0.2328 -0.1257
 5625SOL    HW218327   1.477   3.415   4.017 -1.3970  0.8866  0.1815
 5626SOL     OW18328   7.824   8.661   3.954  0.2956 -0.2465 -0.2418
 5626SOL    HW118329   7.770   8.652   3.875  0.6957  3.2128 -1.0559
 5626SOL    HW218330   7.910   8.688   3.921  0.7402  0.3561  1.3418
 5627SOL     OW18331   5.618   0.623   4.234 -0.9758 -0.2611 -0.2150
 5627SOL    HW118332   5.621   0.646   4.141 -1.0724 -3.0532 -1.0006
 5627SOL    HW218333   5.695   0.665   4.271 -0.9837  0.9820 -1.5307
 5628SOL     OW18334   9.005   4.884   1.782  0.6130 -0.0237  0.3440
 5628SOL    HW118335   9.066   4.811   1.787 -2.1465 -2.5113  0.1105
 5628SOL    HW218336   9.000   4.904   1.688  0.3586 -0.4609  0.2625
 5629SOL     OW18337   1.669   3.422   3.198 -0.2159  0.2018  0.0945
 5629SOL    HW118338   1.751   3.407   3.246 -1.5201 -2.7590  1.7236
 5629SOL    HW218339   1.603   3.432   3.267 -1.7304 -1.1886 -1.0669
 5630SOL     OW18340   3.715   4.004   6.530  0.5331 -0.2301 -0.0344
 5630SOL    HW118341   3.704   3.921   6.578  0.6297 -0.6697 -0.7619
 5630SOL    HW218342   3.784   3.986   6.466  0.3615  0.3296 -0.3848
 5631SOL     OW18343   9.142   7.285   5.440 -0.2583 -0.0571 -0.3642
 5631SOL    HW118344   9.047   7.271   5.435 -0.4144  0.8652 -0.1432
 5631SOL    HW218345   9.160   7.293   5.534  0.1739 -1.0369 -0.3461
 5632SOL     OW18346   0.417   1.975   4.196  0.1770  0.1986 -0.0799
 5632SOL    HW118347   0.396   2.068   4.205 -0.0213  0.1135  0.3637
 5632SOL    HW218348   0.496   1.973   4.141  0.7334  0.6892  0.6780
 5633SOL     OW18349   8.458   4.712   7.169  0.1554  0.8679  0.0897
 5633SOL    HW118350   8.436   4.790   7.118  2.5531  1.6679  0.1557
 5633SOL    HW218351   8.484   4.746   7.255 -1.3822 -0.2621  1.0508
 5634SOL     OW18352   3.283   0.980   0.785  0.3495 -0.2158  0.4884
 5634SOL    HW118353   3.215   0.913   0.795 -0.6671  0.7417  0.2277
 5634SOL    HW218354   3.235   1.063   0.782  1.4456  0.4169 -0.7519
 5635SOL     OW18355   8.619   4.467   5.802  0.0863 -1.0497  0.0027
 5635SOL    HW118356   8.633   4.372   5.807 -2.3823 -1.4765  0.0921
 5635SOL    HW218357   8.527   4.477   5.777  0.6472  1.3458 -1.4238
 5636SOL     OW18358   0.652   6.617   6.435 -0.1797  0.3835  0.2026
 5636SOL    HW118359   0.746   6.599   6.427 -0.2100  0.5265 -0.6192
 5636SOL    HW218360   0.647   6.708   6.464 -0.0645  0.5712 -0.3568
 5637SOL     OW18361   1.856   5.085   7.480  0.5761 -0.8538  0.5331
 5637SOL    HW118362   1.940   5.040   7.474 -0.0954 -2.7350  3.1449
 5637SOL    HW218363   1.813   5.066   7.396  0.7892 -4.3525  1.0469
 5638SOL     OW18364   9.251   4.884   2.779 -0.6764 -0.1341 -0.5890
 5638SOL    HW118365   9.249   4.823   2.853  0.7207  0.0719 -0.3585
 5638SOL    HW218366   9.291   4.963   2.814 -0.0790 -0.0049 -1.5362
 5639SOL     OW18367   1.217   7.428   4.218  0.0304  0.1707  0.0477
 5639SOL    HW118368   1.145   7.477   4.178  1.0135  0.5530 -1.3408
 5639SOL    HW218369   1.180   7.341   4.236 -0.4485 -0.0483 -1.8226
 5640SOL     OW18370   5.533   5.773   7.049  0.0586  0.1716  0.5947
 5640SOL    HW118371   5.522   5.724   6.967 -0.0974  2.0883 -0.5953
 5640SOL    HW218372   5.464   5.740   7.106 -0.1526 -0.8623 -0.2276
 5641SOL     OW18373   6.089   3.105   6.645 -0.1482 -0.2346 -0.0846
 5641SOL    HW118374   6.142   3.085   6.567 -0.3182  0.1197 -0.2919
 5641SOL    HW218375   6.017   3.158   6.612  0.3200  0.7649  0.4750
 5642SOL     OW18376   1.840   7.562   1.206 -0.0970  0.6776  0.0866
 5642SOL    HW118377   1.841   7.601   1.119  0.9377 -0.0105 -0.2339
 5642SOL    HW218378   1.839   7.636   1.267 -0.8511  1.1594 -0.5028
 5643SOL     OW18379   8.751   7.803   2.736  0.0613 -0.1050 -0.2882
 5643SOL    HW118380   8.754   7.753   2.818  2.5777  0.5227  0.0811
 5643SOL    HW218381   8.732   7.738   2.669 -1.7700 -0.6809  0.7139
 5644SOL     OW18382   6.407   2.388   0.603 -0.0142 -0.4341 -0.0452
 5644SOL    HW118383   6.481   2.359   0.549  1.2732  0.8990  0.9302
 5644SOL    HW218384   6.448   2.425   0.681 -1.4851  3.3693 -0.8568
 5645SOL     OW18385   9.229   8.444   3.971 -0.2234 -0.0915  0.0995
 5645SOL    HW118386   9.225   8.430   4.065  0.9841 -0.1558  0.1550
 5645SOL    HW218387   9.139   8.430   3.941 -0.6644  0.1521  1.2614
 5646SOL     OW18388   1.070   6.491   6.168 -0.0494 -0.1787 -0.6610
 5646SOL    HW118389   1.009   6.471   6.239  0.3465  0.2360 -0.1924
 5646SOL    HW218390   1.133   6.418   6.170  0.2192  0.0595 -0.2879
 5647SOL     OW18391   7.635   4.925   6.269  0.7357 -0.6059 -0.6445
 5647SOL    HW118392   7.721   4.945   6.307  0.7526 -0.8294 -0.5616
 5647SOL    HW218393   7.583   4.896   6.344  0.5129 -0.2301 -0.6544
 5648SOL     OW18394   4.456   1.529   1.010  0.3337 -0.2243  0.0938
 5648SOL    HW118395   4.546   1.548   0.981 -0.2233 -0.0816 -1.6610
 5648SOL    HW218396   4.405   1.529   0.930 -1.0050 -1.7851  0.8891
 5649SOL     OW18397   5.281   7.937   5.341 -0.2191 -0.6929 -0.4704
 5649SOL    HW118398   5.352   7.920   5.279  0.1129 -0.9911 -0.0181
 5649SOL    HW218399   5.237   8.015   5.307 -0.4126 -1.1957 -1.4026
 5650SOL     OW18400   2.682   3.978   4.669  0.6649 -0.6771  0.1050
 5650SOL    HW118401   2.627   3.996   4.745 -0.1220 -0.4875 -0.5070
 5650SOL    HW218402   2.676   4.057   4.615  1.0799 -0.8804 -0.2491
 5651SOL     OW18403   1.827   5.345   3.909  0.3693  0.4339  0.2661
 5651SOL    HW118404   1.756   5.324   3.970  0.2654 -0.1209 -0.0421
 5651SOL    HW218405   1.793   5.321   3.823  0.6050  0.9882  0.0134
 5652SOL     OW18406   8.934   3.190   8.256 -0.1756 -0.0774 -0.6735
 5652SOL    HW118407   8.917   3.171   8.164 -2.4293  0.1065 -0.3445
 5652SOL    HW218408   8.851   3.172   8.300  0.8168 -0.0463  1.3215
 5653SOL     OW18409   4.102   3.021   5.327  0.2586  0.6317  0.0837
 5653SOL    HW118410   4.086   3.101   5.278  0.3277  1.4679  1.3763
 5653SOL    HW218411   4.026   2.966   5.309  0.0341  1.1247 -0.5144
 5654SOL     OW18412   0.848   9.239   5.066 -0.8180 -0.2641 -0.1768
 5654SOL    HW118413   0.899   9.270   4.990 -0.6100 -1.6506 -0.6316
 5654SOL    HW218414   0.909   9.246   5.139 -0.1468 -1.3469 -0.6112
 5655SOL     OW18415   3.637   5.892   4.689 -0.7302 -0.2021 -0.1220
 5655SOL    HW118416   3.615   5.819   4.631 -1.5475 -0.1998  0.1663
 5655SOL    HW218417   3.572   5.959   4.669 -1.0052 -0.1898  0.7630
 5656SOL     OW18418   5.857   4.880   7.435 -0.1562  0.6067  0.2987
 5656SOL    HW118419   5.940   4.835   7.450  0.2100  1.4973  1.0089
 5656SOL    HW218420   5.838   4.925   7.517 -0.4406  1.8526 -0.4217
 5657SOL     OW18421   8.544   7.974   7.878  0.2050  0.1606  0.2683
 5657SOL    HW118422   8.479   8.004   7.813  2.2777  1.1883 -1.4568
 5657SOL    HW218423   8.505   7.896   7.916 -1.0536 -0.6223 -2.3924
 5658SOL     OW18424   8.731   5.455   2.716 -0.0998  0.5888 -0.0094
 5658SOL    HW118425   8.704   5.451   2.808  2.1987  0.0820  0.7083
 5658SOL    HW218426   8.658   5.417   2.668 -1.4278  1.0303  1.5747
 5659SOL     OW18427   3.740   6.438   0.983  0.1108  0.2041 -0.6053
 5659SOL    HW118428   3.691   6.508   1.026  0.4746 -1.5711  3.1400
 5659SOL    HW218429   3.676   6.369   0.967  0.4590 -0.1652 -0.4402
 5660SOL     OW18430   5.254   0.896   8.341  0.9795 -0.1414  0.1921
 5660SOL    HW118431   5.276   0.842   8.265  2.0602 -1.2274  1.2399
 5660SOL    HW218432   5.287   0.847   8.416  1.1148  1.5134  1.2696
 5661SOL     OW18433   0.760   6.702   2.170 -0.3481 -0.4984  0.2901
 5661SOL    HW118434   0.750   6.665   2.258 -0.0707  0.6652  0.8373
 5661SOL    HW218435   0.751   6.796   2.183  0.0302 -0.2838 -0.8927
 5662SOL     OW18436   1.796   1.752   1.611  0.2363  0.3678 -0.7084
 5662SOL    HW118437   1.857   1.820   1.639 -1.0356  1.7645 -1.1290
 5662SOL    HW218438   1.807   1.681   1.673 -0.4205  2.1546  1.5856
 5663SOL     OW18439   8.585   0.423   8.107 -0.2555  0.6142 -0.1523
 5663SOL    HW118440   8.544   0.491   8.161 -0.4437  0.0121  0.4829
 5663SOL    HW218441   8.632   0.368   8.170 -2.4568 -1.5366 -0.2656
 5664SOL     OW18442   1.704   0.224   6.556  0.3369  0.0462  0.7597
 5664SOL    HW118443   1.714   0.160   6.486 -1.9745 -2.9820  2.8973
 5664SOL    HW218444   1.640   0.287   6.522  0.3376 -0.5331 -0.3507
 5665SOL     OW18445   0.247   3.548   1.633  0.2525 -0.1063  0.1895
 5665SOL    HW118446   0.245   3.487   1.559 -1.3173 -0.3166  0.3658
 5665SOL    HW218447   0.227   3.494   1.709 -1.1828  0.6095  0.3476
 5666SOL     OW18448   7.402   6.856   2.586 -0.1100 -0.0647 -0.0158
 5666SOL    HW118449   7.350   6.808   2.650  0.2445  0.2472  0.5111
 5666SOL    HW218450   7.435   6.788   2.526 -2.1599 -0.1449 -1.1363
 5667SOL     OW18451   3.617   5.308   5.235  0.3527 -0.2882 -0.3663
 5667SOL    HW118452   3.678   5.315   5.162  0.5488 -1.2236 -0.3114
 5667SOL    HW218453   3.673   5.309   5.313  0.1547  0.5846 -0.2352
 5668SOL     OW18454   5.097   7.129   1.503 -0.1301  0.2236 -0.5958
 5668SOL    HW118455   5.181   7.175   1.491 -0.0071  0.2729  0.3935
 5668SOL    HW218456   5.031   7.196   1.487  0.0477  0.7169  0.6074
 5669SOL     OW18457   3.882   1.544   7.726 -0.0715 -0.1719  0.4093
 5669SOL    HW118458   3.820   1.481   7.762  1.2939 -2.4462 -0.9459
 5669SOL    HW218459   3.869   1.540   7.632  0.2722  1.3809  0.2683
 5670SOL     OW18460   8.383   8.731   4.988 -0.2295  0.1084 -0.8760
 5670SOL    HW118461   8.374   8.639   4.963  1.0680 -0.1363 -0.5569
 5670SOL    HW218462   8.297   8.769   4.973 -2.1888 -2.1100  2.9941
 5671SOL     OW18463   0.017   2.389   9.172 -0.4144 -0.1662  0.2403
 5671SOL    HW118464   0.084   2.405   9.106 -0.7996  0.0474 -0.1015
 5671SOL    HW218465   0.038   2.449   9.243  0.6623 -1.1707  0.8107
 5672SOL     OW18466   6.193   3.926   3.159  0.2767 -0.2690 -0.0323
 5672SOL    HW118467   6.101   3.906   3.178  0.1072  1.6372  1.4215
 5672SOL    HW218468   6.217   3.864   3.090 -2.2944 -0.3522 -0.9658
 5673SOL     OW18469   0.241   1.526   2.556  0.4628 -0.4164  0.1705
 5673SOL    HW118470   0.153   1.493   2.572  0.2348  0.5026  0.8501
 5673SOL    HW218471   0.297   1.471   2.612  0.4635 -1.6381 -0.9765
 5674SOL     OW18472   4.386   6.313   3.318  0.1336  0.0273  0.2095
 5674SOL    HW118473   4.384   6.223   3.285  0.7236 -0.7507  2.1623
 5674SOL    HW218474   4.299   6.327   3.355  0.3980 -0.1665  0.9227
 5675SOL     OW18475   0.256   2.474   6.096 -0.0388 -0.6334  0.4686
 5675SOL    HW118476   0.217   2.481   6.183 -0.6560 -0.9372  0.2201
 5675SOL    HW218477   0.197   2.418   6.047 -2.5399  3.4134 -1.6980
 5676SOL     OW18478   7.854   2.108   5.563 -0.4379 -0.1285 -0.4549
 5676SOL    HW118479   7.832   2.157   5.643 -1.9380  0.9886 -1.5078
 5676SOL    HW218480   7.847   2.016   5.589  1.8706  0.1185  1.4201
 5677SOL     OW18481   6.927   8.016   0.185 -0.4536  0.3194  0.0198
 5677SOL    HW118482   6.974   7.940   0.150 -0.0554  1.1165 -1.2582
 5677SOL    HW218483   6.961   8.028   0.273  0.4521 -0.1919 -0.2528
 5678SOL     OW18484   1.731   3.710   7.666  0.4881 -0.6281  0.5172
 5678SOL    HW118485   1.787   3.770   7.617 -1.0099  0.4476  0.0610
 5678SOL    HW218486   1.684   3.660   7.600 -0.7364  0.0647  0.8336
 5679SOL     OW18487   5.268   2.697   7.228  0.0774  0.6030  0.5619
 5679SOL    HW118488   5.290   2.686   7.320 -0.5377  0.4084  0.6898
 5679SOL    HW218489   5.202   2.630   7.211  0.0047  0.7998  0.0447
 5680SOL     OW18490   8.400   3.869   3.170  0.5719  0.0287  0.9807
 5680SOL    HW118491   8.457   3.888   3.245  0.5305  0.0985  0.9948
 5680SOL    HW218492   8.312   3.888   3.202  0.7459  2.8826  0.0431
 5681SOL     OW18493   4.946   5.793   8.382 -0.4460  0.3891  0.1671
 5681SOL    HW118494   4.872   5.852   8.400 -0.5318  0.0799  0.8550
 5681SOL    HW218495   4.927   5.715   8.434  0.4439  0.3668  0.4607
 5682SOL     OW18496   3.824   8.926   2.613 -0.4920 -0.0401 -0.0018
 5682SOL    HW118497   3.777   8.947   2.693 -1.3905  2.3425 -1.0535
 5682SOL    HW218498   3.829   9.010   2.566  0.6350 -1.2075 -2.0985
 5683SOL     OW18499   6.433   9.011   1.071 -0.0273  0.1940 -0.0191
 5683SOL    HW118500   6.353   9.060   1.049 -1.1967 -1.2174  0.9287
 5683SOL    HW218501   6.459   9.044   1.157  1.2040  1.5659 -0.8665
 5684SOL     OW18502   5.194   7.278   0.976 -0.1087 -0.1826  0.5577
 5684SOL    HW118503   5.205   7.289   1.070  0.6358 -1.2817  0.6167
 5684SOL    HW218504   5.171   7.186   0.965  1.0927 -0.3843 -0.4383
 5685SOL     OW18505   0.113   3.547   8.703 -0.4797  0.4412  0.0917
 5685SOL    HW118506   0.178   3.522   8.769 -0.9093  0.6170  0.5900
 5685SOL    HW218507   0.143   3.505   8.623  0.0484  0.2174  0.4009
 5686SOL     OW18508   8.606   7.287   8.226  0.3207 -1.2766  0.5795
 5686SOL    HW118509   8.571   7.211   8.273  1.0933 -2.1671 -0.2462
 5686SOL    HW218510   8.629   7.253   8.140  0.7111 -0.1065  0.2074
 5687SOL     OW18511   7.939   6.666   8.334  0.2129 -0.2209  0.2408
 5687SOL    HW118512   7.911   6.584   8.294  1.8242 -0.6698 -0.0579
 5687SOL    HW218513   7.934   6.649   8.428 -4.0426  0.9971  0.4228
 5688SOL     OW18514   3.042   4.379   4.146 -0.8314 -0.6104  0.6135
 5688SOL    HW118515   3.079   4.320   4.212 -2.6947 -0.9902  1.3727
 5688SOL    HW218516   3.007   4.452   4.196 -1.0997 -0.2605 -0.0688
 5689SOL     OW18517   1.811   1.245   7.622 -0.3336 -0.4260  0.0169
 5689SOL    HW118518   1.824   1.215   7.712 -0.8271  0.1644  0.2938
 5689SOL    HW218519   1.899   1.263   7.590 -0.1455 -0.7350  0.3465
 5690SOL     OW18520   0.006   4.273   1.028 -0.7167 -0.2704  0.6338
 5690SOL    HW118521   0.012   4.361   0.992  0.3291 -1.3617 -2.1903
 5690SOL    HW218522   0.093   4.236   1.017 -2.1530 -3.2346 -3.0636
 5691SOL     OW18523   2.439   1.750   4.028  0.3423 -0.1359 -0.3487
 5691SOL    HW118524   2.531   1.746   4.055 -0.0108 -2.0375  0.7513
 5691SOL    HW218525   2.399   1.814   4.088  0.8056  0.2544 -0.4469
 5692SOL     OW18526   5.223   8.310   6.262 -0.1857  0.4196  0.3840
 5692SOL    HW118527   5.136   8.350   6.262 -0.9624 -0.8895  3.4670
 5692SOL    HW218528   5.209   8.222   6.226  0.6011  1.2722 -2.1683
 5693SOL     OW18529   3.915   7.808   3.702  0.5982  0.0991  0.2456
 5693SOL    HW118530   3.977   7.828   3.773  0.6783  0.6159  0.0390
 5693SOL    HW218531   3.835   7.855   3.727 -0.0201 -1.2812  0.9584
 5694SOL     OW18532   7.226   6.872   2.279 -0.7524  0.4525 -0.7376
 5694SOL    HW118533   7.173   6.885   2.200  0.3892 -0.0454 -1.6233
 5694SOL    HW218534   7.206   6.783   2.308 -1.4947  0.7873 -0.2040
 5695SOL     OW18535   3.705   1.604   0.398  0.0300  0.2278 -0.0445
 5695SOL    HW118536   3.649   1.664   0.448 -0.9923  1.9276 -2.9362
 5695SOL    HW218537   3.744   1.660   0.330  2.3954 -1.6444 -0.3351
 5696SOL     OW18538   6.635   3.407   6.602  0.3765  0.7941  0.2288
 5696SOL    HW118539   6.572   3.371   6.664  0.9264  0.4684  0.6128
 5696SOL    HW218540   6.675   3.480   6.649  0.5199  0.7885  0.1153
 5697SOL     OW18541   6.830   7.870   5.732 -0.3201  0.1189 -0.5008
 5697SOL    HW118542   6.776   7.859   5.810  2.4470  0.7518  1.6590
 5697SOL    HW218543   6.892   7.798   5.734  1.5274  1.6274 -0.5338
 5698SOL     OW18544   6.791   5.551   4.856 -0.1552  0.1287 -0.5425
 5698SOL    HW118545   6.886   5.547   4.869 -0.3879 -1.9191  0.9745
 5698SOL    HW218546   6.760   5.610   4.924 -0.1232 -0.6204  0.1336
 5699SOL     OW18547   5.543   8.322   2.153 -0.2262 -0.2959  0.4039
 5699SOL    HW118548   5.628   8.316   2.109 -0.7445 -0.7055 -0.5922
 5699SOL    HW218549   5.523   8.232   2.178 -1.5703 -0.6782 -1.8021
 5700SOL     OW18550   6.687   8.741   4.474  0.3481  0.6120 -0.0068
 5700SOL    HW118551   6.736   8.691   4.408  0.7532  0.9530  0.0284
 5700SOL    HW218552   6.740   8.820   4.489  0.4803  0.3430  1.0353
 5701SOL     OW18553   1.919   7.117   5.490  0.0483 -0.5181 -0.2519
 5701SOL    HW118554   1.826   7.141   5.488  0.3558  0.8332  0.5372
 5701SOL    HW218555   1.934   7.086   5.579  0.7429  1.0356  0.2059
 5702SOL     OW18556   1.176   8.519   3.005  0.1982  0.3725  0.2741
 5702SOL    HW118557   1.188   8.609   3.034  0.5028  1.7091 -3.5393
 5702SOL    HW218558   1.253   8.499   2.953  0.0906 -2.1125  0.9193
 5703SOL     OW18559   3.829   9.142   4.793 -0.1621 -0.4921 -0.4839
 5703SOL    HW118560   3.808   9.128   4.701  1.2941 -1.2084 -0.7367
 5703SOL    HW218561   3.924   9.154   4.794 -0.2819  0.6292  0.8038
 5704SOL     OW18562   0.532   4.516   2.485  0.0998  0.6561 -0.7313
 5704SOL    HW118563   0.561   4.592   2.536  0.7726 -0.2346  0.2621
 5704SOL    HW218564   0.455   4.484   2.533  0.9181 -0.3686 -0.0719
 5705SOL     OW18565   3.333   3.507   5.123 -0.1921  0.0044  0.1050
 5705SOL    HW118566   3.318   3.495   5.030  0.2275 -0.8804  0.1416
 5705SOL    HW218567   3.262   3.458   5.165 -0.0261 -0.1109  0.2516
 5706SOL     OW18568   4.007   0.846   1.016  0.1608  0.2210 -0.2411
 5706SOL    HW118569   4.099   0.856   1.037  1.0377 -2.0480 -2.4867
 5706SOL    HW218570   3.970   0.933   1.026  3.0719  1.7382 -1.5750
 5707SOL     OW18571   8.666   7.710   7.295  0.3770 -0.1532 -0.0658
 5707SOL    HW118572   8.678   7.803   7.316  0.6287  0.2417 -1.7865
 5707SOL    HW218573   8.753   7.672   7.303  0.1948 -0.3713  1.0983
 5708SOL     OW18574   7.961   0.585   1.147  0.5194 -0.1831 -0.3503
 5708SOL    HW118575   7.977   0.537   1.066  0.1903 -0.1598 -0.4290
 5708SOL    HW218576   7.958   0.677   1.120  1.9839 -0.0220 -0.0828
 5709SOL     OW18577   4.307   8.091   4.371 -0.7613  0.1060  0.0068
 5709SOL    HW118578   4.241   8.027   4.349 -0.3557 -0.6396  0.8769
 5709SOL    HW218579   4.338   8.125   4.287 -0.1221 -1.7233 -0.5374
 5710SOL     OW18580   3.401   5.620   0.090 -0.1406 -0.4375  0.0385
 5710SOL    HW118581   3.368   5.531   0.094 -2.0281  0.2299  0.3133
 5710SOL    HW218582   3.326   5.673   0.063  1.0646  1.0128 -0.6558
 5711SOL     OW18583   0.784   0.683   6.086  0.0203  0.3334  0.3600
 5711SOL    HW118584   0.751   0.602   6.126  0.7956 -0.6562 -0.9242
 5711SOL    HW218585   0.799   0.742   6.160 -2.5855  0.1021  1.1723
 5712SOL     OW18586   8.423   3.405   0.575 -0.6798  0.2743  0.2941
 5712SOL    HW118587   8.363   3.363   0.637 -0.5350 -0.2975  0.0496
 5712SOL    HW218588   8.475   3.333   0.539 -1.2755  0.4962 -1.0613
 5713SOL     OW18589   0.407   4.039   0.019 -0.4838  0.6105  0.1654
 5713SOL    HW118590   0.376   4.066   0.106 -0.1937  2.3630 -0.2245
 5713SOL    HW218591   0.342   3.976  -0.012 -0.5439 -0.1050  1.6733
 5714SOL     OW18592   4.496   4.172   7.986  0.4913  0.0102  0.5687
 5714SOL    HW118593   4.488   4.173   8.082 -0.2176 -1.4710  0.5444
 5714SOL    HW218594   4.584   4.205   7.970  0.8555 -0.3094  1.7619
 5715SOL     OW18595   7.571   4.052   3.637 -0.2443 -0.2922 -0.3931
 5715SOL    HW118596   7.525   4.129   3.606 -1.8483 -1.3667 -0.8284
 5715SOL    HW218597   7.626   4.024   3.564 -1.8908 -1.2088 -1.3313
 5716SOL     OW18598   0.625   4.233   6.067 -0.0398  0.3412 -0.1631
 5716SOL    HW118599   0.618   4.167   6.135 -0.6804 -0.6105 -1.1157
 5716SOL    HW218600   0.706   4.280   6.087  0.5493 -0.8683  0.4147
 5717SOL     OW18601   8.406   3.907   0.431 -0.1006 -0.0831  0.2353
 5717SOL    HW118602   8.320   3.921   0.470 -0.6583  0.5522 -1.1563
 5717SOL    HW218603   8.388   3.887   0.339  1.2396  0.1307 -0.0967
 5718SOL     OW18604   7.608   5.660   1.211  0.0580 -0.1132  0.5499
 5718SOL    HW118605   7.611   5.731   1.275 -2.2218 -0.1679  0.7919
 5718SOL    HW218606   7.602   5.581   1.264  0.2511 -0.3100  0.2761
 5719SOL     OW18607   0.618   7.740   7.387  0.0201 -0.6373 -0.2960
 5719SOL    HW118608   0.673   7.752   7.465 -0.8441  1.1175  0.1032
 5719SOL    HW218609   0.535   7.782   7.410 -0.7553 -1.3437 -1.6671
 5720SOL     OW18610   7.345   8.842   2.892  0.3210  0.3436 -0.5788
 5720SOL    HW118611   7.355   8.753   2.860  0.6287 -0.1260  0.7486
 5720SOL    HW218612   7.266   8.875   2.848 -1.0572 -1.3342  0.4910
 5721SOL     OW18613   0.004   5.259   8.193  0.3325 -0.1969  0.4241
 5721SOL    HW118614   0.079   5.258   8.252  0.3175 -0.3897  0.4414
 5721SOL    HW218615   0.005   5.173   8.152  1.2965  0.4965 -1.0803
 5722SOL     OW18616   2.550   1.414   4.041 -0.7117 -0.5800  0.5894
 5722SOL    HW118617   2.634   1.460   4.040 -1.9598  1.9127  1.1945
 5722SOL    HW218618   2.556   1.351   3.969  1.4188 -0.0098  0.1991
 5723SOL     OW18619   5.112   3.372   7.926 -0.5788 -0.3547 -0.4447
 5723SOL    HW118620   5.162   3.453   7.921 -1.3147  0.0728 -1.3990
 5723SOL    HW218621   5.176   3.303   7.908 -0.1909  0.1257 -0.9633
 5724SOL     OW18622   3.722   0.086   2.717  0.2617 -0.4790  0.3306
 5724SOL    HW118623   3.763   0.110   2.635  2.6724  0.5954  1.7402
 5724SOL    HW218624   3.675   0.165   2.745 -0.6417 -0.8741 -0.0279
 5725SOL     OW18625   2.403   0.503   6.892  0.1623  0.0287 -0.1173
 5725SOL    HW118626   2.319   0.498   6.938 -0.5421 -1.1678 -1.4471
 5725SOL    HW218627   2.428   0.595   6.897 -1.5341  0.5245 -0.2054
 5726SOL     OW18628   1.789   1.668   2.623 -0.0396 -0.0634  0.3013
 5726SOL    HW118629   1.790   1.581   2.583 -0.0133 -0.3178  0.8497
 5726SOL    HW218630   1.696   1.687   2.637  0.0098 -0.4829  1.2127
 5727SOL     OW18631   7.765   2.658   3.921 -0.3128  0.3624  0.2997
 5727SOL    HW118632   7.770   2.567   3.892  0.8833  1.3524 -3.0602
 5727SOL    HW218633   7.831   2.665   3.990  1.7367 -0.7399 -1.4291
 5728SOL     OW18634   5.248   5.946   2.568 -0.1627 -0.2678  0.2762
 5728SOL    HW118635   5.321   5.905   2.615 -0.6288 -0.3586  0.9456
 5728SOL    HW218636   5.264   6.040   2.577  0.1832 -0.2939 -0.0819
 5729SOL     OW18637   2.763   1.059   1.968 -0.2358 -0.0663  0.1624
 5729SOL    HW118638   2.837   1.024   2.018 -0.5674 -2.8313 -1.0764
 5729SOL    HW218639   2.801   1.090   1.886 -0.3554 -1.1159 -0.3072
 5730SOL     OW18640   7.138   8.613   9.018  0.6501  0.2871 -0.0012
 5730SOL    HW118641   7.161   8.695   9.062  0.0895  0.4327  0.0301
 5730SOL    HW218642   7.069   8.637   8.957  0.8676 -0.0655 -0.3899
 5731SOL     OW18643   4.475   4.280   9.053 -0.1652  0.2313  0.2222
 5731SOL    HW118644   4.456   4.373   9.058  1.6704  0.6048  1.3541
 5731SOL    HW218645   4.456   4.256   8.962 -3.0069  1.0893  0.4999
 5732SOL     OW18646   1.132   6.590   2.079 -0.0959 -0.0809  0.2487
 5732SOL    HW118647   1.208   6.647   2.094  0.1193 -0.3095  0.0349
 5732SOL    HW218648   1.164   6.502   2.095 -0.9187 -0.0307  2.4710
 5733SOL     OW18649   7.575   3.761   2.893 -0.8605  0.1908 -0.0517
 5733SOL    HW118650   7.625   3.718   2.823 -0.1969  1.7988 -0.6106
 5733SOL    HW218651   7.492   3.712   2.896 -0.5802 -0.4240 -1.4108
 5734SOL     OW18652   7.981   5.719   2.191  0.1003 -0.5672 -0.5922
 5734SOL    HW118653   7.904   5.737   2.244 -0.0754 -1.0099 -0.6951
 5734SOL    HW218654   7.953   5.738   2.101 -0.1101 -1.4109 -0.7111
 5735SOL     OW18655   6.418   0.969   6.996  0.0050  0.2828 -0.2964
 5735SOL    HW118656   6.372   1.004   6.920 -2.1126 -0.3621  0.6045
 5735SOL    HW218657   6.437   0.878   6.972  0.1558  0.3356 -0.3812
 5736SOL     OW18658   2.151   2.011   7.433  0.6557  0.0622 -0.5821
 5736SOL    HW118659   2.104   2.014   7.350 -0.7267 -1.9396  0.0351
 5736SOL    HW218660   2.082   2.000   7.499  1.8192 -0.2411  0.6451
 5737SOL     OW18661   1.401   5.981   0.108 -0.2476 -0.4155 -0.6085
 5737SOL    HW118662   1.412   6.057   0.050  0.9054  0.0311  0.1705
 5737SOL    HW218663   1.387   6.020   0.194 -0.2906 -1.1009 -0.3044
 5738SOL     OW18664   3.878   7.419   0.810 -0.3113 -0.4316 -0.0006
 5738SOL    HW118665   3.923   7.352   0.758 -0.5682 -0.1139 -0.6344
 5738SOL    HW218666   3.788   7.419   0.777 -0.6212 -0.5982  0.8104
 5739SOL     OW18667   8.306   1.125   3.425 -0.1401  0.0329 -0.2905
 5739SOL    HW118668   8.212   1.141   3.436  0.3035  1.7386  1.6839
 5739SOL    HW218669   8.336   1.195   3.368 -0.2388 -1.2682 -1.9992
 5740SOL     OW18670   7.586   8.998   8.110  0.4762 -0.0216  0.3821
 5740SOL    HW118671   7.669   9.010   8.064  0.2780 -0.5603 -0.1253
 5740SOL    HW218672   7.520   9.033   8.051  0.2371 -0.5854  0.3042
 5741SOL     OW18673   7.081   4.240   1.540  0.4396  0.7190  0.2611
 5741SOL    HW118674   7.161   4.258   1.590  1.2014  2.4963 -1.4971
 5741SOL    HW218675   7.112   4.193   1.462 -0.5593 -0.6910  0.6687
 5742SOL     OW18676   3.643   5.681   2.394  0.1200 -0.1155  0.0471
 5742SOL    HW118677   3.553   5.674   2.363  0.6157  2.8080 -2.6076
 5742SOL    HW218678   3.649   5.770   2.430  2.1250  0.1399 -0.7706
 5743SOL     OW18679   2.977   5.763   5.415  0.1557  0.0748  0.6971
 5743SOL    HW118680   2.980   5.701   5.342 -0.8557  0.0441  0.6572
 5743SOL    HW218681   2.931   5.839   5.381  0.4998  0.4405  1.0390
 5744SOL     OW18682   6.213   9.160   3.338 -0.0314 -0.1707  0.3854
 5744SOL    HW118683   6.293   9.140   3.388  0.6185  0.9691 -0.1668
 5744SOL    HW218684   6.147   9.178   3.405  0.1937 -1.0176  0.8506
 5745SOL     OW18685   6.179   0.763   6.734  0.4568  0.0062  0.2563
 5745SOL    HW118686   6.204   0.840   6.785 -0.2130  0.6527 -0.3721
 5745SOL    HW218687   6.195   0.689   6.793  3.0281  0.4193  0.1837
 5746SOL     OW18688   3.966   0.318   3.306  0.5579  0.3491 -0.3460
 5746SOL    HW118689   3.981   0.224   3.292 -2.2927 -0.1331 -0.8102
 5746SOL    HW218690   3.947   0.326   3.400 -0.3560  0.2330 -0.5097
 5747SOL     OW18691   1.420   8.005   5.466 -0.5887  0.2784 -0.1993
 5747SOL    HW118692   1.390   8.083   5.421 -0.1185  0.9191  0.5702
 5747SOL    HW218693   1.508   7.990   5.433 -1.0809 -0.5812 -1.1603
 5748SOL     OW18694   8.746   4.662   3.539 -0.1599  0.2908  0.7714
 5748SOL    HW118695   8.677   4.708   3.586 -0.3623 -0.0464  0.8039
 5748SOL    HW218696   8.805   4.731   3.510 -1.0711  0.6908 -0.1966
 5749SOL     OW18697   2.833   8.224   5.594 -0.7209  0.8469 -0.1865
 5749SOL    HW118698   2.888   8.300   5.579  1.9886 -1.0004 -0.3058
 5749SOL    HW218699   2.788   8.243   5.676  1.5590  1.7201  0.9504
 5750SOL     OW18700   2.723   2.020   5.485  0.1876 -0.0727  0.0007
 5750SOL    HW118701   2.771   2.101   5.498 -0.3879  0.5895 -1.7193
 5750SOL    HW218702   2.652   2.044   5.425 -0.3595 -1.7097 -0.0487
 5751SOL     OW18703   6.517   1.389   0.078  0.1341  0.4748 -0.8140
 5751SOL    HW118704   6.439   1.445   0.080 -0.4163 -0.2858 -0.1284
 5751SOL    HW218705   6.511   1.337   0.158  0.3528 -0.9205 -1.6655
 5752SOL     OW18706   3.701   3.089   6.517 -0.3128  0.1517 -0.1206
 5752SOL    HW118707   3.779   3.115   6.468 -0.6272  0.4782 -0.4484
 5752SOL    HW218708   3.636   3.156   6.497 -0.4726  0.2403  0.6815
 5753SOL     OW18709   6.115   3.431   0.797  0.1205 -0.2811  0.5417
 5753SOL    HW118710   6.200   3.475   0.802  0.1268  0.0372 -1.4213
 5753SOL    HW218711   6.088   3.443   0.706 -0.1743 -3.8201  0.0083
 5754SOL     OW18712   6.641   7.401   0.234 -0.1607  0.7636  0.5752
 5754SOL    HW118713   6.732   7.373   0.243 -0.0789  0.6887 -0.3901
 5754SOL    HW218714   6.599   7.333   0.181  0.0812  2.4314 -1.9195
 5755SOL     OW18715   6.869   0.202   0.345  0.4110  0.5937 -0.1326
 5755SOL    HW118716   6.919   0.283   0.338  0.7715  0.3101 -0.9406
 5755SOL    HW218717   6.934   0.134   0.361  0.2658  0.2586 -0.9394
 5756SOL     OW18718   8.230   0.627   5.815  0.3882  0.5506  0.1265
 5756SOL    HW118719   8.260   0.568   5.745  2.3566  1.2262  0.3503
 5756SOL    HW218720   8.269   0.712   5.793 -2.0921  1.7495  0.0069
 5757SOL     OW18721   7.163   3.773   6.766 -0.3566 -0.3280  0.1822
 5757SOL    HW118722   7.181   3.815   6.850  0.1381  1.4539 -0.7706
 5757SOL    HW218723   7.104   3.834   6.721  0.1278 -0.8010 -1.1233
 5758SOL     OW18724   7.890   4.721   4.974  0.3654 -0.3814 -0.1268
 5758SOL    HW118725   7.908   4.708   4.881 -1.0722 -2.1454 -0.2170
 5758SOL    HW218726   7.815   4.664   4.992 -0.1300  0.8090  1.8637
 5759SOL     OW18727   5.063   7.362   4.620  0.1489 -0.1391 -0.0982
 5759SOL    HW118728   5.126   7.352   4.549 -0.5246 -2.3451 -0.4732
 5759SOL    HW218729   4.990   7.410   4.582 -0.3909 -1.6623 -1.0864
 5760SOL     OW18730   7.113   0.854   7.968 -0.9190  1.0125  0.1020
 5760SOL    HW118731   7.138   0.886   8.055  0.2535  0.6921 -0.1067
 5760SOL    HW218732   7.109   0.933   7.914 -0.6856  1.1036  0.2163
 5761SOL     OW18733   8.073   8.871   9.063 -0.5328 -0.2899  0.3792
 5761SOL    HW118734   8.084   8.788   9.110 -0.1892 -0.3501  0.1964
 5761SOL    HW218735   8.007   8.852   8.996  0.1327 -0.6466 -0.1907
 5762SOL     OW18736   8.074   3.611   6.854  0.5674  0.3990  0.0084
 5762SOL    HW118737   8.008   3.644   6.794  1.0587  1.4406  0.0269
 5762SOL    HW218738   8.024   3.578   6.929 -0.0720 -1.2704 -1.0913
 5763SOL     OW18739   4.162   5.715   7.278  0.9153  0.7262 -0.0907
 5763SOL    HW118740   4.160   5.649   7.208  1.1136  0.3409  0.2625
 5763SOL    HW218741   4.168   5.664   7.358 -1.0136  1.0955  0.3294
 5764SOL     OW18742   5.942   3.889   3.699 -0.2914 -0.0598  0.0568
 5764SOL    HW118743   5.940   3.863   3.791 -0.9989  0.0824  0.0911
 5764SOL    HW218744   5.872   3.954   3.691 -1.4215 -1.3515 -0.9551
 5765SOL     OW18745   7.080   6.447   6.418  0.0176 -0.3016 -0.2384
 5765SOL    HW118746   7.170   6.478   6.410 -0.4318  1.0413 -0.2974
 5765SOL    HW218747   7.056   6.421   6.329 -0.1802  0.8968 -0.5503
 5766SOL     OW18748   5.299   8.807   7.793 -0.5229  0.4010  0.2364
 5766SOL    HW118749   5.268   8.717   7.786 -0.2389  0.3401 -0.2730
 5766SOL    HW218750   5.383   8.807   7.747  0.6561  0.3703  2.2582
 5767SOL     OW18751   3.414   7.005   7.636 -0.1967  0.0926  0.3926
 5767SOL    HW118752   3.446   7.095   7.630  1.4414 -0.3540  1.7964
 5767SOL    HW218753   3.319   7.015   7.645 -0.2549  1.5726 -1.2045
 5768SOL     OW18754   0.340   3.876   3.584  0.1049 -0.0920  0.3444
 5768SOL    HW118755   0.300   3.791   3.604  1.6884 -1.5865 -2.2402
 5768SOL    HW218756   0.295   3.906   3.506 -0.4206  1.5296  1.2130
 5769SOL     OW18757   7.429   4.826   5.506  0.2090 -0.1901 -0.1872
 5769SOL    HW118758   7.474   4.895   5.457 -0.6496  1.6707  1.4674
 5769SOL    HW218759   7.378   4.779   5.441  1.8694 -0.1587 -1.5803
 5770SOL     OW18760   5.935   8.033   0.076  0.4569  0.1361  0.3265
 5770SOL    HW118761   5.885   8.113   0.095  0.4845  0.1501  0.3424
 5770SOL    HW218762   5.971   8.047  -0.011  1.6080  0.7383  0.8634
 5771SOL     OW18763   7.244   7.863   5.294  0.0713  0.5447  0.3972
 5771SOL    HW118764   7.175   7.812   5.336  0.1668  0.4613  0.4526
 5771SOL    HW218765   7.262   7.816   5.212  1.3702 -0.4971  1.2428
 5772SOL     OW18766   0.220   2.937   7.512  0.4199  0.0778 -0.0217
 5772SOL    HW118767   0.293   2.997   7.529  0.3864  0.2483 -0.4859
 5772SOL    HW218768   0.147   2.972   7.563  0.4701  0.2851 -0.0948
 5773SOL     OW18769   4.999   1.257   9.062  0.1817  0.5535  0.0259
 5773SOL    HW118770   4.965   1.242   9.150  0.5212  0.4288  0.1340
 5773SOL    HW218771   4.945   1.328   9.028  0.4651  1.0274  0.5624
 5774SOL     OW18772   0.744   2.741   1.679  0.1937  0.0639  0.4646
 5774SOL    HW118773   0.658   2.715   1.647  1.3641 -0.5849 -2.4578
 5774SOL    HW218774   0.766   2.675   1.745 -0.8733 -0.7142  0.0715
 5775SOL     OW18775   5.443   8.685   4.538  0.4831 -0.0627 -0.2134
 5775SOL    HW118776   5.486   8.600   4.548 -1.0995 -0.8856 -0.0641
 5775SOL    HW218777   5.461   8.731   4.619  0.6695 -0.5833  0.0451
 5776SOL     OW18778   7.269   8.699   6.968 -0.3142 -0.0334 -0.7164
 5776SOL    HW118779   7.267   8.737   7.056  0.8156 -0.9834 -0.2504
 5776SOL    HW218780   7.205   8.628   6.971  0.0333 -0.3420 -0.5164
 5777SOL     OW18781   5.022   2.797   6.194 -0.0970  0.4259 -0.1062
 5777SOL    HW118782   4.950   2.741   6.224 -0.2246  0.5634 -0.1552
 5777SOL    HW218783   5.007   2.881   6.238 -0.9795  1.0175 -1.4969
 5778SOL     OW18784   1.094   3.055   3.501 -0.2322  0.3374  1.0351
 5778SOL    HW118785   1.170   3.076   3.555  2.7602 -1.8925 -1.8716
 5778SOL    HW218786   1.096   3.121   3.431 -1.4887  0.6878  1.3017
 5779SOL     OW18787   2.986   4.413   6.203 -0.0138  0.2024  0.2657
 5779SOL    HW118788   3.013   4.474   6.135  0.6464  1.3884  1.5350
 5779SOL    HW218789   2.971   4.468   6.280  0.0242 -1.1738  1.2993
 5780SOL     OW18790   6.684   1.473   1.708  0.5319  1.0129 -0.0603
 5780SOL    HW118791   6.753   1.468   1.642  1.6544  0.3686  1.1142
 5780SOL    HW218792   6.713   1.542   1.767  0.0787  0.8486  0.3585
 5781SOL     OW18793   2.090   4.151   4.247 -0.0077 -0.0851 -0.0344
 5781SOL    HW118794   1.999   4.123   4.257  0.1943 -0.5986  0.3998
 5781SOL    HW218795   2.087   4.217   4.178 -1.0360  1.4000  1.3378
 5782SOL     OW18796   2.511   5.310   2.247 -0.0214 -0.1428  0.3001
 5782SOL    HW118797   2.432   5.354   2.278  0.6580  1.3761 -0.0360
 5782SOL    HW218798   2.507   5.223   2.286 -1.4949  0.1517  0.8594
 5783SOL     OW18799   8.087   6.022   4.708  0.6880 -0.1098  0.3453
 5783SOL    HW118800   8.153   5.959   4.738  1.3476 -0.4858 -1.7190
 5783SOL    HW218801   8.016   5.967   4.674  0.5594  0.2571  0.0105
 5784SOL     OW18802   3.470   2.545   9.020  0.0851 -0.0630  0.5676
 5784SOL    HW118803   3.550   2.506   9.054  0.5678 -0.1859 -0.6852
 5784SOL    HW218804   3.483   2.640   9.028 -0.0399 -0.0999  1.2377
 5785SOL     OW18805   6.422   1.121   6.609 -0.4645 -0.7304 -0.5762
 5785SOL    HW118806   6.514   1.146   6.595 -0.2847  0.3297  1.9438
 5785SOL    HW218807   6.397   1.077   6.528  1.8188  0.2306 -1.9204
 5786SOL     OW18808   7.645   1.703   8.729  0.4696 -0.1181 -0.1299
 5786SOL    HW118809   7.645   1.611   8.705  1.4355  0.2056 -1.5222
 5786SOL    HW218810   7.606   1.706   8.816 -3.6480 -1.3307 -1.7398
 5787SOL     OW18811   8.567   3.375   7.028 -0.2786  0.5472 -0.0354
 5787SOL    HW118812   8.499   3.324   6.984 -0.4497  0.8242 -0.0998
 5787SOL    HW218813   8.538   3.466   7.017 -0.9430  0.5730  1.6624
 5788SOL     OW18814   7.230   8.084   1.760  0.2675  0.1270 -0.2455
 5788SOL    HW118815   7.196   8.032   1.688  0.1070 -1.1592  0.7274
 5788SOL    HW218816   7.321   8.101   1.736 -0.0870  0.7039 -1.2686
 5789SOL     OW18817   2.644   4.058   0.376 -0.2262  0.5204 -0.0495
 5789SOL    HW118818   2.569   4.019   0.331  0.0862  0.8042 -0.8339
 5789SOL    HW218819   2.709   3.988   0.380 -0.9083 -0.0796  1.6318
 5790SOL     OW18820   4.193   5.815   2.464 -0.0294 -0.6181  0.1218
 5790SOL    HW118821   4.215   5.780   2.378  2.4395  1.5087 -0.2107
 5790SOL    HW218822   4.253   5.771   2.524  1.7860  1.4876 -0.0400
 5791SOL     OW18823   4.034   9.216   0.945 -0.3047  0.2753 -0.5125
 5791SOL    HW118824   4.046   9.251   1.033  1.3108 -0.2660 -0.4782
 5791SOL    HW218825   4.068   9.285   0.888  0.5100 -0.1725 -0.5836
 5792SOL     OW18826   9.070   1.777   3.418 -0.3873  0.2533 -0.3018
 5792SOL    HW118827   9.029   1.710   3.473  0.0710  1.3440  1.4206
 5792SOL    HW218828   9.007   1.850   3.419 -0.2980  0.3511 -1.1107
 5793SOL     OW18829   8.064   3.809   0.788 -0.1425  0.4663 -0.3068
 5793SOL    HW118830   8.099   3.757   0.715  0.5540  0.5351 -0.0325
 5793SOL    HW218831   7.971   3.787   0.791 -0.2014  0.5115 -1.2595
 5794SOL     OW18832   5.638   8.646   6.751 -0.0993  0.0401  0.5017
 5794SOL    HW118833   5.606   8.705   6.682  0.3565 -1.1728 -0.7898
 5794SOL    HW218834   5.559   8.623   6.800 -0.1937  2.3220  1.5939
 5795SOL     OW18835   2.457   3.368   9.022 -0.1461  0.1400  0.4236
 5795SOL    HW118836   2.547   3.389   9.050  0.5461 -1.2395 -0.6216
 5795SOL    HW218837   2.418   3.325   9.098 -0.0327  1.0208  0.9895
 5796SOL     OW18838   7.705   7.621   1.988 -0.6417  0.0055 -0.1404
 5796SOL    HW118839   7.656   7.603   2.068 -1.0659 -0.0817 -0.4129
 5796SOL    HW218840   7.727   7.534   1.953  1.0355  0.0270  0.7572
 5797SOL     OW18841   6.928   7.978   1.570 -0.3081 -0.2905 -0.1554
 5797SOL    HW118842   6.920   8.028   1.651  0.5087 -1.8581  0.9378
 5797SOL    HW218843   6.872   7.902   1.583 -0.1508 -0.5808 -1.0624
 5798SOL     OW18844   4.795   6.360   8.266  0.0365 -0.2326 -0.3419
 5798SOL    HW118845   4.729   6.315   8.320  0.2103 -0.5547 -0.4004
 5798SOL    HW218846   4.770   6.340   8.176  0.5427 -0.8139 -0.3515
 5799SOL     OW18847   6.560   7.246   8.900 -0.2389  0.0340  0.3042
 5799SOL    HW118848   6.533   7.193   8.825  0.6575  0.0729 -0.0650
 5799SOL    HW218849   6.656   7.238   8.901 -0.2690 -0.3533  1.7388
 5800SOL     OW18850   4.468   7.795   7.200  0.7175  0.8513  0.2520
 5800SOL    HW118851   4.433   7.880   7.225 -1.0650 -0.0868  1.1064
 5800SOL    HW218852   4.433   7.734   7.265  1.4940 -0.6379 -0.6570
 5801SOL     OW18853   9.100   8.417   7.176  0.0868 -0.5659 -0.1532
 5801SOL    HW118854   9.069   8.350   7.236 -1.1509 -1.9917 -2.2542
 5801SOL    HW218855   9.196   8.411   7.179  0.0019 -1.7847  0.3793
 5802SOL     OW18856   3.328   9.049   1.450  0.3293 -0.2052 -0.2600
 5802SOL    HW118857   3.374   8.992   1.510  2.0605  1.3506 -0.0227
 5802SOL    HW218858   3.240   9.057   1.486  0.9212 -0.4311  1.2787
 5803SOL     OW18859   1.621   0.729   3.299  0.5188 -0.1168 -0.2808
 5803SOL    HW118860   1.596   0.796   3.363  2.9347  1.0097 -0.3824
 5803SOL    HW218861   1.594   0.646   3.338 -1.7973  0.8080  0.2441
 5804SOL     OW18862   2.127   2.077   1.224 -0.6013 -0.8857  0.1931
 5804SOL    HW118863   2.122   1.987   1.255 -0.9821 -1.1067 -0.4930
 5804SOL    HW218864   2.042   2.094   1.184 -0.5404 -0.2128  0.3385
 5805SOL     OW18865   5.476   0.253   2.071  0.0829  0.0292  0.0658
 5805SOL    HW118866   5.468   0.170   2.023  1.3219  0.6175 -1.2081
 5805SOL    HW218867   5.484   0.226   2.163  0.5657 -1.2744 -0.3339
 5806SOL     OW18868   2.553   9.082   4.564 -0.2092  0.1765  0.1028
 5806SOL    HW118869   2.496   9.134   4.508  0.9722  0.3598 -0.9766
 5806SOL    HW218870   2.641   9.097   4.530  0.3806 -0.9754  1.0187
 5807SOL     OW18871   3.317   0.032   8.517  0.3649  0.2305  0.9346
 5807SOL    HW118872   3.365   0.063   8.440 -1.5770  0.9185 -0.0689
 5807SOL    HW218873   3.242   0.091   8.523 -0.1566 -0.5540  2.6807
 5808SOL     OW18874   8.521   3.078   6.975  0.1461  0.5573  0.3596
 5808SOL    HW118875   8.564   3.087   6.890 -2.8500  0.5437 -1.3014
 5808SOL    HW218876   8.553   2.995   7.010  2.1314  1.0176 -0.2786
 5809SOL     OW18877   6.602   1.781   4.322 -0.4153  0.3154 -0.0020
 5809SOL    HW118878   6.627   1.824   4.240  0.0816  0.2317  0.0986
 5809SOL    HW218879   6.640   1.693   4.315 -2.1751 -0.4415 -0.5953
 5810SOL     OW18880   5.493   2.902   3.812  0.1181  0.3071  0.1814
 5810SOL    HW118881   5.500   2.997   3.804 -1.5823  0.3791 -0.8534
 5810SOL    HW218882   5.422   2.877   3.753  1.6087 -1.8243 -0.8470
 5811SOL     OW18883   8.518   2.812   1.931  0.3816 -0.2687  0.4443
 5811SOL    HW118884   8.426   2.838   1.937 -0.8282 -3.7299 -0.6144
 5811SOL    HW218885   8.552   2.863   1.857 -1.3297 -0.4485 -0.5212
 5812SOL     OW18886   4.789   4.991   8.682  0.0649 -0.2479  0.4242
 5812SOL    HW118887   4.703   5.021   8.653 -0.0999  0.1021  1.2408
 5812SOL    HW218888   4.789   5.008   8.776  1.3885  0.6670  0.2827
 5813SOL     OW18889   7.498   4.883   3.535  0.3677 -0.0855 -0.2164
 5813SOL    HW118890   7.581   4.842   3.509  0.4418 -0.2900  0.3211
 5813SOL    HW218891   7.511   4.905   3.628  0.1790  0.7766 -0.3802
 5814SOL     OW18892   2.582   1.874   2.377  0.4218 -0.1829 -0.1174
 5814SOL    HW118893   2.662   1.906   2.336  0.6881  0.1087  0.6092
 5814SOL    HW218894   2.511   1.913   2.327  0.7370 -0.0644 -0.4712
 5815SOL     OW18895   2.826   2.819   1.340  0.3298  0.2157 -0.1225
 5815SOL    HW118896   2.744   2.791   1.302 -0.6985  1.6438  0.9196
 5815SOL    HW218897   2.886   2.829   1.266 -0.4631 -0.7014 -0.9020
 5816SOL     OW18898   5.859   7.620   8.676 -0.0888  0.3564 -0.3352
 5816SOL    HW118899   5.918   7.625   8.601  0.7855 -0.2657  0.2846
 5816SOL    HW218900   5.818   7.534   8.670 -0.7275  0.6701 -0.5988
 5817SOL     OW18901   2.347   0.825   4.902 -0.0408 -0.4713  0.3203
 5817SOL    HW118902   2.383   0.842   4.989 -0.5683  0.6114  0.3433
 5817SOL    HW218903   2.266   0.776   4.919  0.2416 -0.9103  0.3980
 5818SOL     OW18904   3.327   8.573   0.493 -0.4668 -0.5103 -0.0457
 5818SOL    HW118905   3.270   8.645   0.468  1.2634  0.9656  0.0065
 5818SOL    HW218906   3.398   8.575   0.428  0.6836 -0.8036  1.1470
 5819SOL     OW18907   1.267   6.873   3.549 -0.1358 -0.1713 -0.3317
 5819SOL    HW118908   1.248   6.907   3.462  1.6639  1.4793 -0.1432
 5819SOL    HW218909   1.263   6.949   3.607  0.4612 -0.9154  0.7261
 5820SOL     OW18910   4.903   1.759   2.104 -0.3644 -0.0303 -0.0748
 5820SOL    HW118911   4.926   1.666   2.103 -1.0723 -0.2066 -0.3663
 5820SOL    HW218912   4.817   1.763   2.063  0.7270  1.0431 -2.4463
 5821SOL     OW18913   5.383   1.925   0.705 -0.3810 -0.6300  0.6321
 5821SOL    HW118914   5.477   1.945   0.697 -0.3929 -0.7628  0.0878
 5821SOL    HW218915   5.341   1.986   0.644 -0.4502 -2.0387 -0.8013
 5822SOL     OW18916   3.679   4.568   1.586  0.4094  0.1064 -0.2252
 5822SOL    HW118917   3.695   4.659   1.609  1.2399 -0.2333  0.6176
 5822SOL    HW218918   3.755   4.542   1.534  0.4004 -0.2282 -0.0794
 5823SOL     OW18919   5.428   4.977   1.666 -0.1088 -0.1811  0.1131
 5823SOL    HW118920   5.355   4.944   1.613 -0.3634 -0.8073  0.8492
 5823SOL    HW218921   5.498   4.912   1.652 -0.2590 -0.4791  0.7333
 5824SOL     OW18922   5.187   6.677   6.235  0.1805 -0.1499 -0.0009
 5824SOL    HW118923   5.144   6.598   6.202 -0.9063  0.9105 -1.2361
 5824SOL    HW218924   5.280   6.663   6.215 -0.1266 -0.6895 -1.1877
 5825SOL     OW18925   8.906   7.974   8.125 -0.8962 -0.1497 -0.3990
 5825SOL    HW118926   8.876   8.012   8.043 -1.5081 -1.1669 -0.6645
 5825SOL    HW218927   8.841   7.906   8.145 -0.6031 -0.1034  0.7821
 5826SOL     OW18928   4.553   5.579   4.856 -0.4985  0.0431  0.2373
 5826SOL    HW118929   4.607   5.646   4.815 -2.0511  0.3859 -1.3811
 5826SOL    HW218930   4.607   5.500   4.856  0.3655  0.6256 -0.3344
 5827SOL     OW18931   5.262   4.267   7.496 -0.2746 -0.3713  0.1634
 5827SOL    HW118932   5.347   4.301   7.525 -1.9173  2.9848  1.7230
 5827SOL    HW218933   5.226   4.224   7.574  0.2171 -2.4531 -0.7071
 5828SOL     OW18934   7.779   8.184   3.686 -0.0997 -0.2776 -0.1196
 5828SOL    HW118935   7.687   8.167   3.668 -0.0566  0.4142 -1.0520
 5828SOL    HW218936   7.824   8.103   3.662 -0.3973 -0.4033 -0.2573
 5829SOL     OW18937   1.516   2.740   3.094 -0.5990  0.2865  0.0384
 5829SOL    HW118938   1.487   2.658   3.053 -2.1145  1.2793 -0.9445
 5829SOL    HW218939   1.524   2.717   3.187  1.4763 -1.6124 -0.5134
 5830SOL     OW18940   0.770   1.830   3.525  0.4857  0.2136  0.0062
 5830SOL    HW118941   0.774   1.795   3.614 -0.7951  0.4012  0.1548
 5830SOL    HW218942   0.851   1.801   3.484  0.5008 -0.9643  0.8397
 5831SOL     OW18943   4.988   6.163   6.942 -0.0164 -0.0808  0.1108
 5831SOL    HW118944   4.958   6.235   6.998  0.8894  0.1428  0.3332
 5831SOL    HW218945   5.032   6.103   7.002  0.6446 -0.0195 -0.3018
 5832SOL     OW18946   4.233   2.145   1.389 -0.0951 -0.1745  0.1272
 5832SOL    HW118947   4.164   2.135   1.323 -0.1867 -0.5155  0.2759
 5832SOL    HW218948   4.312   2.110   1.348  0.1860  0.9972 -0.3643
 5833SOL     OW18949   6.173   1.959   7.672 -0.4997 -0.1223 -0.1556
 5833SOL    HW118950   6.178   1.879   7.620  0.7362 -0.4274  0.3895
 5833SOL    HW218951   6.262   1.973   7.703 -0.7870  1.2148  0.1560
 5834SOL     OW18952   2.690   2.665   2.858 -0.1816  0.1732  0.1677
 5834SOL    HW118953   2.676   2.760   2.865  1.0147  0.3646  0.0682
 5834SOL    HW218954   2.602   2.628   2.870 -0.8731  1.3399 -0.9696
 5835SOL     OW18955   2.583   6.885   1.257  0.1342 -0.4251  0.0986
 5835SOL    HW118956   2.570   6.859   1.348  0.0887  2.9092  1.1806
 5835SOL    HW218957   2.504   6.934   1.234  0.9358  0.3812 -1.0803
 5836SOL     OW18958   5.103   4.930   3.453  0.0602 -0.2256 -0.3973
 5836SOL    HW118959   5.127   4.837   3.459 -0.5226 -0.5431 -2.3181
 5836SOL    HW218960   5.179   4.972   3.414  1.1775  0.5584  2.4082
 5837SOL     OW18961   8.795   9.012   9.242  0.5060  0.3499  0.0154
 5837SOL    HW118962   8.713   9.058   9.225  0.0703 -0.6233 -0.6414
 5837SOL    HW218963   8.817   8.971   9.158  2.7219  2.1592 -0.3861
 5838SOL     OW18964   2.983   0.632   3.463 -0.0995 -0.0464  0.1774
 5838SOL    HW118965   2.889   0.633   3.446 -0.3502 -0.6438  1.4187
 5838SOL    HW218966   2.992   0.665   3.552  0.8670 -0.0335  0.0846
 5839SOL     OW18967   6.734   8.157   7.214  0.4143  0.1732  0.0194
 5839SOL    HW118968   6.668   8.217   7.180  0.9123  0.3378 -0.6676
 5839SOL    HW218969   6.736   8.175   7.308 -0.5642  0.1129  0.0613
 5840SOL     OW18970   7.082   6.621   2.307  0.0377 -0.1532 -0.0253
 5840SOL    HW118971   7.103   6.581   2.223 -0.7710  0.9020 -0.7556
 5840SOL    HW218972   6.991   6.596   2.324 -0.6407  1.6637 -0.7153
 5841SOL     OW18973   0.609   1.092   3.393 -0.1727  0.3497 -0.3255
 5841SOL    HW118974   0.611   1.016   3.451 -0.9467  0.6275  0.0681
 5841SOL    HW218975   0.684   1.145   3.420  0.9213 -0.6874 -1.1909
 5842SOL     OW18976   6.662   6.357   5.913 -0.1279 -0.4270  0.4330
 5842SOL    HW118977   6.580   6.308   5.904  0.1419 -1.0939  1.3558
 5842SOL    HW218978   6.649   6.412   5.990  0.7002 -1.4822  1.3839
 5843SOL     OW18979   4.023   3.615   3.644 -0.1371 -0.6221 -0.5961
 5843SOL    HW118980   3.936   3.652   3.660  0.1085 -0.0732 -0.5054
 5843SOL    HW218981   4.007   3.522   3.627 -0.7531 -0.4974 -0.7175
 5844SOL     OW18982   8.714   7.477   6.928  0.0390 -0.2961  0.0076
 5844SOL    HW118983   8.788   7.510   6.877 -1.1405 -0.9900 -2.2655
 5844SOL    HW218984   8.637   7.514   6.885 -1.0507 -1.4528  0.8935
 5845SOL     OW18985   0.016   1.226   6.201 -0.2519  0.4461 -0.2359
 5845SOL    HW118986   0.000   1.301   6.143  0.2222 -0.8250 -2.0912
 5845SOL    HW218987   0.101   1.191   6.173 -0.2480 -0.5348  0.8977
 5846SOL     OW18988   7.988   3.664   1.709  0.3227  0.0849 -0.3601
 5846SOL    HW118989   7.904   3.673   1.664 -0.0044 -0.0370  0.2178
 5846SOL    HW218990   7.997   3.569   1.724 -1.2424  0.3132  2.8964
 5847SOL     OW18991   3.446   2.377   3.026 -0.1856  0.4019  0.0216
 5847SOL    HW118992   3.449   2.295   2.977 -1.4540 -0.6709  1.6302
 5847SOL    HW218993   3.374   2.426   2.988  0.8495  1.0143 -1.2306
 5848SOL     OW18994   8.449   3.682   6.662  0.4789 -0.0666 -0.3741
 5848SOL    HW118995   8.527   3.641   6.625 -0.4043 -0.9987 -1.2690
 5848SOL    HW218996   8.480   3.765   6.698  1.8653 -0.3954 -0.7626
 5849SOL     OW18997   5.285   3.731   4.939 -0.0693  0.0579  0.6533
 5849SOL    HW118998   5.241   3.790   4.878  0.2889  0.5824  0.8969
 5849SOL    HW218999   5.345   3.788   4.988 -0.4092 -0.3452  1.5456
 5850SOL     OW19000   1.143   6.046   7.599 -0.1798 -0.3174 -0.1916
 5850SOL    HW119001   1.063   6.011   7.560 -1.0745  0.8537  0.5453
 5850SOL    HW219002   1.195   5.968   7.619 -0.6376 -1.0518 -1.6623
 5851SOL     OW19003   5.219   9.099   6.435 -0.1726  0.0044 -0.5744
 5851SOL    HW119004   5.314   9.109   6.445 -0.3700  0.3397  1.5997
 5851SOL    HW219005   5.197   9.023   6.489 -1.2453  0.5707 -0.1669
 5852SOL     OW19006   2.786   7.761   4.302 -0.3770  0.0680 -0.3657
 5852SOL    HW119007   2.781   7.837   4.244 -0.6524  1.1424  1.0071
 5852SOL    HW219008   2.775   7.686   4.244  2.2596  0.8950 -2.1178
 5853SOL     OW19009   0.652   0.907   7.855  0.0521  0.3329  0.0135
 5853SOL    HW119010   0.635   0.814   7.839 -0.5376  0.7573 -2.2451
 5853SOL    HW219011   0.577   0.936   7.906  1.8419 -1.0507  3.7587
 5854SOL     OW19012   1.551   3.678   9.011  0.0563  0.4294 -0.0753
 5854SOL    HW119013   1.487   3.685   9.082  0.4147  0.7779  0.2163
 5854SOL    HW219014   1.527   3.748   8.950 -0.7705 -0.3896 -0.7354
 5855SOL     OW19015   3.438   8.202   0.226  0.3923  0.1211  0.0217
 5855SOL    HW119016   3.528   8.233   0.221  0.1584  1.0771  1.2365
 5855SOL    HW219017   3.446   8.113   0.261  0.9026 -0.1648 -0.7865
 5856SOL     OW19018   4.232   1.978   8.834  0.1179 -0.0452  0.0036
 5856SOL    HW119019   4.178   1.907   8.801  0.4953  0.0400 -0.8154
 5856SOL    HW219020   4.197   2.057   8.791 -0.7776  0.3957  1.4595
 5857SOL     OW19021   3.345   5.758   8.907  0.3108 -0.1912 -0.3602
 5857SOL    HW119022   3.409   5.821   8.940  0.7534 -0.9021  0.1897
 5857SOL    HW219023   3.260   5.797   8.927  0.5405  1.0433 -1.6263
 5858SOL     OW19024   7.912   3.690   7.290 -0.2228 -0.2232  0.6357
 5858SOL    HW119025   7.853   3.675   7.364  0.6240 -1.6738  1.0505
 5858SOL    HW219026   7.933   3.783   7.293 -1.1657 -0.0275  1.4738
 5859SOL     OW19027   9.001   5.457   3.663  0.3591  0.0645  0.0212
 5859SOL    HW119028   8.928   5.417   3.616 -0.3875  0.1338  1.0913
 5859SOL    HW219029   8.968   5.542   3.690  0.8230  0.0733  0.5586
 5860SOL     OW19030   6.032   7.038   2.193 -0.2713  0.4091  0.2611
 5860SOL    HW119031   6.042   7.120   2.242  1.3140  0.1932  0.3385
 5860SOL    HW219032   5.972   7.060   2.122 -0.7795  1.3214  0.9434
 5861SOL     OW19033   8.603   5.010   1.895  0.1233  0.0250  0.0996
 5861SOL    HW119034   8.613   5.102   1.917  0.1400 -0.2588  1.3477
 5861SOL    HW219035   8.523   5.006   1.843  1.2892  1.0272 -1.9114
 5862SOL     OW19036   1.205   6.267   4.577  0.3928  0.0728 -0.4924
 5862SOL    HW119037   1.261   6.190   4.563  0.3946  0.1011 -0.6457
 5862SOL    HW219038   1.266   6.340   4.587  0.4662 -0.1921  1.3986
 5863SOL     OW19039   7.630   5.795   1.439 -0.0110  0.4636  0.1342
 5863SOL    HW119040   7.719   5.759   1.444 -0.5425 -0.7993  1.1074
 5863SOL    HW219041   7.583   5.753   1.511 -1.7020  0.2669 -1.0155
 5864SOL     OW19042   1.749   2.690   9.080 -0.1761 -0.1096  0.0978
 5864SOL    HW119043   1.787   2.745   9.012  0.1426 -1.1209 -0.5576
 5864SOL    HW219044   1.795   2.606   9.073 -0.4649 -0.3941  1.2507
 5865SOL     OW19045   8.056   3.217   5.370 -0.3710  0.1685 -0.0913
 5865SOL    HW119046   7.971   3.175   5.382 -0.6703  1.0090  0.9320
 5865SOL    HW219047   8.092   3.223   5.459  0.9723 -0.5973 -0.5568
 5866SOL     OW19048   2.803   2.433   0.815  0.5724 -0.2998  0.7134
 5866SOL    HW119049   2.724   2.426   0.762  0.0827  0.4639  1.3151
 5866SOL    HW219050   2.825   2.343   0.840 -0.9509 -0.4210  1.7490
 5867SOL     OW19051   4.139   8.258   0.751 -0.0697  0.7258 -0.8822
 5867SOL    HW119052   4.200   8.268   0.823  1.6327 -1.7485 -1.8257
 5867SOL    HW219053   4.056   8.292   0.784  1.6512  3.9466  0.5553
 5868SOL     OW19054   4.307   0.645   7.561 -0.1607  0.0235 -0.1842
 5868SOL    HW119055   4.388   0.603   7.532 -0.4784 -0.3253 -0.5658
 5868SOL    HW219056   4.271   0.584   7.625  1.8654  1.9223  3.0952
 5869SOL     OW19057   6.170   4.438   5.351  0.0725  0.0268 -0.2546
 5869SOL    HW119058   6.177   4.361   5.407  0.9850 -0.9608 -1.6455
 5869SOL    HW219059   6.175   4.403   5.262  2.1756  1.8148 -0.9170
 5870SOL     OW19060   2.267   6.227   9.202  0.3062  0.1201 -0.0433
 5870SOL    HW119061   2.212   6.150   9.190  2.3205 -1.4203  0.0235
 5870SOL    HW219062   2.237   6.289   9.135 -1.4606 -0.6249  0.0046
 5871SOL     OW19063   1.297   7.125   4.343 -0.2397  0.5214 -0.1110
 5871SOL    HW119064   1.342   7.079   4.271  0.0025  0.4635  0.0774
 5871SOL    HW219065   1.257   7.055   4.395 -0.2782  0.5542 -0.0963
 5872SOL     OW19066   7.411   7.101   4.496 -0.0963 -0.1641  0.6210
 5872SOL    HW119067   7.403   7.172   4.432 -1.5181 -1.1745 -0.3816
 5872SOL    HW219068   7.500   7.067   4.483  0.3161  0.8901  0.5564
 5873SOL     OW19069   8.130   8.430   1.698  0.0078  0.6983  0.0326
 5873SOL    HW119070   8.151   8.394   1.611 -2.4485 -1.1274  0.0912
 5873SOL    HW219071   8.096   8.355   1.747 -0.3545  2.0799  1.9796
 5874SOL     OW19072   1.444   2.577   2.414 -0.0485 -0.3174 -0.0386
 5874SOL    HW119073   1.385   2.635   2.462 -1.4413 -1.3214 -0.4668
 5874SOL    HW219074   1.519   2.632   2.393  0.0457  0.5160  2.1257
 5875SOL     OW19075   6.010   4.165   5.106  0.1634 -0.6494 -0.2022
 5875SOL    HW119076   5.952   4.157   5.183  0.9482 -0.4048  0.4236
 5875SOL    HW219077   6.031   4.258   5.102 -0.1650 -0.6044 -0.9435
 5876SOL     OW19078   5.303   7.399   0.418  0.0105  0.0265 -0.1255
 5876SOL    HW119079   5.239   7.370   0.353 -1.0660 -0.7057  1.2236
 5876SOL    HW219080   5.274   7.487   0.442  0.7206  0.5177 -0.9849
 5877SOL     OW19081   3.825   8.371   4.747 -0.1359 -0.0331 -1.0581
 5877SOL    HW119082   3.857   8.330   4.827 -1.1426 -2.3861 -1.7827
 5877SOL    HW219083   3.860   8.460   4.750  1.3807 -0.6261  1.0792
 5878SOL     OW19084   5.220   3.156   3.487  0.3807  0.2812  0.9390
 5878SOL    HW119085   5.243   3.183   3.398  1.0285 -0.9811  0.7056
 5878SOL    HW219086   5.125   3.155   3.488  0.3682  0.2672  0.2526
 5879SOL     OW19087   4.303   1.601   1.206 -0.3632 -0.1516 -0.4146
 5879SOL    HW119088   4.351   1.563   1.133  0.3963 -2.6185  1.2491
 5879SOL    HW219089   4.215   1.566   1.199 -0.4604  0.0986 -0.4716
 5880SOL     OW19090   8.544   7.789   2.159  0.4746 -0.5653  0.0381
 5880SOL    HW119091   8.519   7.724   2.224 -0.1932 -0.3147  0.0447
 5880SOL    HW219092   8.638   7.802   2.172  0.3186 -0.3793  1.0734
 5881SOL     OW19093   3.822   1.412   8.377 -0.0035  0.0173 -0.6624
 5881SOL    HW119094   3.813   1.444   8.287 -0.0087 -0.1307 -0.7148
 5881SOL    HW219095   3.817   1.491   8.431  0.3723  0.1485 -0.8138
 5882SOL     OW19096   2.953   7.558   9.164  0.2903 -0.3254  0.0556
 5882SOL    HW119097   2.911   7.641   9.185 -1.6843 -1.0650 -0.7668
 5882SOL    HW219098   3.045   7.581   9.148 -0.3162  1.7690 -0.7212
 5883SOL     OW19099   4.582   8.247   1.147 -0.1482 -0.5952  0.1235
 5883SOL    HW119100   4.648   8.179   1.132 -1.3687 -1.4268 -1.9132
 5883SOL    HW219101   4.507   8.200   1.184 -0.3930 -0.0412  0.3440
 5884SOL     OW19102   4.763   8.395   4.980 -0.1061 -0.1142 -0.2775
 5884SOL    HW119103   4.824   8.436   4.919  0.0405  1.2272  0.7378
 5884SOL    HW219104   4.749   8.460   5.048 -0.4903 -1.4673  0.9865
 5885SOL     OW19105   1.152   5.261   5.299 -0.1855  0.3104 -0.9675
 5885SOL    HW119106   1.129   5.295   5.212 -1.5073 -0.4110 -0.9327
 5885SOL    HW219107   1.181   5.172   5.283  2.6595  1.1305 -0.9830
 5886SOL     OW19108   8.427   9.272   6.743  0.3709 -0.5052 -0.0056
 5886SOL    HW119109   8.413   9.324   6.822 -0.6625  2.0064 -1.7297
 5886SOL    HW219110   8.522   9.273   6.730  0.3117  1.9271 -0.5566
 5887SOL     OW19111   5.206   5.574   4.754  0.0088 -0.3072  0.4930
 5887SOL    HW119112   5.265   5.647   4.736  0.1381 -0.7156 -0.8656
 5887SOL    HW219113   5.222   5.512   4.683 -0.9874 -1.0999  0.9299
 5888SOL     OW19114   4.178   1.868   5.294 -0.4181 -0.1232 -0.4360
 5888SOL    HW119115   4.183   1.894   5.202 -1.5359 -0.7354 -0.6826
 5888SOL    HW219116   4.264   1.890   5.329 -0.5101  1.7126 -1.2047
 5889SOL     OW19117   3.770   6.099   7.836  0.2700  0.0874 -0.2955
 5889SOL    HW119118   3.865   6.097   7.847  0.1163  0.7406  1.4156
 5889SOL    HW219119   3.755   6.164   7.768  1.0933 -0.8211 -1.3734
 5890SOL     OW19120   3.314   1.135   5.855  0.2686 -0.2365 -0.2315
 5890SOL    HW119121   3.381   1.172   5.912  1.8782 -1.0845 -1.4825
 5890SOL    HW219122   3.327   1.040   5.862 -1.1944 -0.4537 -0.0816
 5891SOL     OW19123   1.329   0.014   4.886 -0.3343  0.1941  0.5494
 5891SOL    HW119124   1.391   0.043   4.953  0.8203 -1.0798  0.0756
 5891SOL    HW219125   1.315   0.092   4.832  2.2257  0.1681 -0.3352
 5892SOL     OW19126   7.636   2.633   8.715  0.1208  0.0693  0.1423
 5892SOL    HW119127   7.672   2.700   8.773 -0.8902  0.7805 -0.0415
 5892SOL    HW219128   7.542   2.646   8.717  0.0284 -0.1846 -1.3018
 5893SOL     OW19129   3.365   2.336   0.247 -0.3984 -0.2337  0.0879
 5893SOL    HW119130   3.385   2.328   0.340  0.5749 -2.4556 -0.2386
 5893SOL    HW219131   3.372   2.246   0.214 -1.9169  0.3175 -1.9071
 5894SOL     OW19132   0.696   5.667   3.314 -0.2021  0.1316  0.7806
 5894SOL    HW119133   0.642   5.710   3.381 -1.0890  1.0741 -0.5081
 5894SOL    HW219134   0.786   5.688   3.339 -0.5323  0.8723  1.4010
 5895SOL     OW19135   6.148   5.573   7.394  0.3653  0.4877 -0.2037
 5895SOL    HW119136   6.210   5.644   7.378 -1.7684  2.4577 -0.0715
 5895SOL    HW219137   6.130   5.578   7.488  0.2732 -0.3103 -0.1717
 5896SOL     OW19138   8.552   1.523   5.234 -0.3510 -0.3825 -0.0270
 5896SOL    HW119139   8.645   1.524   5.254 -0.8287  0.2098  2.4303
 5896SOL    HW219140   8.523   1.612   5.250 -1.2257 -0.3572 -1.5578
 5897SOL     OW19141   4.629   7.784   4.632  0.0379 -0.1351 -0.5368
 5897SOL    HW119142   4.568   7.750   4.698  0.6432 -0.7442 -0.2801
 5897SOL    HW219143   4.716   7.772   4.671  0.4281 -0.7834 -1.5703
 5898SOL     OW19144   4.158   8.145   3.715 -0.2196  0.1016 -1.0377
 5898SOL    HW119145   4.203   8.169   3.796 -0.8794 -3.0332  0.4011
 5898SOL    HW219146   4.065   8.149   3.736 -0.4504  0.5555 -2.0706
 5899SOL     OW19147   5.332   0.026   2.876 -0.3561 -0.7388  0.6579
 5899SOL    HW119148   5.387  -0.051   2.891 -0.9487 -1.8377 -2.1783
 5899SOL    HW219149   5.248  -0.010   2.845 -1.5553  1.0067  1.6839
 5900SOL     OW19150   2.328   5.226   3.999 -0.2638 -0.3916 -0.7680
 5900SOL    HW119151   2.237   5.254   3.991 -0.2631 -0.3687 -0.6949
 5900SOL    HW219152   2.365   5.283   4.067 -0.2411 -0.5182 -0.6743
 5901SOL     OW19153   7.217   7.620   1.349 -0.7091 -0.1859  0.3597
 5901SOL    HW119154   7.289   7.565   1.381 -0.2131  0.3454  0.1887
 5901SOL    HW219155   7.190   7.672   1.425 -1.2100 -0.7015  0.5333
 5902SOL     OW19156   2.407   7.990   5.868  0.1295  0.3514  0.4399
 5902SOL    HW119157   2.445   7.946   5.792 -1.8076  1.0966 -1.0641
 5902SOL    HW219158   2.360   7.920   5.914 -2.1261  0.4865 -1.4109
 5903SOL     OW19159   3.704   0.767   3.059  0.2640  0.0059  0.0131
 5903SOL    HW119160   3.761   0.818   3.117 -0.2358 -0.9781  1.4181
 5903SOL    HW219161   3.737   0.785   2.971  1.1976  1.3590  0.6084
 5904SOL     OW19162   1.873   4.010   7.874 -0.0521 -0.0493  0.0188
 5904SOL    HW119163   1.949   3.993   7.818  0.5929 -0.8625  1.0974
 5904SOL    HW219164   1.896   4.088   7.924 -0.0438 -0.1391  0.1551
 5905SOL     OW19165   1.094   1.071   6.685 -0.6240 -0.0769 -0.1530
 5905SOL    HW119166   1.152   1.030   6.621 -0.4997  0.3930 -0.3368
 5905SOL    HW219167   1.143   1.144   6.720 -0.0795 -1.2091  1.6043
 5906SOL     OW19168   6.436   3.142   6.713  0.6513 -0.2652  0.0245
 5906SOL    HW119169   6.380   3.111   6.784  1.3943 -1.0307  0.2957
 5906SOL    HW219170   6.524   3.143   6.751  0.8286  0.9265 -0.3880
 5907SOL     OW19171   3.051   6.245   2.415 -0.7704 -0.2462  0.0581
 5907SOL    HW119172   3.009   6.190   2.482 -1.4228 -0.6400 -0.6537
 5907SOL    HW219173   3.144   6.223   2.421 -0.8725 -0.5571  0.5858
 5908SOL     OW19174   8.548   2.972   2.375 -0.7818 -0.6367 -0.1353
 5908SOL    HW119175   8.458   2.980   2.405 -0.3718  0.8445  0.7561
 5908SOL    HW219176   8.575   3.061   2.354  0.9549 -0.8329  1.0747
 5909SOL     OW19177   5.046   8.738   1.730  0.0392  0.2244 -0.2240
 5909SOL    HW119178   5.067   8.819   1.776  0.9638  0.7309 -1.5013
 5909SOL    HW219179   4.986   8.692   1.789 -0.6160  1.8914  0.4571
 5910SOL     OW19180   7.027   5.460   7.504  0.4821 -0.2592  0.0306
 5910SOL    HW119181   6.994   5.446   7.415 -0.5690 -0.4392  0.4347
 5910SOL    HW219182   6.948   5.461   7.558  1.0241  0.9052  0.8304
 5911SOL     OW19183   6.721   8.795   5.800  0.6049 -0.5975 -0.0275
 5911SOL    HW119184   6.637   8.803   5.755 -0.4542 -2.1343  1.5603
 5911SOL    HW219185   6.729   8.702   5.821  2.1008 -0.2816  0.9811
 5912SOL     OW19186   0.798   6.139   8.552  0.2883  0.1311  0.2425
 5912SOL    HW119187   0.829   6.149   8.642  0.5192 -1.0221  0.3099
 5912SOL    HW219188   0.757   6.053   8.550  0.8708 -0.1475 -0.9224
 5913SOL     OW19189   6.719   1.174   3.661 -0.9311  0.3442  0.2091
 5913SOL    HW119190   6.672   1.103   3.619 -2.9500  0.2620  2.3765
 5913SOL    HW219191   6.745   1.232   3.589  0.0580 -2.0929 -1.5280
 5914SOL     OW19192   4.084   8.735   8.223  0.2824  0.3301 -0.6437
 5914SOL    HW119193   4.173   8.723   8.192  0.7142  0.9739  0.2878
 5914SOL    HW219194   4.083   8.823   8.262 -0.7514  0.3313 -0.6336
 5915SOL     OW19195   5.917   6.335   1.074  0.2739 -0.1279  0.2163
 5915SOL    HW119196   6.009   6.357   1.066  0.1778  0.2118  0.0535
 5915SOL    HW219197   5.909   6.249   1.032  0.5290 -0.1940  0.3031
 5916SOL     OW19198   9.092   8.884   3.529  0.1850  0.0760  0.3412
 5916SOL    HW119199   9.149   8.946   3.575 -0.4203  0.4193  0.6357
 5916SOL    HW219200   9.117   8.893   3.437 -0.3394  1.2292  0.3019
 5917SOL     OW19201   0.444   3.860   4.337  0.4571 -0.3922 -0.2162
 5917SOL    HW119202   0.538   3.864   4.323  0.5874  0.1229  0.7240
 5917SOL    HW219203   0.409   3.822   4.256  1.1380  2.3592 -1.9412
 5918SOL     OW19204   1.507   3.276   6.859  0.7241  0.0089 -0.4594
 5918SOL    HW119205   1.530   3.365   6.884  0.2480  0.2403 -0.8275
 5918SOL    HW219206   1.581   3.223   6.888  0.3263  0.2956  1.1809
 5919SOL     OW19207   0.412   7.748   6.699  0.3104  0.1336 -0.0319
 5919SOL    HW119208   0.466   7.682   6.742  0.3119  0.2945  0.2204
 5919SOL    HW219209   0.474   7.812   6.666  0.4355 -0.8672 -1.8350
 5920SOL     OW19210   0.654   1.496   1.898  0.6615 -0.5706  0.0038
 5920SOL    HW119211   0.678   1.581   1.934  1.9378 -0.7586 -0.3641
 5920SOL    HW219212   0.717   1.435   1.937 -0.3318 -1.3787  0.3825
 5921SOL     OW19213   8.372   6.719   6.646 -0.4226  0.3017 -0.0563
 5921SOL    HW119214   8.323   6.802   6.651 -0.5863  0.1390  1.9682
 5921SOL    HW219215   8.462   6.743   6.667  0.1187  0.3508 -2.2270
 5922SOL     OW19216   0.488   8.239   3.581 -0.2260 -0.3234  0.3250
 5922SOL    HW119217   0.568   8.203   3.543  0.9443  1.0819  1.3575
 5922SOL    HW219218   0.499   8.334   3.577 -2.8538  0.0190 -1.5577
 5923SOL     OW19219   7.921   4.966   1.557  0.1941 -0.0431  0.1356
 5923SOL    HW119220   7.840   4.976   1.606 -0.9342 -2.4270 -1.1136
 5923SOL    HW219221   7.955   4.881   1.583  0.9380 -0.2147 -1.2882
 5924SOL     OW19222   2.166   0.743   3.459 -0.5026 -0.3281  0.4878
 5924SOL    HW119223   2.187   0.820   3.407  0.2895 -0.3830  0.7167
 5924SOL    HW219224   2.110   0.777   3.530 -1.0367 -0.1507 -0.0072
 5925SOL     OW19225   4.001   0.345   6.323  0.0326  0.0249 -1.0532
 5925SOL    HW119226   3.973   0.345   6.415  1.3405 -0.9272 -0.6213
 5925SOL    HW219227   3.935   0.292   6.278  0.7654 -1.7225 -0.1632
 5926SOL     OW19228   6.645   2.902   4.656 -0.0062  0.7323 -0.3249
 5926SOL    HW119229   6.674   2.852   4.732  0.1025  1.1085 -0.1192
 5926SOL    HW219230   6.664   2.845   4.582 -0.6480  0.1173 -0.0288
 5927SOL     OW19231   2.767   8.985   6.139 -0.2527  0.5874  0.0356
 5927SOL    HW119232   2.734   8.950   6.056  0.2742 -1.9299  0.8235
 5927SOL    HW219233   2.850   9.027   6.116 -0.2787  0.2233 -0.7623
 5928SOL     OW19234   6.607   1.659   0.059  0.0163  0.0442  0.1474
 5928SOL    HW119235   6.617   1.569   0.028 -1.3461 -0.6813  1.6988
 5928SOL    HW219236   6.516   1.665   0.087  0.0130  1.9959 -0.1453
 5929SOL     OW19237   6.931   7.241   0.042 -0.0688 -0.8312  0.5922
 5929SOL    HW119238   7.015   7.256   0.084 -0.5070 -1.1956  1.6379
 5929SOL    HW219239   6.867   7.242   0.114 -1.0050 -0.1897 -0.2186
 5930SOL     OW19240   6.275   5.481   5.492 -0.3229  0.3771 -0.6221
 5930SOL    HW119241   6.349   5.424   5.471 -1.3656 -1.0831 -0.4767
 5930SOL    HW219242   6.218   5.476   5.415 -1.3497 -0.3516  0.1582
 5931SOL     OW19243   4.971   2.216   2.532 -0.3775 -0.5869 -0.4198
 5931SOL    HW119244   4.887   2.260   2.527 -0.2460 -0.2734  0.1173
 5931SOL    HW219245   4.993   2.197   2.440  0.8030  2.8437 -0.9872
 5932SOL     OW19246   7.017   3.379   2.066 -0.0600  0.7211  0.0663
 5932SOL    HW119247   7.035   3.402   1.975 -0.5518  0.4774 -0.0917
 5932SOL    HW219248   6.989   3.461   2.106  0.3446  0.8706  0.0469
 5933SOL     OW19249   0.638   4.856   6.957  0.0136 -0.0197  0.0101
 5933SOL    HW119250   0.551   4.837   6.921  0.7165 -0.6279 -1.4060
 5933SOL    HW219251   0.665   4.775   7.000  0.4893 -0.2940 -0.8076
 5934SOL     OW19252   8.912   3.266   7.756  0.1267 -0.0693 -1.4022
 5934SOL    HW119253   8.831   3.290   7.711  0.5384 -1.1512 -2.7720
 5934SOL    HW219254   8.930   3.177   7.727  1.2102 -0.2520 -0.2157
 5935SOL     OW19255   2.693   9.195   4.248  0.1804 -0.1137 -0.5268
 5935SOL    HW119256   2.765   9.178   4.308  0.2319 -0.0768 -0.5782
 5935SOL    HW219257   2.720   9.272   4.198 -0.5700  0.8804  0.5445
 5936SOL     OW19258   4.946   2.286   0.406  0.3307  0.8866 -0.6231
 5936SOL    HW119259   4.950   2.220   0.475  1.2528  2.4764  0.9389
 5936SOL    HW219260   5.000   2.250   0.336  0.5714 -0.1629  0.0727
 5937SOL     OW19261   9.165   3.037   7.387 -0.1073  0.3166  0.1711
 5937SOL    HW119262   9.157   2.952   7.429 -0.9708 -0.7450 -2.0333
 5937SOL    HW219263   9.096   3.039   7.321  0.5646  2.3050 -0.5590
 5938SOL     OW19264   7.537   7.706   4.882 -0.4997  0.6273  0.2440
 5938SOL    HW119265   7.488   7.673   4.807 -0.6177 -1.5064  1.1971
 5938SOL    HW219266   7.556   7.628   4.935  1.4937  1.7728  1.3252
 5939SOL     OW19267   0.119   8.189   0.622  0.0180  0.4994  0.2239
 5939SOL    HW119268   0.143   8.281   0.617  0.0307  0.4728 -0.1774
 5939SOL    HW219269   0.075   8.180   0.706  1.5597  0.5252  1.0845
 5940SOL     OW19270   2.552   6.788   4.390 -0.2891  0.0314 -0.3853
 5940SOL    HW119271   2.597   6.870   4.373  1.1350 -0.8250 -0.9174
 5940SOL    HW219272   2.489   6.809   4.458 -1.7497  2.1311 -2.2513
 5941SOL     OW19273   5.067   0.520   1.573 -0.2464 -0.3190 -0.0863
 5941SOL    HW119274   5.071   0.613   1.595 -0.0633  0.0066 -1.4402
 5941SOL    HW219275   5.000   0.514   1.505 -0.7443 -1.2875  0.4588
 5942SOL     OW19276   4.300   4.636   4.924  0.6858  0.0728 -0.7905
 5942SOL    HW119277   4.243   4.579   4.976  0.4553  0.2470 -0.8482
 5942SOL    HW219278   4.357   4.575   4.876  1.0823 -0.0781 -0.1344
 5943SOL     OW19279   9.234   2.035   8.588  0.4119 -0.0032 -0.3023
 5943SOL    HW119280   9.316   2.054   8.635  0.4563 -0.2088 -0.2961
 5943SOL    HW219281   9.187   1.975   8.645 -0.0149  0.5810 -0.0332
 5944SOL     OW19282   6.296   9.023   7.233 -0.2544  0.0743 -0.8246
 5944SOL    HW119283   6.239   9.038   7.308 -0.1725  0.1078 -0.7690
 5944SOL    HW219284   6.366   9.089   7.242  0.6136 -0.9116 -0.0896
 5945SOL     OW19285   2.661   6.167   6.673 -0.5723 -0.0772 -0.2286
 5945SOL    HW119286   2.628   6.078   6.668 -2.8854  0.7325 -0.4568
 5945SOL    HW219287   2.736   6.162   6.733 -1.2983 -1.9725  0.5728
 5946SOL     OW19288   8.670   1.399   6.623 -0.1573 -0.1762  0.4093
 5946SOL    HW119289   8.705   1.421   6.709  2.7794  1.9350 -1.1198
 5946SOL    HW219290   8.719   1.321   6.596 -0.7259 -0.5518  0.4394
 5947SOL     OW19291   3.723   3.064   6.805  0.0361  0.2098  0.2698
 5947SOL    HW119292   3.639   3.020   6.816  0.2495 -0.0376  0.9513
 5947SOL    HW219293   3.722   3.095   6.714 -1.0300  0.7119  0.4303
 5948SOL     OW19294   4.149   1.772   7.345  0.0940  0.0769 -0.2552
 5948SOL    HW119295   4.193   1.800   7.265  0.9196 -0.6242 -0.0615
 5948SOL    HW219296   4.117   1.853   7.384 -0.9319  0.3761 -1.6262
 5949SOL     OW19297   6.060   2.941   5.384  0.0636 -0.2681  0.1214
 5949SOL    HW119298   6.069   2.923   5.290  0.2088 -0.1118  0.1044
 5949SOL    HW219299   6.119   2.879   5.426 -0.5880 -0.8741  0.1616
 5950SOL     OW19300   3.793   7.634   5.669 -0.2686 -0.1943 -0.1011
 5950SOL    HW119301   3.758   7.722   5.673 -0.9579 -0.4751  0.2034
 5950SOL    HW219302   3.855   7.636   5.596  2.6884  1.5494  2.2298
 5951SOL     OW19303   2.018   7.401   0.590 -0.2904  0.6176  0.0173
 5951SOL    HW119304   2.035   7.349   0.511  2.6816  0.0511  0.8953
 5951SOL    HW219305   2.026   7.492   0.560 -0.5641  0.4504 -0.5893
 5952SOL     OW19306   0.866   3.954   8.654 -0.1215  0.2033 -0.6268
 5952SOL    HW119307   0.915   3.929   8.733  1.8112  1.3418 -1.4017
 5952SOL    HW219308   0.831   4.041   8.674  0.1362  0.3751 -0.9187
 5953SOL     OW19309   1.149   1.844   9.215  0.3914 -0.0556 -0.5450
 5953SOL    HW119310   1.124   1.911   9.279  2.6105  0.4402 -0.0990
 5953SOL    HW219311   1.124   1.882   9.130  0.9858  1.0561 -0.2495
 5954SOL     OW19312   7.776   7.192   0.374  0.1116  0.4490  0.3648
 5954SOL    HW119313   7.755   7.100   0.389 -0.2247  0.6481  1.1935
 5954SOL    HW219314   7.806   7.196   0.283 -1.3563 -0.2123 -0.1848
 5955SOL     OW19315   3.209   8.811   2.315 -0.0203  0.2486 -0.1775
 5955SOL    HW119316   3.148   8.745   2.284 -2.0799  1.6742  0.6072
 5955SOL    HW219317   3.251   8.845   2.236 -2.6459  1.4406 -1.1500
 5956SOL     OW19318   6.677   6.510   0.406  0.4289 -0.1763 -0.2236
 5956SOL    HW119319   6.624   6.563   0.465  0.1732 -1.1483  0.4426
 5956SOL    HW219320   6.761   6.499   0.451  1.0911  1.0130 -1.0942
 5957SOL     OW19321   6.923   1.318   7.713 -0.4296  0.2835 -0.0206
 5957SOL    HW119322   6.871   1.245   7.746 -0.4551 -1.0576 -2.7324
 5957SOL    HW219323   6.985   1.337   7.783 -1.6229 -1.1016  1.4941
 5958SOL     OW19324   7.771   5.760   6.404 -0.3681 -0.2273  0.1399
 5958SOL    HW119325   7.855   5.804   6.392 -0.3915  0.1344  1.1625
 5958SOL    HW219326   7.788   5.670   6.379  0.1208  0.0091 -0.4098
 5959SOL     OW19327   8.641   2.114   4.016  0.5451 -0.3146  0.0505
 5959SOL    HW119328   8.624   2.039   4.074  1.6309 -0.6012  0.0167
 5959SOL    HW219329   8.675   2.182   4.074 -0.2326  0.0895  0.0454
 5960SOL     OW19330   1.994   6.254   1.139 -0.2489 -0.1514  0.3609
 5960SOL    HW119331   1.992   6.254   1.044 -1.6961 -1.6506  0.3532
 5960SOL    HW219332   2.077   6.297   1.161  0.3075 -0.1409 -1.5678
 5961SOL     OW19333   0.923   0.318   4.351  0.0975 -0.3535 -0.4225
 5961SOL    HW119334   0.883   0.232   4.362  1.4563 -0.8319  1.1854
 5961SOL    HW219335   0.903   0.365   4.432 -2.6692  1.8265 -2.1773
 5962SOL     OW19336   8.007   2.646   0.209 -0.7533  0.8460 -0.0694
 5962SOL    HW119337   7.940   2.682   0.152 -1.5093  0.1961  0.3911
 5962SOL    HW219338   8.020   2.556   0.178  1.0401  1.4084 -1.1412
 5963SOL     OW19339   9.040   0.060   4.330 -0.4165  0.2516 -0.3573
 5963SOL    HW119340   9.070  -0.030   4.340 -1.6252 -0.2299 -0.8273
 5963SOL    HW219341   9.095   0.096   4.260 -1.2129 -0.7591 -1.5582
 5964SOL     OW19342   0.177   3.714   0.179  0.2445 -0.2473 -0.0986
 5964SOL    HW119343   0.087   3.745   0.174  0.2652 -0.3805 -2.1756
 5964SOL    HW219344   0.176   3.646   0.246 -0.7075  1.2092  1.4416
 5965SOL     OW19345   0.180   6.710   0.825 -0.5222  0.0203  0.3938
 5965SOL    HW119346   0.128   6.732   0.748 -1.2205 -1.9695  0.2225
 5965SOL    HW219347   0.261   6.760   0.815 -0.5760 -0.2277 -1.6712
 5966SOL     OW19348   1.300   4.015   7.479 -0.2636 -0.5788  0.3047
 5966SOL    HW119349   1.266   3.947   7.421 -0.8948 -0.6525  0.7486
 5966SOL    HW219350   1.243   4.090   7.464  0.1666 -0.2822  0.1302
 5967SOL     OW19351   3.757   7.961   5.084 -0.0537 -0.0134 -0.1806
 5967SOL    HW119352   3.664   7.954   5.105  0.1185 -0.5085  0.4756
 5967SOL    HW219353   3.763   7.940   4.991 -0.6964  0.8720 -0.4260
 5968SOL     OW19354   7.561   4.014   5.207  0.2214 -0.3785 -0.4524
 5968SOL    HW119355   7.489   4.050   5.259  0.0919 -1.4401  0.1371
 5968SOL    HW219356   7.617   4.089   5.188 -1.8863  0.8224 -2.4058
 5969SOL     OW19357   4.254   4.033   1.794 -0.2644  0.0369 -0.4399
 5969SOL    HW119358   4.257   4.128   1.782 -2.0239  0.0977 -0.6220
 5969SOL    HW219359   4.186   4.020   1.860  0.9815 -1.0299  0.6830
 5970SOL     OW19360   7.679   0.629   4.561  0.3252  0.2229  0.0484
 5970SOL    HW119361   7.586   0.607   4.559  0.2232  0.6540 -0.2915
 5970SOL    HW219362   7.716   0.580   4.488  0.4722 -0.4032  0.5432
 5971SOL     OW19363   7.568   7.348   5.818  0.0732  0.2004 -0.4579
 5971SOL    HW119364   7.563   7.432   5.864  2.2425  0.3379 -0.3698
 5971SOL    HW219365   7.500   7.353   5.751 -1.7916  0.8282  1.3532
 5972SOL     OW19366   5.602   0.382   8.228  0.1108 -0.7441  0.4573
 5972SOL    HW119367   5.520   0.432   8.228  0.5529 -0.0017  0.3377
 5972SOL    HW219368   5.623   0.372   8.321  0.1483 -0.4788  0.4801
 5973SOL     OW19369   8.193   5.218   2.771 -0.1611  0.1350  0.0287
 5973SOL    HW119370   8.129   5.154   2.802 -0.2117 -0.0313 -0.4099
 5973SOL    HW219371   8.155   5.252   2.690  0.0844  0.3808  0.0171
 5974SOL     OW19372   0.344   4.266   7.652  0.2615  0.0673  0.2587
 5974SOL    HW119373   0.252   4.283   7.631  0.0140  0.5532  1.6758
 5974SOL    HW219374   0.346   4.261   7.747  1.1434 -3.2139  0.1745
 5975SOL     OW19375   7.965   8.391   6.083  0.2623 -0.0438 -0.2071
 5975SOL    HW119376   7.964   8.389   5.988 -1.3519 -0.5620 -0.2148
 5975SOL    HW219377   7.897   8.329   6.109  0.0618  0.7448  1.2655
 5976SOL     OW19378   7.540   2.695   5.427  0.4548  0.3771  0.3743
 5976SOL    HW119379   7.503   2.725   5.345  0.3513 -0.3087  0.1615
 5976SOL    HW219380   7.511   2.759   5.492 -0.6270  0.1747  0.1121
 5977SOL     OW19381   5.446   3.858   3.569 -0.8622  0.0296 -0.3163
 5977SOL    HW119382   5.490   3.779   3.602  0.5060  1.8778  2.6835
 5977SOL    HW219383   5.383   3.881   3.638 -1.4007  1.4362 -1.2465
 5978SOL     OW19384   5.247   8.721   2.418  0.3443  0.0621  0.0888
 5978SOL    HW119385   5.294   8.721   2.502  0.9787  0.7743 -0.2616
 5978SOL    HW219386   5.271   8.638   2.377 -1.4567 -1.1949  1.4108
 5979SOL     OW19387   6.894   8.984   4.904 -0.0399 -0.9177  0.0638
 5979SOL    HW119388   6.922   9.021   4.820  0.0269 -0.9188  0.0852
 5979SOL    HW219389   6.952   8.909   4.917  0.5150 -0.4108  0.5179
 5980SOL     OW19390   1.523   8.346   8.837  0.5370  0.1174 -0.3458
 5980SOL    HW119391   1.593   8.326   8.775 -0.2280  0.1527 -1.2424
 5980SOL    HW219392   1.473   8.417   8.795 -0.5047 -0.4455 -0.0908
 5981SOL     OW19393   1.575   4.174   6.531  0.1465 -0.6730 -0.3749
 5981SOL    HW119394   1.612   4.119   6.462 -0.6214 -0.2384 -1.1673
 5981SOL    HW219395   1.650   4.200   6.584  0.6962 -1.3740 -0.7858
 5982SOL     OW19396   0.962   6.415   8.016  0.0354  0.6985 -0.1109
 5982SOL    HW119397   1.006   6.497   7.993  0.9198  0.0530 -0.8166
 5982SOL    HW219398   1.025   6.368   8.070  1.4080 -1.3424 -3.1963
 5983SOL     OW19399   7.883   2.235   1.794  0.0769 -0.0067 -0.0901
 5983SOL    HW119400   7.871   2.327   1.770 -1.4903 -0.0015  0.5714
 5983SOL    HW219401   7.977   2.225   1.806  0.4711  1.0414 -1.9798
 5984SOL     OW19402   1.627   8.689   8.679  0.0681 -0.3529  0.3673
 5984SOL    HW119403   1.534   8.671   8.694  0.3186 -0.1208  2.5947
 5984SOL    HW219404   1.632   8.716   8.587 -2.1867  0.3192  0.3791
 5985SOL     OW19405   1.358   1.060   0.558 -0.0932  0.3273 -0.2039
 5985SOL    HW119406   1.407   1.089   0.482 -0.6649  2.2787  0.1060
 5985SOL    HW219407   1.339   0.968   0.542  0.1269  0.6024 -2.2267
 5986SOL     OW19408   4.544   3.358   1.977  0.1132  0.4193 -0.1323
 5986SOL    HW119409   4.480   3.429   1.980 -1.7009 -1.1579  0.8789
 5986SOL    HW219410   4.525   3.311   1.896  0.3560  0.2352 -0.0857
 5987SOL     OW19411   3.420   1.811   3.563 -0.2812  0.1299  0.0523
 5987SOL    HW119412   3.386   1.808   3.474 -0.3652 -0.5461  0.1013
 5987SOL    HW219413   3.375   1.740   3.608  0.3211 -0.0142  0.4382
 5988SOL     OW19414   5.181   2.374   7.115  0.0308 -0.0996 -0.0588
 5988SOL    HW119415   5.189   2.388   7.021  0.1534  0.4881  0.0371
 5988SOL    HW219416   5.267   2.397   7.150 -0.3358  0.7402  0.3207
 5989SOL     OW19417   0.867   3.863   3.572  0.4265 -0.3797  0.2981
 5989SOL    HW119418   0.958   3.842   3.554  0.4763  0.4013 -0.4396
 5989SOL    HW219419   0.871   3.948   3.617 -0.0022  0.5466 -1.3311
 5990SOL     OW19420   9.262   6.566   8.223 -0.9367 -0.6687  0.4366
 5990SOL    HW119421   9.337   6.506   8.226 -0.7831 -0.4528  2.1830
 5990SOL    HW219422   9.189   6.512   8.193  0.0290 -0.6961 -2.0954
 5991SOL     OW19423   3.220   1.925   6.558 -0.0247 -0.3091  0.5173
 5991SOL    HW119424   3.186   1.857   6.500 -0.0588  0.5320 -0.4642
 5991SOL    HW219425   3.169   2.003   6.537  0.0872  0.0618  1.5544
 5992SOL     OW19426   9.242   6.805   1.501  0.4421  0.1332 -0.0524
 5992SOL    HW119427   9.250   6.827   1.594 -0.5063  1.2102 -0.1944
 5992SOL    HW219428   9.226   6.889   1.458  1.4815 -0.2668 -1.2830
 5993SOL     OW19429   7.817   6.168   8.197  0.2909  0.0220 -0.0399
 5993SOL    HW119430   7.882   6.165   8.267 -0.6061 -1.3013  0.7828
 5993SOL    HW219431   7.744   6.115   8.229 -1.0504  1.1411 -1.0887
 5994SOL     OW19432   4.553   0.976   4.899  0.0739  0.0320  0.1390
 5994SOL    HW119433   4.559   0.881   4.909 -1.2400 -0.0050  0.7579
 5994SOL    HW219434   4.502   0.988   4.819  0.3877  0.2312 -0.0355
 5995SOL     OW19435   6.591   5.446   2.130 -0.2500 -0.2567  0.3499
 5995SOL    HW119436   6.542   5.509   2.076  0.2524 -1.8960 -2.1927
 5995SOL    HW219437   6.545   5.445   2.213 -0.9307  2.6245  0.1351
 5996SOL     OW19438   8.077   4.648   3.314 -0.0188 -0.2799  0.9666
 5996SOL    HW119439   8.170   4.664   3.301 -0.0887 -0.5002  0.1733
 5996SOL    HW219440   8.037   4.735   3.307  0.0754 -0.2467  0.8243
 5997SOL     OW19441   8.338   3.473   7.238 -0.2494  0.4115  0.9347
 5997SOL    HW119442   8.242   3.477   7.240 -0.2362  0.5795  1.4405
 5997SOL    HW219443   8.357   3.381   7.221 -0.4993  0.5934 -0.4712
 5998SOL     OW19444   1.960   0.391   5.738 -0.1042  0.1913  0.3274
 5998SOL    HW119445   2.019   0.464   5.755  1.6582 -1.1917  0.3686
 5998SOL    HW219446   2.006   0.337   5.674 -1.4662 -0.7902  0.1245
 5999SOL     OW19447   1.436   3.300   3.789 -0.4126 -0.3551 -0.5329
 5999SOL    HW119448   1.417   3.233   3.854  1.0601  0.1480  0.4667
 5999SOL    HW219449   1.373   3.285   3.719 -1.6795 -1.2529  0.7646
 6000SOL     OW19450   0.629   3.110   0.314 -0.0118  0.0423  0.1578
 6000SOL    HW119451   0.557   3.108   0.377 -1.4451 -0.7858 -1.4352
 6000SOL    HW219452   0.600   3.056   0.241  1.2802  1.4997 -1.5619
 6001SOL     OW19453   2.677   8.457   5.318  0.1437 -0.7407 -0.5794
 6001SOL    HW119454   2.667   8.477   5.411  1.7345  1.8733 -0.8948
 6001SOL    HW219455   2.740   8.385   5.316  1.0010 -0.0335  0.3412
 6002SOL     OW19456   5.831   0.021   3.140 -0.8084  0.1090 -0.2110
 6002SOL    HW119457   5.908   0.077   3.146  0.0445 -0.9221 -1.1772
 6002SOL    HW219458   5.820  -0.014   3.229 -3.2837  4.1219  1.3605
 6003SOL     OW19459   8.265   8.947   8.600  0.8936 -0.2109 -0.9253
 6003SOL    HW119460   8.203   8.955   8.528  1.5090 -1.4252 -1.6120
 6003SOL    HW219461   8.211   8.920   8.675  0.2326  1.1909 -0.8658
 6004SOL     OW19462   8.681   4.123   5.614 -0.3732  0.1155 -0.2687
 6004SOL    HW119463   8.696   4.185   5.543 -0.5394  1.2715  0.6710
 6004SOL    HW219464   8.650   4.044   5.571 -0.5988  0.8382 -1.4690
 6005SOL     OW19465   4.861   2.983   9.137 -0.2170  0.8417 -0.6945
 6005SOL    HW119466   4.892   3.072   9.155  0.5196  0.5048 -0.2820
 6005SOL    HW219467   4.888   2.932   9.213 -1.7280  0.5074 -0.3309
 6006SOL     OW19468   3.058   5.708   8.021 -0.1780 -0.0903  0.0275
 6006SOL    HW119469   2.990   5.726   8.086  0.5896  2.0452  0.3225
 6006SOL    HW219470   3.020   5.736   7.938  0.3787  1.3549  0.2296
 6007SOL     OW19471   4.497   5.961   8.835 -0.0039 -0.2464  0.5826
 6007SOL    HW119472   4.535   5.968   8.747 -0.9990  1.2170  0.2432
 6007SOL    HW219473   4.403   5.952   8.820 -0.5780  3.0529  1.4857
 6008SOL     OW19474   9.202   7.667   6.580 -0.0162 -0.5956 -0.0153
 6008SOL    HW119475   9.183   7.758   6.560  1.3649 -0.4960 -0.9769
 6008SOL    HW219476   9.271   7.642   6.519 -0.2618 -2.2504  0.3189
 6009SOL     OW19477   5.839   4.987   0.720  0.1744  0.1256  0.0983
 6009SOL    HW119478   5.857   4.915   0.660 -0.6545  0.3026 -0.3771
 6009SOL    HW219479   5.743   4.997   0.719  0.2464  1.0263  0.3932
 6010SOL     OW19480   6.164   3.090   0.971  0.1390  0.5906  0.3699
 6010SOL    HW119481   6.097   3.097   0.903  0.3659  2.0959  0.2594
 6010SOL    HW219482   6.120   3.047   1.044 -0.5005  0.1912 -0.2355
 6011SOL     OW19483   8.688   5.517   5.741  0.0182 -0.4864 -0.9246
 6011SOL    HW119484   8.755   5.449   5.733  0.0302 -0.7524  0.9767
 6011SOL    HW219485   8.611   5.479   5.697 -0.2180 -2.1303  0.7547
 6012SOL     OW19486   3.182   8.852   6.403  0.4877 -0.2343 -0.1492
 6012SOL    HW119487   3.192   8.790   6.475 -1.9663 -0.9857 -0.3913
 6012SOL    HW219488   3.147   8.931   6.443 -0.0314 -0.3396 -0.3949
 6013SOL     OW19489   7.690   4.721   3.454 -0.2320 -0.1069 -0.4238
 6013SOL    HW119490   7.755   4.765   3.508  0.2526 -0.6403 -0.5658
 6013SOL    HW219491   7.731   4.715   3.367  1.2077 -3.8613  0.3158
 6014SOL     OW19492   2.883   9.159   0.220 -0.0854 -0.1668  0.3452
 6014SOL    HW119493   2.844   9.240   0.189  1.6580  0.6127  0.0594
 6014SOL    HW219494   2.842   9.091   0.167 -1.8743  0.4517  0.8738
 6015SOL     OW19495   2.795   7.151   5.786 -0.7483 -0.4476 -0.3196
 6015SOL    HW119496   2.730   7.108   5.840 -1.4342 -1.1405 -1.6485
 6015SOL    HW219497   2.760   7.239   5.772 -0.7115 -0.3633  0.1020
 6016SOL     OW19498   3.541   0.997   3.263 -0.1410  1.0497 -0.0308
 6016SOL    HW119499   3.512   0.968   3.176  1.2808 -2.4636  0.5266
 6016SOL    HW219500   3.469   0.974   3.321  0.4669 -0.2665  0.2287
 6017SOL     OW19501   5.934   0.927   1.920 -0.0045 -0.7037 -0.7249
 6017SOL    HW119502   6.013   0.980   1.908  0.5398 -1.0248  1.0796
 6017SOL    HW219503   5.866   0.991   1.940  0.9420 -0.5653  2.8959
 6018SOL     OW19504   0.810   2.621   8.020 -0.4733 -0.0187 -0.3392
 6018SOL    HW119505   0.746   2.647   7.954 -0.0728  1.0065 -0.3477
 6018SOL    HW219506   0.889   2.670   7.997 -0.4694  0.7174  1.1617
 6019SOL     OW19507   3.649   0.735   0.689  0.8419  0.0161 -0.1008
 6019SOL    HW119508   3.577   0.722   0.751 -0.9555  0.1476 -2.0479
 6019SOL    HW219509   3.647   0.829   0.669  2.0734  0.1654  0.3706
 6020SOL     OW19510   2.038   7.553   7.747  0.0512  0.0568 -0.7580
 6020SOL    HW119511   2.023   7.634   7.698 -1.6946  1.1022  1.3330
 6020SOL    HW219512   2.129   7.559   7.776  0.4719  0.3992 -2.0785
 6021SOL     OW19513   7.944   4.673   4.712 -0.6294 -0.3015 -0.3778
 6021SOL    HW119514   8.036   4.662   4.689 -0.2565  2.3737 -0.4939
 6021SOL    HW219515   7.898   4.679   4.628 -0.4406  1.3373 -0.3913
 6022SOL     OW19516   6.529   0.933   3.247 -0.6301 -0.6666 -0.4402
 6022SOL    HW119517   6.606   0.896   3.203  0.0015 -0.3284  0.3501
 6022SOL    HW219518   6.486   0.986   3.180  1.2593  1.2431 -0.2596
 6023SOL     OW19519   1.499   1.833   4.073  0.3730  0.4472  0.3948
 6023SOL    HW119520   1.518   1.812   4.165 -1.2379 -0.1895  0.6163
 6023SOL    HW219521   1.459   1.753   4.038 -0.5227  1.2173 -0.4011
 6024SOL     OW19522   5.349   1.390   0.953  0.4993  0.3395 -0.2714
 6024SOL    HW119523   5.380   1.408   0.864  0.0839 -2.3275 -1.0475
 6024SOL    HW219524   5.417   1.336   0.992 -1.2561 -2.2814 -0.6145
 6025SOL     OW19525   4.170   2.312   8.424  0.2434 -0.2332  0.3415
 6025SOL    HW119526   4.196   2.220   8.421  0.7795 -0.1265  1.4607
 6025SOL    HW219527   4.081   2.313   8.389  1.0793 -0.8274 -1.9571
 6026SOL     OW19528   5.631   2.042   1.540  0.3197  0.4864  1.1196
 6026SOL    HW119529   5.716   1.998   1.548 -0.2196 -0.8549 -0.0251
 6026SOL    HW219530   5.571   1.972   1.513 -0.4648  2.0397 -1.4704
 6027SOL     OW19531   7.357   4.752   2.698 -0.4345  0.1118  0.5633
 6027SOL    HW119532   7.360   4.683   2.764 -0.3092  0.6152  1.0916
 6027SOL    HW219533   7.367   4.833   2.747 -0.0007  0.4806 -0.1056
 6028SOL     OW19534   4.053   6.511   2.359  0.2729 -0.0527  0.6146
 6028SOL    HW119535   4.087   6.533   2.273  0.8658 -0.8995  0.6224
 6028SOL    HW219536   4.130   6.485   2.410  0.3397  2.6881  2.1774
 6029SOL     OW19537   2.331   4.808   2.041  0.2857 -0.2795  0.2810
 6029SOL    HW119538   2.337   4.736   1.978  1.0999  0.3901 -0.4324
 6029SOL    HW219539   2.245   4.847   2.024 -0.0251 -0.8676  0.4524
 6030SOL     OW19540   6.834   6.529   3.279  0.0371 -0.2267 -0.4319
 6030SOL    HW119541   6.827   6.490   3.192 -1.0406 -0.1208 -0.4089
 6030SOL    HW219542   6.762   6.489   3.329  0.8679 -0.5713  0.5227
 6031SOL     OW19543   0.637   5.794   3.767 -0.0215  0.1251  0.3171
 6031SOL    HW119544   0.702   5.724   3.762 -0.8383 -0.5402 -2.0015
 6031SOL    HW219545   0.558   5.752   3.802 -0.5331 -0.1846 -1.1404
 6032SOL     OW19546   5.102   0.254   2.756  0.9657 -0.5239 -0.0214
 6032SOL    HW119547   5.117   0.160   2.758  1.3384 -0.5439 -2.0547
 6032SOL    HW219548   5.024   0.267   2.811  0.9964 -1.9729  0.4074
 6033SOL     OW19549   5.755   9.265   7.763  0.3527 -0.5543 -0.2613
 6033SOL    HW119550   5.844   9.252   7.795  0.4541  1.4714  0.4666
 6033SOL    HW219551   5.763   9.338   7.700 -1.0094  0.9611  1.2292
 6034SOL     OW19552   5.502   5.582   5.788  0.1995  0.6497  0.5133
 6034SOL    HW119553   5.489   5.490   5.813 -0.2030  0.1965 -1.2193
 6034SOL    HW219554   5.592   5.585   5.756 -0.4490  0.3212 -1.4612
 6035SOL     OW19555   1.225   4.728   8.018  0.7579  0.5338  0.2864
 6035SOL    HW119556   1.170   4.757   7.944  1.0915 -2.8143 -1.4687
 6035SOL    HW219557   1.314   4.754   7.993  0.6730  1.0023  0.4435
 6036SOL     OW19558   1.141   6.857   3.186 -0.1400 -0.4351  0.0391
 6036SOL    HW119559   1.054   6.821   3.166  0.7942 -1.1505 -3.3764
 6036SOL    HW219560   1.201   6.785   3.171  1.2502  0.7126 -0.0727
 6037SOL     OW19561   6.372   3.188   5.713  0.1921 -0.1340  0.3432
 6037SOL    HW119562   6.426   3.228   5.781 -0.1786  0.0552  0.5256
 6037SOL    HW219563   6.430   3.123   5.673  0.4580 -0.1481  0.7396
 6038SOL     OW19564   2.250   2.261   8.769 -0.2210  0.3182 -0.0300
 6038SOL    HW119565   2.282   2.171   8.760  1.1945  0.7342  0.5221
 6038SOL    HW219566   2.164   2.252   8.808 -0.2562 -0.8118 -0.3307
 6039SOL     OW19567   0.200   4.394   4.622  0.3928 -0.8763 -0.2115
 6039SOL    HW119568   0.222   4.388   4.528  0.8130 -1.2391 -0.0977
 6039SOL    HW219569   0.263   4.335   4.664  0.4915 -0.3776  0.3473
 6040SOL     OW19570   3.800   8.315   7.707 -0.3660 -0.4013  0.3469
 6040SOL    HW119571   3.749   8.260   7.766 -0.0305 -0.6800  0.3796
 6040SOL    HW219572   3.867   8.256   7.671 -1.2474 -0.5351 -1.1801
 6041SOL     OW19573   8.762   9.195   8.908  0.3203 -0.2413 -0.2194
 6041SOL    HW119574   8.741   9.136   8.835  0.5247 -1.6984  0.8409
 6041SOL    HW219575   8.838   9.245   8.877  1.3711 -1.8962 -0.5124
 6042SOL     OW19576   6.955   3.009   7.968 -0.2648 -0.1400  0.0829
 6042SOL    HW119577   6.950   2.922   7.928  1.3116  0.7793 -2.3110
 6042SOL    HW219578   6.864   3.035   7.980 -0.8037 -0.9488 -1.9090
 6043SOL     OW19579   4.173   1.357   7.552  0.1386  0.1988 -0.4307
 6043SOL    HW119580   4.136   1.271   7.534  2.9482 -0.8251 -1.9053
 6043SOL    HW219581   4.127   1.387   7.631 -2.9375 -1.3109 -1.4821
 6044SOL     OW19582   3.796   8.332   7.079  0.0307 -1.0453  0.0130
 6044SOL    HW119583   3.825   8.413   7.122 -0.7995 -0.2540 -0.8919
 6044SOL    HW219584   3.750   8.284   7.148 -0.1275 -0.4041  0.3636
 6045SOL     OW19585   9.246   3.675   7.320 -0.8531 -0.3489 -0.0477
 6045SOL    HW119586   9.157   3.666   7.285 -0.9184  0.3283 -0.0753
 6045SOL    HW219587   9.272   3.764   7.295 -0.2770 -0.4457  0.2051
 6046SOL     OW19588   0.856   2.567   4.890  0.2725 -0.3029 -0.0114
 6046SOL    HW119589   0.846   2.568   4.795  0.6338 -0.9525 -0.0549
 6046SOL    HW219590   0.820   2.652   4.918 -0.8772 -0.5716 -0.6149
 6047SOL     OW19591   4.942   6.523   5.558 -0.0096  1.0717  0.6687
 6047SOL    HW119592   4.860   6.490   5.520  0.9907 -2.0369  0.9290
 6047SOL    HW219593   4.917   6.551   5.646 -0.8898  0.6859  0.5586
 6048SOL     OW19594   5.694   7.850   0.044 -0.0488 -0.0831  0.2362
 6048SOL    HW119595   5.761   7.917   0.059 -0.3085  0.0041  1.0224
 6048SOL    HW219596   5.721   7.776   0.097 -1.6483  0.6892  2.2526
 6049SOL     OW19597   4.252   3.883   7.526  0.1491 -0.1951  0.1119
 6049SOL    HW119598   4.260   3.810   7.464 -0.9723 -0.5194  0.3322
 6049SOL    HW219599   4.312   3.860   7.597 -0.0881 -0.8459  0.1128
 6050SOL     OW19600   2.707   8.355   4.229 -0.1472 -0.5043 -0.3458
 6050SOL    HW119601   2.678   8.424   4.289 -0.0421 -2.0221  1.5598
 6050SOL    HW219602   2.765   8.301   4.281 -0.6247 -2.3357 -1.6045
 6051SOL     OW19603   1.137   7.819   3.958  0.4537 -0.0696  0.1994
 6051SOL    HW119604   1.079   7.892   3.938  2.5984  1.5811 -0.3532
 6051SOL    HW219605   1.126   7.806   4.052 -1.0248 -0.0494  0.0640
 6052SOL     OW19606   3.247   8.487   7.527  0.8207  0.2272 -0.1368
 6052SOL    HW119607   3.264   8.395   7.507 -1.2323  0.1529 -1.8771
 6052SOL    HW219608   3.216   8.486   7.617  0.3014 -0.8821 -0.3048
 6053SOL     OW19609   1.963   8.173   0.324  0.4653  0.4475  0.0755
 6053SOL    HW119610   1.982   8.224   0.403 -0.6264  0.5759  0.2748
 6053SOL    HW219611   1.999   8.086   0.343  0.0283  0.4167  0.8187
 6054SOL     OW19612   2.120   0.784   6.636 -0.2181 -0.8702  0.0808
 6054SOL    HW119613   2.072   0.719   6.583 -1.7618  0.1496  0.1603
 6054SOL    HW219614   2.077   0.782   6.721 -0.4406  0.4105  0.0113
 6055SOL     OW19615   7.329   0.791   9.146 -0.1095 -0.0022 -0.1646
 6055SOL    HW119616   7.270   0.848   9.097  0.9340  0.8015 -0.5107
 6055SOL    HW219617   7.336   0.712   9.092 -0.5037  0.0748 -0.3330
 6056SOL     OW19618   1.576   3.468   4.384 -0.6225  0.8066 -0.3524
 6056SOL    HW119619   1.624   3.550   4.373 -0.5674  0.6023 -1.7980
 6056SOL    HW219620   1.643   3.400   4.381 -0.6989  0.6850  0.5535
 6057SOL     OW19621   6.763   7.568   2.233 -0.0741  0.5462  0.1134
 6057SOL    HW119622   6.813   7.492   2.265  1.6211  1.2098 -0.7959
 6057SOL    HW219623   6.771   7.633   2.304  0.4230  0.6588 -0.0366
 6058SOL     OW19624   7.517   5.320   5.091  0.5946  0.6849  0.3457
 6058SOL    HW119625   7.558   5.338   5.006  1.0420  0.7753  0.5774
 6058SOL    HW219626   7.556   5.237   5.119  0.9064  0.9649  0.7445
 6059SOL     OW19627   1.697   5.786   5.864  0.1604  0.0137 -0.5911
 6059SOL    HW119628   1.769   5.736   5.825  1.4260  0.7469  0.6725
 6059SOL    HW219629   1.738   5.869   5.890 -0.8125 -0.0689  1.3786
 6060SOL     OW19630   1.173   1.253   3.139  0.3753 -0.0903  0.0014
 6060SOL    HW119631   1.101   1.190   3.135 -0.2165  0.4621  1.5311
 6060SOL    HW219632   1.251   1.201   3.120 -0.2848 -0.9387 -0.4617
 6061SOL     OW19633   2.073   8.464   1.139  0.2368 -0.4878 -0.1966
 6061SOL    HW119634   2.118   8.510   1.068  0.3788  0.3062  0.3925
 6061SOL    HW219635   2.125   8.384   1.152  1.4481  0.3574  0.3894
 6062SOL     OW19636   2.417   3.976   5.612  0.3211  0.3658  0.2230
 6062SOL    HW119637   2.366   4.004   5.688 -1.4651  0.5965 -0.9816
 6062SOL    HW219638   2.421   4.054   5.556 -0.1540 -0.3404 -0.8128
 6063SOL     OW19639   1.955   1.813   7.078 -0.2407 -0.2549  0.1879
 6063SOL    HW119640   1.887   1.851   7.023 -1.8724 -1.7337  1.0878
 6063SOL    HW219641   1.951   1.719   7.061  0.7104 -0.5092  1.2188
 6064SOL     OW19642   3.921   1.005   6.720 -0.2794 -0.7306  0.6443
 6064SOL    HW119643   3.999   0.954   6.742 -0.6827 -1.5130  0.2997
 6064SOL    HW219644   3.849   0.943   6.732 -0.7472 -0.3341 -0.0972
 6065SOL     OW19645   2.214   5.365   3.569 -0.1362 -0.3498 -0.2436
 6065SOL    HW119646   2.130   5.387   3.609 -1.0674  0.2225 -2.3482
 6065SOL    HW219647   2.240   5.283   3.612 -0.9129  0.3222  1.6266
 6066SOL     OW19648   3.106   7.088   2.378 -0.5261  0.0566  0.3832
 6066SOL    HW119649   3.044   7.033   2.426 -0.4770 -0.0057  0.3741
 6066SOL    HW219650   3.115   7.167   2.432  1.2263 -0.9123  1.6050
 6067SOL     OW19651   2.251   0.621   0.866 -0.6282 -0.4643  0.6077
 6067SOL    HW119652   2.171   0.601   0.816  0.4697 -2.0914 -0.5907
 6067SOL    HW219653   2.280   0.706   0.832 -1.2546 -0.3763  0.2747
 6068SOL     OW19654   7.637   8.347   6.771  0.0609  0.1307  0.1562
 6068SOL    HW119655   7.711   8.401   6.741  0.0853  0.9380  1.5554
 6068SOL    HW219656   7.587   8.406   6.828 -1.0946 -0.7243  0.0509
 6069SOL     OW19657   4.407   4.457   7.716 -0.0485  0.3371  0.7440
 6069SOL    HW119658   4.359   4.387   7.760  0.1289 -1.0695 -1.1671
 6069SOL    HW219659   4.493   4.420   7.699  0.3445  1.3431  0.4650
 6070SOL     OW19660   3.578   4.937   6.147  0.2745 -0.3054 -0.2947
 6070SOL    HW119661   3.575   4.882   6.225  0.5662 -1.4694 -1.0767
 6070SOL    HW219662   3.555   5.024   6.178 -0.9421 -0.9996  0.8660
 6071SOL     OW19663   8.767   5.107   6.029 -0.6249  0.3536 -0.3045
 6071SOL    HW119664   8.754   5.196   5.997 -1.4945 -0.4013 -2.1872
 6071SOL    HW219665   8.862   5.099   6.039 -0.4833  1.2415 -0.8471
 6072SOL     OW19666   1.647   2.436   5.828 -0.0241  0.0094  0.3793
 6072SOL    HW119667   1.594   2.447   5.749  0.2762  1.5272  0.3522
 6072SOL    HW219668   1.591   2.469   5.898  0.6410  1.1120  0.4241
 6073SOL     OW19669   8.420   3.010   7.678 -0.1709 -0.5409  0.0874
 6073SOL    HW119670   8.465   3.039   7.599  0.5605 -1.7873  0.0181
 6073SOL    HW219671   8.470   3.048   7.750  0.9775 -1.7986  0.0057
 6074SOL     OW19672   7.200   8.915   6.790 -0.0841  0.2219  0.3897
 6074SOL    HW119673   7.219   8.829   6.827 -1.3604 -0.3372 -0.2198
 6074SOL    HW219674   7.105   8.925   6.799 -0.2018  0.7683 -1.2612
 6075SOL     OW19675   6.446   2.660   7.460 -0.2559  0.0894  0.0556
 6075SOL    HW119676   6.402   2.711   7.528  1.3919  1.3505  0.2645
 6075SOL    HW219677   6.482   2.584   7.506 -0.1197  0.3454  0.3773
 6076SOL     OW19678   2.240   5.645   7.386 -0.6777  0.8569 -0.0021
 6076SOL    HW119679   2.164   5.592   7.408  0.2506  0.3154  2.2004
 6076SOL    HW219680   2.303   5.584   7.349 -1.2884  1.3304 -1.9692
 6077SOL     OW19681   6.785   9.160   0.646 -0.4211 -0.3522  0.4052
 6077SOL    HW119682   6.843   9.236   0.645 -0.4266 -0.3517  0.1673
 6077SOL    HW219683   6.700   9.194   0.617 -0.2340 -0.6005 -0.4596
 6078SOL     OW19684   2.174   3.753   1.426  0.0779 -0.6552  0.5003
 6078SOL    HW119685   2.092   3.801   1.430 -0.8925 -2.2960  1.6861
 6078SOL    HW219686   2.164   3.691   1.354  0.9594  0.2558 -0.4353
 6079SOL     OW19687   8.395   4.254   7.121  0.4765 -0.2984 -0.1931
 6079SOL    HW119688   8.426   4.199   7.193  1.5052 -0.5582 -0.8145
 6079SOL    HW219689   8.462   4.244   7.053  0.2810  1.1000 -0.6163
 6080SOL     OW19690   0.710   2.574   3.247 -0.3026 -0.3342 -0.4317
 6080SOL    HW119691   0.637   2.554   3.306 -0.1755  1.0421  0.2209
 6080SOL    HW219692   0.759   2.491   3.242 -1.2503 -0.9460  0.0418
 6081SOL     OW19693   0.409   1.973   6.593 -0.2030  0.5748  0.7771
 6081SOL    HW119694   0.370   1.931   6.670 -0.1544 -0.5928  0.1853
 6081SOL    HW219695   0.494   1.929   6.583 -0.8652 -0.3993 -0.8453
 6082SOL     OW19696   7.394   1.621   1.067  0.0145  0.5927  0.1681
 6082SOL    HW119697   7.341   1.614   1.146 -1.8006  0.0619 -1.0502
 6082SOL    HW219698   7.451   1.543   1.070  2.3485  2.2048  2.5116
 6083SOL     OW19699   8.390   7.953   5.975 -0.1850  0.1672  0.3639
 6083SOL    HW119700   8.397   7.890   5.903  0.2952  0.4278  0.1719
 6083SOL    HW219701   8.471   7.940   6.025 -0.5293 -0.0289  0.8720
 6084SOL     OW19702   2.555   2.613   8.746  0.1225  0.4546 -0.2269
 6084SOL    HW119703   2.616   2.550   8.784  0.8140  0.7928 -0.7614
 6084SOL    HW219704   2.602   2.696   8.745 -1.1162  1.2513  1.3755
 6085SOL     OW19705   6.626   7.624   6.232 -0.0370  0.2105  0.2975
 6085SOL    HW119706   6.536   7.627   6.198 -1.0681 -1.9600  2.5180
 6085SOL    HW219707   6.625   7.684   6.306  0.4581  0.3678  0.1793
 6086SOL     OW19708   6.729   8.051   4.717 -0.1770  0.4463 -0.7269
 6086SOL    HW119709   6.634   8.045   4.728 -0.5043  3.0642 -1.4854
 6086SOL    HW219710   6.742   8.123   4.656  2.3155 -0.1363 -1.0154
 6087SOL     OW19711   5.189   0.553   2.994  0.2336 -0.5683  0.2341
 6087SOL    HW119712   5.100   0.519   3.008 -0.7923  0.3428 -3.0919
 6087SOL    HW219713   5.176   0.638   2.952  2.6769 -0.4702 -0.4604
 6088SOL     OW19714   4.018   3.486   3.283 -0.1662 -0.3972  0.1605
 6088SOL    HW119715   4.080   3.557   3.300  0.2460 -0.9312  1.0127
 6088SOL    HW219716   4.071   3.418   3.240 -0.0287 -1.0403  1.3025
 6089SOL     OW19717   7.521   2.140   5.970  0.5662 -0.3952 -0.1266
 6089SOL    HW119718   7.446   2.124   6.028 -0.4108  2.3598 -0.4650
 6089SOL    HW219719   7.481   2.162   5.886  1.6894  1.6732 -0.1637
 6090SOL     OW19720   3.096   0.179   3.181  0.0058 -0.6397 -0.5350
 6090SOL    HW119721   3.075   0.229   3.260 -0.2264  0.5063 -1.2849
 6090SOL    HW219722   3.012   0.170   3.135  0.4674  0.6182 -1.6871
 6091SOL     OW19723   6.847   3.734   3.273 -0.0738 -0.1412  0.0462
 6091SOL    HW119724   6.752   3.734   3.284  0.0097  1.9568  1.2717
 6091SOL    HW219725   6.860   3.730   3.178 -1.4428  0.7861 -0.2133
 6092SOL     OW19726   6.657   8.846   1.006 -0.2666 -0.2528  0.1114
 6092SOL    HW119727   6.684   8.795   1.083  0.4060 -1.2838 -0.7920
 6092SOL    HW219728   6.594   8.909   1.041 -0.4490 -1.1078  1.4074
 6093SOL     OW19729   7.124   3.701   7.761  0.0164 -0.0343 -0.2223
 6093SOL    HW119730   7.151   3.714   7.852 -1.0845  1.1818 -0.0415
 6093SOL    HW219731   7.145   3.610   7.743 -0.5697 -0.5610  1.5413
 6094SOL     OW19732   6.944   9.018   2.486 -0.5700  0.3246 -0.0924
 6094SOL    HW119733   6.966   9.033   2.394  0.6218 -0.5445  0.0266
 6094SOL    HW219734   6.893   8.936   2.485  1.5012 -1.0537  0.2035
 6095SOL     OW19735   6.612   3.553   0.736  0.1289 -0.2668 -0.0400
 6095SOL    HW119736   6.634   3.646   0.733  1.2946 -0.3780  2.3621
 6095SOL    HW219737   6.697   3.509   0.740 -0.4240 -1.4009 -0.4470
 6096SOL     OW19738   7.415   5.396   7.767 -0.0775 -0.3967 -0.6440
 6096SOL    HW119739   7.413   5.455   7.691  1.1089  0.2456 -0.2031
 6096SOL    HW219740   7.495   5.345   7.756 -0.8797 -1.6628 -0.7978
 6097SOL     OW19741   1.235   0.042   6.010  0.2477 -0.0322  0.3779
 6097SOL    HW119742   1.301   0.054   5.942  0.6994  0.1327  0.8472
 6097SOL    HW219743   1.152   0.035   5.961  0.4953  0.6617 -0.1582
 6098SOL     OW19744   3.063   1.245   0.737 -0.2856 -0.2072  0.2595
 6098SOL    HW119745   3.049   1.336   0.710 -1.5399 -0.6537 -0.7315
 6098SOL    HW219746   3.091   1.251   0.828  2.1744  1.2973 -0.4946
 6099SOL     OW19747   1.707   1.809   6.605 -0.6189 -0.0983 -0.2860
 6099SOL    HW119748   1.757   1.887   6.581  0.9386 -1.2000 -0.7757
 6099SOL    HW219749   1.626   1.816   6.554 -0.0716  0.7104 -1.0734
 6100SOL     OW19750   0.730   2.340   7.986 -0.0258 -0.5824 -0.5070
 6100SOL    HW119751   0.744   2.433   8.000 -0.6910 -0.3478 -1.3281
 6100SOL    HW219752   0.783   2.319   7.909  1.8656 -1.3795  0.9387
 6101SOL     OW19753   3.166   2.700   3.176 -0.4456  0.5564 -0.0131
 6101SOL    HW119754   3.203   2.671   3.092  0.6479 -1.7137  1.1633
 6101SOL    HW219755   3.242   2.721   3.230 -1.0852  0.5856  0.8994
 6102SOL     OW19756   7.866   1.679   2.325 -0.6482  0.7127  0.3150
 6102SOL    HW119757   7.917   1.751   2.360 -0.1213  0.7486 -0.4822
 6102SOL    HW219758   7.848   1.704   2.234  0.1446 -0.4441 -0.1949
 6103SOL     OW19759   0.931   3.199   5.659  0.0900  0.6660 -0.6387
 6103SOL    HW119760   0.927   3.264   5.730  0.5916  0.1691 -0.1400
 6103SOL    HW219761   0.878   3.236   5.589 -0.4516  1.1563  0.0149
 6104SOL     OW19762   7.347   0.122   5.720  0.0602  0.2807 -0.6768
 6104SOL    HW119763   7.269   0.066   5.722  1.4156 -1.9117 -2.8624
 6104SOL    HW219764   7.414   0.070   5.763  1.0939  0.6679 -1.7713
 6105SOL     OW19765   4.061   4.628   3.673  0.4354 -0.2064  0.2368
 6105SOL    HW119766   4.143   4.584   3.697 -0.3297 -0.7187  2.0440
 6105SOL    HW219767   4.028   4.578   3.599  1.6081 -0.1656 -0.3380
 6106SOL     OW19768   1.438   2.864   4.343 -0.4378  0.1064  0.5618
 6106SOL    HW119769   1.455   2.943   4.292 -0.1175  0.3912  1.1042
 6106SOL    HW219770   1.524   2.835   4.372 -0.3102 -1.5550 -1.2341
 6107SOL     OW19771   8.989   7.434   3.258  0.4784 -0.3414  0.1090
 6107SOL    HW119772   9.043   7.470   3.188 -1.3684  1.8992 -0.2753
 6107SOL    HW219773   8.933   7.370   3.215 -0.3812  0.7455 -0.4150
 6108SOL     OW19774   8.892   9.204   0.931  0.2734  0.2219  0.3606
 6108SOL    HW119775   8.898   9.253   0.848 -1.0895 -1.8199 -1.0279
 6108SOL    HW219776   8.812   9.153   0.923  1.0123 -1.3462  2.2317
 6109SOL     OW19777   7.724   1.449   1.603 -0.0183 -0.4501  0.4728
 6109SOL    HW119778   7.762   1.436   1.515 -0.6489  1.2942 -0.1043
 6109SOL    HW219779   7.701   1.360   1.632 -0.3398 -1.0399 -1.3837
 6110SOL     OW19780   8.489   2.379   5.296 -0.4116  0.1141  0.6096
 6110SOL    HW119781   8.541   2.316   5.246  0.6871  1.0332  0.5499
 6110SOL    HW219782   8.425   2.412   5.233  0.6496  0.9045 -0.1103
 6111SOL     OW19783   4.697   7.078   6.015  0.1804 -0.3610 -0.5545
 6111SOL    HW119784   4.760   7.015   5.980 -0.5349 -0.6661 -1.3335
 6111SOL    HW219785   4.675   7.133   5.940  0.2401  0.3622 -0.0542
 6112SOL     OW19786   7.560   8.056   4.576  0.0136  0.8984 -0.0253
 6112SOL    HW119787   7.611   8.063   4.495  0.2176 -2.0410 -0.2657
 6112SOL    HW219788   7.617   8.009   4.636 -1.3783  0.0005  0.6435
 6113SOL     OW19789   2.470   7.897   5.612  0.1553 -0.0119 -0.1400
 6113SOL    HW119790   2.564   7.879   5.609  0.1900  0.2699 -1.4865
 6113SOL    HW219791   2.455   7.958   5.540 -0.7054  1.7345  1.4206
 6114SOL     OW19792   1.290   8.157   4.685 -0.3912 -0.3516  0.1523
 6114SOL    HW119793   1.239   8.235   4.665 -0.1751 -0.5335 -1.1872
 6114SOL    HW219794   1.228   8.084   4.674 -0.8802 -0.3520  2.4111
 6115SOL     OW19795   7.715   1.916   9.022 -0.2490 -0.0698  0.2797
 6115SOL    HW119796   7.751   1.967   9.094  2.4748 -0.1519 -0.9353
 6115SOL    HW219797   7.718   1.975   8.947  2.2535 -1.6409 -0.9762
 6116SOL     OW19798   7.894   7.943   2.293  0.0314 -0.0635 -0.4165
 6116SOL    HW119799   7.968   7.953   2.233  1.2194 -0.6219  0.8995
 6116SOL    HW219800   7.880   7.848   2.299 -0.0814 -0.0168  0.1629
 6117SOL     OW19801   8.014   5.599   5.309 -0.3472 -0.6195 -0.3193
 6117SOL    HW119802   8.020   5.643   5.224 -2.4051 -1.1405 -0.7941
 6117SOL    HW219803   8.009   5.506   5.287  2.0446 -1.0535  0.5820
 6118SOL     OW19804   5.058   5.347   1.002 -0.3837 -0.4649  0.0902
 6118SOL    HW119805   4.997   5.414   0.971 -0.2513 -0.5112 -0.2809
 6118SOL    HW219806   5.097   5.384   1.081  0.3399  0.2816 -0.5936
 6119SOL     OW19807   5.213   9.101   2.023  0.2214 -0.0281 -0.9445
 6119SOL    HW119808   5.179   9.096   1.934 -1.3825 -0.0269 -0.3588
 6119SOL    HW219809   5.146   9.060   2.077  1.4625 -0.6094  0.2040
 6120SOL     OW19810   8.058   9.074   7.239  0.3339  0.0223  0.2278
 6120SOL    HW119811   7.973   9.112   7.219  0.3811 -0.3345 -0.7076
 6120SOL    HW219812   8.040   9.006   7.304 -0.3713 -1.2578 -1.2375
 6121SOL     OW19813   2.680   1.412   6.606  0.0588  0.5399 -0.4245
 6121SOL    HW119814   2.692   1.351   6.533  0.6956 -0.5498  0.5717
 6121SOL    HW219815   2.668   1.357   6.683  1.2607  1.6491  0.6126
 6122SOL     OW19816   9.119   6.407   8.056  0.1637 -0.5889  0.1365
 6122SOL    HW119817   9.136   6.323   8.098 -0.7067 -1.6921 -1.5976
 6122SOL    HW219818   9.175   6.407   7.978  1.2918  1.1351  0.8854
 6123SOL     OW19819   1.950   1.756   7.349  0.2946 -0.1806  0.4464
 6123SOL    HW119820   1.955   1.793   7.260  0.7166 -0.3802  0.3858
 6123SOL    HW219821   1.868   1.790   7.384  0.3392  0.2564  0.1378
 6124SOL     OW19822   5.822   2.450   1.087 -0.2506  0.1467 -0.7609
 6124SOL    HW119823   5.780   2.374   1.048  1.5769 -0.9815 -0.6339
 6124SOL    HW219824   5.912   2.448   1.053  0.4547  0.9929  0.9469
 6125SOL     OW19825   5.612   5.545   1.948  0.0990 -0.3668  0.3670
 6125SOL    HW119826   5.576   5.580   2.030 -0.5628 -0.5232  0.1490
 6125SOL    HW219827   5.581   5.607   1.882  1.8046  0.5568  0.3928
 6126SOL     OW19828   7.723   0.157   0.506  0.2826 -0.0175  0.2783
 6126SOL    HW119829   7.664   0.221   0.467 -0.3225 -0.8160 -0.1420
 6126SOL    HW219830   7.790   0.143   0.439 -0.7072 -1.3217 -0.4944
 6127SOL     OW19831   2.174   0.572   0.156 -0.2834 -0.5742 -0.2303
 6127SOL    HW119832   2.267   0.549   0.160  0.0282  0.7524  1.5303
 6127SOL    HW219833   2.153   0.573   0.063  1.5300 -0.6720 -0.6803
 6128SOL     OW19834   4.177   3.182   3.547 -0.1769  0.4514  0.6133
 6128SOL    HW119835   4.192   3.177   3.453  0.0797 -2.1599  0.7138
 6128SOL    HW219836   4.087   3.215   3.556 -1.2137 -1.8314 -0.6913
 6129SOL     OW19837   4.588   7.844   1.786 -0.0082  0.3909 -0.1705
 6129SOL    HW119838   4.507   7.893   1.795 -0.7527 -0.9625  0.8312
 6129SOL    HW219839   4.567   7.774   1.724  0.2136 -0.3081  0.5315
 6130SOL     OW19840   0.809   4.573   1.787  0.2744 -0.0844  0.4173
 6130SOL    HW119841   0.777   4.486   1.809  0.5316  0.1389  1.7601
 6130SOL    HW219842   0.905   4.564   1.788  0.3041 -0.1260 -0.9441
 6131SOL     OW19843   7.368   1.356   7.284 -0.0813  0.5707  0.0825
 6131SOL    HW119844   7.435   1.337   7.350 -0.1149 -2.0878 -0.5466
 6131SOL    HW219845   7.287   1.364   7.334  0.3607  1.8610  0.6430
 6132SOL     OW19846   6.137   7.462   7.163 -0.0449 -0.0043  0.6380
 6132SOL    HW119847   6.177   7.451   7.077  0.7277  2.2066  0.6669
 6132SOL    HW219848   6.046   7.435   7.151 -0.0218  0.5313 -0.9538
 6133SOL     OW19849   6.984   2.489   2.436 -0.0238  0.3667 -0.1582
 6133SOL    HW119850   7.035   2.537   2.502  1.5166  0.3268 -1.2509
 6133SOL    HW219851   6.987   2.545   2.358  0.0464 -0.5568 -0.8377
 6134SOL     OW19852   8.681   7.230   4.142  0.0028  0.6415  0.2084
 6134SOL    HW119853   8.766   7.273   4.136  0.3271 -0.0717 -0.5310
 6134SOL    HW219854   8.695   7.154   4.198  0.0702  0.0690 -0.5581
 6135SOL     OW19855   6.218   8.335   1.938 -0.3520  0.0615  0.6939
 6135SOL    HW119856   6.140   8.378   1.971 -0.4543  0.1619  0.3257
 6135SOL    HW219857   6.188   8.249   1.907 -0.3451  0.1518  0.4289
 6136SOL     OW19858   7.975   6.906   6.774 -0.3402 -0.0512 -0.0230
 6136SOL    HW119859   7.950   6.974   6.836 -1.0322  0.4444 -0.8262
 6136SOL    HW219860   7.894   6.857   6.758 -0.1981 -0.1025 -0.6196
 6137SOL     OW19861   8.788   8.383   0.193  0.2201 -0.0404  0.2798
 6137SOL    HW119862   8.718   8.417   0.136  0.7653  1.8001  0.6375
 6137SOL    HW219863   8.866   8.382   0.137  0.5716  0.9691  0.7246
 6138SOL     OW19864   1.120   0.941   1.043 -0.4875 -0.4311  0.0825
 6138SOL    HW119865   1.098   0.959   0.952 -0.8755 -0.7831  0.1047
 6138SOL    HW219866   1.111   1.025   1.088  3.2749  0.6816 -0.8548
 6139SOL     OW19867   2.628   7.369   7.200 -0.2330  0.4344 -0.0772
 6139SOL    HW119868   2.575   7.445   7.221  0.7404  1.4913 -1.2466
 6139SOL    HW219869   2.566   7.296   7.196 -1.0244  0.9065  2.1902
 6140SOL     OW19870   1.125   6.999   6.713  0.0748 -0.5731  0.6499
 6140SOL    HW119871   1.064   6.970   6.782 -2.1548  0.5255 -0.7458
 6140SOL    HW219872   1.125   7.094   6.719  4.1158 -0.4767  2.5109
 6141SOL     OW19873   4.393   5.049   7.415 -0.2970  0.0126  0.0003
 6141SOL    HW119874   4.373   5.008   7.499  0.6734  1.0912  0.7907
 6141SOL    HW219875   4.466   4.998   7.380 -1.1231 -0.8381 -0.5109
 6142SOL     OW19876   7.223   3.915   0.692  0.3425  0.1513  0.3891
 6142SOL    HW119877   7.266   3.912   0.607  1.0333 -0.6326  0.7456
 6142SOL    HW219878   7.227   3.824   0.724 -1.4198  0.0924  0.5276
 6143SOL     OW19879   2.437   4.119   1.602 -0.1743 -0.2959  0.1373
 6143SOL    HW119880   2.346   4.137   1.579  0.0763  1.5228  0.4594
 6143SOL    HW219881   2.461   4.044   1.548 -2.0382 -1.2090  0.5134
 6144SOL     OW19882   4.886   0.853   6.081  0.1344 -0.4355  0.1948
 6144SOL    HW119883   4.844   0.787   6.026 -0.0175 -0.7099  0.6329
 6144SOL    HW219884   4.815   0.889   6.134 -0.4987  2.5590 -2.4165
 6145SOL     OW19885   4.514   8.463   8.903 -0.5577 -0.1672  0.4519
 6145SOL    HW119886   4.423   8.486   8.923 -0.2877  0.6254  0.8112
 6145SOL    HW219887   4.564   8.542   8.925  0.3407 -0.9198  1.1854
 6146SOL     OW19888   4.184   6.205   7.233  0.5214 -0.0106 -0.1263
 6146SOL    HW119889   4.121   6.264   7.192  2.9275  3.9122  1.2510
 6146SOL    HW219890   4.163   6.208   7.326  2.4618  1.1662  0.3270
 6147SOL     OW19891   5.029   7.101   2.676  0.0153  0.2803  0.1452
 6147SOL    HW119892   5.038   7.007   2.694 -0.0871  0.4401  1.0730
 6147SOL    HW219893   5.111   7.125   2.633  0.9609  0.1825  1.7925
 6148SOL     OW19894   2.869   2.635   5.366 -0.7155  0.1660  0.3884
 6148SOL    HW119895   2.961   2.630   5.341 -0.5973  1.0892  0.5963
 6148SOL    HW219896   2.870   2.669   5.455 -1.2588  0.1659  0.3982
 6149SOL     OW19897   6.437   5.662   9.203  0.0441 -0.0698 -0.1953
 6149SOL    HW119898   6.523   5.686   9.237 -0.6520 -0.8306  2.3116
 6149SOL    HW219899   6.452   5.644   9.110  2.4682  0.3280  0.0568
 6150SOL     OW19900   6.486   3.492   6.097  0.8064  0.2588  0.5130
 6150SOL    HW119901   6.478   3.526   6.186 -0.9472 -1.0999  0.9484
 6150SOL    HW219902   6.405   3.520   6.054  2.0631  1.7444 -1.0187
 6151SOL     OW19903   1.854   6.748   7.192  0.3334  0.0469 -0.0006
 6151SOL    HW119904   1.770   6.761   7.149 -0.2449 -0.9094  0.7910
 6151SOL    HW219905   1.885   6.836   7.213 -0.3533  0.4152 -0.5125
 6152SOL     OW19906   3.771   9.111   1.805  0.2915 -0.0573 -0.1232
 6152SOL    HW119907   3.685   9.138   1.836  0.7244  0.6166  0.5384
 6152SOL    HW219908   3.783   9.023   1.839  0.3187  0.2751  0.7507
 6153SOL     OW19909   6.927   6.796   2.586 -0.3435  0.8846  0.2995
 6153SOL    HW119910   7.002   6.784   2.528 -1.0267 -1.6765 -0.1552
 6153SOL    HW219911   6.911   6.710   2.624 -2.1484  1.6965  1.5403
 6154SOL     OW19912   5.788   3.401   8.137 -0.0658  0.0655 -0.0961
 6154SOL    HW119913   5.866   3.426   8.087 -0.4913  0.3007 -0.6433
 6154SOL    HW219914   5.737   3.348   8.076 -0.9791  1.0267 -0.1966
 6155SOL     OW19915   7.979   9.206   0.629  0.2096 -0.2745 -0.2405
 6155SOL    HW119916   7.967   9.204   0.534 -2.1190  0.2247 -0.0274
 6155SOL    HW219917   8.021   9.123   0.650  0.2262 -0.6422 -1.6610
 6156SOL     OW19918   1.201   1.958   3.946 -0.6523 -0.0062 -0.2274
 6156SOL    HW119919   1.236   1.962   3.857 -2.2816  0.7380 -0.8677
 6156SOL    HW219920   1.110   1.931   3.935 -2.1162  3.8557  0.8083
 6157SOL     OW19921   7.370   4.324   6.162  0.3455  0.2331 -0.6087
 6157SOL    HW119922   7.329   4.238   6.162 -0.2979  0.5119  0.5833
 6157SOL    HW219923   7.347   4.362   6.247  0.9058  1.4413 -0.9643
 6158SOL     OW19924   3.784   6.684   4.870 -0.0532  0.5452 -0.6449
 6158SOL    HW119925   3.830   6.723   4.796  0.6763 -0.9080 -0.9895
 6158SOL    HW219926   3.708   6.641   4.832  1.3668 -1.9009 -0.8844
 6159SOL     OW19927   3.033   8.441   7.700 -0.2005 -0.2503 -0.0165
 6159SOL    HW119928   3.010   8.473   7.613  0.0894 -0.0994 -0.0396
 6159SOL    HW219929   2.956   8.394   7.730 -0.5991  0.3931 -0.0206
 6160SOL     OW19930   1.748   1.413   1.683 -0.4847  0.2991  0.6950
 6160SOL    HW119931   1.729   1.339   1.741  1.0586 -0.7202 -0.0275
 6160SOL    HW219932   1.669   1.423   1.630 -0.8401 -0.6303  1.0221
 6161SOL     OW19933   8.520   6.064   5.891 -0.4888  0.4883  0.4029
 6161SOL    HW119934   8.612   6.071   5.918 -0.7863 -1.2524  2.1600
 6161SOL    HW219935   8.523   6.051   5.797  1.1318 -0.0792  0.4994
 6162SOL     OW19936   4.060   3.145   7.987 -0.0661  0.4706  0.5105
 6162SOL    HW119937   4.108   3.122   7.907  1.5926  1.8033  1.0673
 6162SOL    HW219938   4.022   3.062   8.016 -0.8920 -0.0244 -1.7264
 6163SOL     OW19939   2.843   0.360   7.800 -0.3258  0.2945  0.1994
 6163SOL    HW119940   2.919   0.329   7.750 -2.0797  0.3673 -2.7042
 6163SOL    HW219941   2.795   0.280   7.822 -0.2459  0.3695  0.6645
 6164SOL     OW19942   2.570   8.222   1.131 -0.4338  0.2435 -0.0945
 6164SOL    HW119943   2.497   8.210   1.191 -0.0018 -1.3913  0.1573
 6164SOL    HW219944   2.574   8.141   1.081 -0.0803  1.1402 -1.5644
 6165SOL     OW19945   2.144   6.417   6.727 -0.6299 -0.3471  0.0129
 6165SOL    HW119946   2.230   6.432   6.768 -0.2015 -1.0079 -0.6185
 6165SOL    HW219947   2.088   6.388   6.799  0.3991 -2.5791  0.0123
 6166SOL     OW19948   4.959   3.624   2.611  0.1033 -0.4380  0.1203
 6166SOL    HW119949   4.953   3.686   2.538  0.7047 -1.1258 -0.5267
 6166SOL    HW219950   4.873   3.581   2.613 -0.2802  0.3203  0.5029
 6167SOL     OW19951   0.844   7.053   8.478 -0.2354 -0.4512 -0.4788
 6167SOL    HW119952   0.834   6.960   8.460 -2.4687 -0.6970  1.6233
 6167SOL    HW219953   0.755   7.087   8.485  0.5068  1.9761 -1.5805
 6168SOL     OW19954   6.025   2.591   1.847 -0.0064  0.5996 -0.0819
 6168SOL    HW119955   6.080   2.669   1.834  0.5102  0.3680  0.6799
 6168SOL    HW219956   5.982   2.605   1.931  0.0449  0.0943  0.0320
 6169SOL     OW19957   4.909   5.597   0.798 -0.2341 -0.1912  0.0994
 6169SOL    HW119958   4.831   5.647   0.774  0.3459  1.3784  1.3509
 6169SOL    HW219959   4.925   5.620   0.889  2.0917  0.0550 -0.3200
 6170SOL     OW19960   7.892   6.846   8.691 -0.0231  0.7414 -0.6503
 6170SOL    HW119961   7.921   6.937   8.705 -0.0499  0.5369  0.8849
 6170SOL    HW219962   7.836   6.851   8.614  1.3309  1.7310 -1.6301
 6171SOL     OW19963   4.767   3.655   7.587  0.3106  0.0449 -0.2077
 6171SOL    HW119964   4.769   3.593   7.514  3.0850  0.3517 -0.4893
 6171SOL    HW219965   4.804   3.606   7.661  0.9336  0.8262  0.0109
 6172SOL     OW19966   2.796   1.889   5.772 -0.0523  0.3626  0.1079
 6172SOL    HW119967   2.773   1.938   5.693  1.6051 -0.2069 -0.7733
 6172SOL    HW219968   2.725   1.826   5.783  0.2261 -0.3237 -1.6341
 6173SOL     OW19969   6.840   5.432   5.755  0.0370 -0.3616 -0.3163
 6173SOL    HW119970   6.769   5.443   5.818  0.0567  1.4067 -0.5294
 6173SOL    HW219971   6.883   5.351   5.780 -0.9666 -0.5409  0.9155
 6174SOL     OW19972   6.707   1.250   8.059 -0.8100  0.3784  0.1991
 6174SOL    HW119973   6.642   1.191   8.020 -0.7511 -0.6266  1.5500
 6174SOL    HW219974   6.732   1.309   7.987 -2.0988 -0.1747 -0.7420
 6175SOL     OW19975   5.958   0.856   3.566  0.1471 -0.0424 -0.0177
 6175SOL    HW119976   5.908   0.849   3.647 -1.3779  1.7904 -0.7201
 6175SOL    HW219977   6.025   0.922   3.585 -0.5999  0.8541 -0.3660
 6176SOL     OW19978   7.290   2.236   0.125  0.2977  0.3207 -0.0289
 6176SOL    HW119979   7.236   2.168   0.084 -0.6473  0.6215  0.6641
 6176SOL    HW219980   7.367   2.190   0.157  0.0230 -0.2930 -0.2268
 6177SOL     OW19981   3.946   1.960   4.685 -0.3957 -0.0138  0.1301
 6177SOL    HW119982   3.873   1.941   4.743 -0.5801  0.4152  0.0429
 6177SOL    HW219983   3.927   1.910   4.605 -2.6699  3.0550 -1.4586
 6178SOL     OW19984   6.445   4.937   4.576 -0.4860 -0.0227 -0.1119
 6178SOL    HW119985   6.434   4.992   4.499  0.3692 -0.1753 -0.3540
 6178SOL    HW219986   6.358   4.933   4.616 -0.5248  1.6556  0.0222
 6179SOL     OW19987   6.821   3.496   1.341 -0.0001 -0.1513 -0.7549
 6179SOL    HW119988   6.760   3.536   1.279  0.9000  1.4137 -0.6953
 6179SOL    HW219989   6.813   3.549   1.420  0.5386 -0.6943 -0.3236
 6180SOL     OW19990   4.830   0.351   3.792 -0.2972 -0.3551 -0.0383
 6180SOL    HW119991   4.853   0.345   3.885 -0.1992  2.6105  0.2308
 6180SOL    HW219992   4.885   0.284   3.750  2.7893  0.9193  1.5823
 6181SOL     OW19993   3.672   2.574   8.429  0.7079  0.0407 -0.0290
 6181SOL    HW119994   3.634   2.536   8.350  0.9472 -0.9367  0.3045
 6181SOL    HW219995   3.708   2.658   8.401 -0.5373  0.4023 -0.6236
 6182SOL     OW19996   7.048   8.777   4.360  0.5944 -0.1118  0.3126
 6182SOL    HW119997   7.129   8.797   4.408  1.1271  1.3946 -1.1251
 6182SOL    HW219998   7.032   8.684   4.379  1.0286  0.2746  2.9686
 6183SOL     OW19999   5.991   5.418   1.470 -0.1285  0.1701  0.5820
 6183SOL    HW120000   6.057   5.451   1.530 -0.3425  0.9443  0.3959
 6183SOL    HW220001   5.940   5.356   1.523  2.0076 -2.0839  0.1880
 6184SOL     OW20002   4.067   8.934   6.111 -0.8479 -0.4828 -0.1033
 6184SOL    HW120003   4.031   9.013   6.152 -1.7271 -1.4794  1.0985
 6184SOL    HW220004   4.096   8.964   6.025  1.3851  1.7550  1.2979
 6185SOL     OW20005   3.934   4.396   7.612  0.7470 -0.1924  0.0590
 6185SOL    HW120006   4.019   4.353   7.622  0.4770 -0.3992  1.9534
 6185SOL    HW220007   3.911   4.386   7.520  2.7279 -0.2085 -0.4678
 6186SOL     OW20008   5.824   4.206   8.144  0.8439  0.1697 -0.1794
 6186SOL    HW120009   5.826   4.158   8.227 -0.2342  2.3091  1.1710
 6186SOL    HW220010   5.837   4.139   8.077 -1.6125 -2.1715  1.4938
 6187SOL     OW20011   4.770   0.279   7.916 -0.2645 -0.2408  0.2857
 6187SOL    HW120012   4.828   0.356   7.918 -1.3829  0.6270  0.4453
 6187SOL    HW220013   4.683   0.315   7.931 -1.0727 -1.3242 -1.5506
 6188SOL     OW20014   4.583   0.041   7.195  0.2134  0.3668  0.0802
 6188SOL    HW120015   4.580  -0.043   7.148  1.6503  0.0077  0.5997
 6188SOL    HW220016   4.494   0.075   7.187 -0.3565 -1.1210 -0.2906
 6189SOL     OW20017   6.596   2.942   1.905  0.0091 -0.1180  0.4836
 6189SOL    HW120018   6.658   2.995   1.956 -0.9221  1.2734  0.2191
 6189SOL    HW220019   6.636   2.855   1.902  1.7172  0.6148  0.7332
 6190SOL     OW20020   3.500   2.611   4.951 -0.1017  0.0919 -0.1018
 6190SOL    HW120021   3.511   2.671   4.878  2.0413  1.4400  1.2177
 6190SOL    HW220022   3.421   2.643   4.996  0.1379  0.9661 -0.2805
 6191SOL     OW20023   3.134   9.113   6.149  0.2512 -0.1318  0.3810
 6191SOL    HW120024   3.197   9.050   6.185  2.6200  1.3605 -0.8803
 6191SOL    HW220025   3.113   9.080   6.062  1.0100  0.4672 -0.0394
 6192SOL     OW20026   1.309   4.001   1.768 -0.0473 -0.3797 -0.3749
 6192SOL    HW120027   1.380   3.937   1.767 -0.2358 -0.5993  0.1009
 6192SOL    HW220028   1.303   4.032   1.678  1.1709  0.2094 -0.2683
 6193SOL     OW20029   3.026   1.276   4.009  0.3339  0.3235  0.1991
 6193SOL    HW120030   3.117   1.303   3.997  0.6685 -0.8890 -0.1946
 6193SOL    HW220031   2.995   1.257   3.920 -0.3169  0.7481  0.3284
 6194SOL     OW20032   7.443   0.725   2.292  0.0933  0.4216  0.6119
 6194SOL    HW120033   7.392   0.702   2.214  0.7489  0.5628  0.1361
 6194SOL    HW220034   7.451   0.642   2.340 -0.5578  0.3947  0.6825
 6195SOL     OW20035   8.836   9.168   1.691  0.0789  0.8166 -0.2624
 6195SOL    HW120036   8.841   9.263   1.701  0.2748  0.8697 -0.8113
 6195SOL    HW220037   8.910   9.147   1.634  0.8859  0.1651  0.9670
 6196SOL     OW20038   1.355   8.807   8.790 -0.2504  0.0974  0.7772
 6196SOL    HW120039   1.373   8.900   8.774  1.3039 -0.2361  0.4474
 6196SOL    HW220040   1.300   8.781   8.716 -0.7032  0.7375  0.8725
 6197SOL     OW20041   4.732   1.294   5.929 -0.9419 -0.4918  0.6167
 6197SOL    HW120042   4.721   1.199   5.926 -0.1299 -0.5640 -0.3507
 6197SOL    HW220043   4.719   1.323   5.839 -2.9532  0.5471  1.1751
 6198SOL     OW20044   1.135   7.814   1.307  0.5754  0.2790 -0.3409
 6198SOL    HW120045   1.167   7.737   1.260 -0.4546  1.1202 -2.5521
 6198SOL    HW220046   1.053   7.786   1.347  0.9286 -0.1585  0.0832
 6199SOL     OW20047   7.417   8.775   5.992 -0.0837 -0.0681 -0.1361
 6199SOL    HW120048   7.390   8.824   5.914 -1.9549  1.4675  1.3794
 6199SOL    HW220049   7.486   8.829   6.032 -0.5034  0.1527  0.2976
 6200SOL     OW20050   6.912   8.302   5.650 -0.2544  0.2616 -0.4050
 6200SOL    HW120051   6.864   8.296   5.568 -1.2625 -1.0699  0.2420
 6200SOL    HW220052   7.004   8.293   5.625 -0.4872  0.6779 -1.4560
 6201SOL     OW20053   8.330   2.020   0.739 -0.0822 -0.0097  0.2073
 6201SOL    HW120054   8.242   2.055   0.730  0.0823  0.6757  1.1204
 6201SOL    HW220055   8.368   2.026   0.651  0.0732  2.5109  0.3713
 6202SOL     OW20056   9.106   6.868   4.272  0.2289 -0.1435  0.4487
 6202SOL    HW120057   9.176   6.923   4.236  0.2565 -0.8941 -0.7001
 6202SOL    HW220058   9.034   6.929   4.286  0.1218  0.1633 -1.1802
 6203SOL     OW20059   1.748   4.472   0.858 -0.4426  0.0414 -0.6073
 6203SOL    HW120060   1.799   4.405   0.903  1.4661 -0.1845 -2.8849
 6203SOL    HW220061   1.661   4.433   0.846  0.2098 -1.4660 -0.6315
 6204SOL     OW20062   4.680   8.524   9.184  0.2435  0.2336 -0.2141
 6204SOL    HW120063   4.688   8.559   9.096 -2.5597 -0.1469 -0.7308
 6204SOL    HW220064   4.680   8.429   9.173 -1.0450  0.1858  0.0456
 6205SOL     OW20065   2.001   8.663   7.181 -0.3413  0.3012 -0.6390
 6205SOL    HW120066   2.017   8.691   7.271 -0.2071  0.0865 -0.5968
 6205SOL    HW220067   1.919   8.705   7.157  0.0174  1.0009 -0.6840
 6206SOL     OW20068   5.579   3.082   1.738  0.4290 -0.4865  0.1176
 6206SOL    HW120069   5.491   3.095   1.703  0.6960  1.1744 -0.0220
 6206SOL    HW220070   5.608   2.999   1.700 -0.9449 -0.9025 -0.0788
 6207SOL     OW20071   8.909   0.714   1.342  0.3261 -0.0532 -0.1922
 6207SOL    HW120072   8.983   0.771   1.323 -1.2752  2.2705  0.1869
 6207SOL    HW220073   8.855   0.764   1.403 -1.4377 -1.7673 -0.2564
 6208SOL     OW20074   7.658   2.330   6.181 -0.5631  0.2939  0.7718
 6208SOL    HW120075   7.635   2.261   6.119  0.2890 -0.7639  1.5957
 6208SOL    HW220076   7.753   2.336   6.175 -0.7088  2.4928 -0.3915
 6209SOL     OW20077   4.498   6.848   0.982  0.5460 -0.6527 -0.3860
 6209SOL    HW120078   4.433   6.907   1.018  1.6963  1.0793 -1.0061
 6209SOL    HW220079   4.451   6.795   0.917 -0.2192  0.6848 -0.9546
 6210SOL     OW20080   3.251   4.381   1.019  0.5975  0.6061 -0.2614
 6210SOL    HW120081   3.166   4.383   0.974  0.8803  1.6930 -0.7780
 6210SOL    HW220082   3.250   4.299   1.068 -0.5575  0.3740 -0.6407
 6211SOL     OW20083   4.807   8.725   0.572 -0.5887  0.0309 -0.0781
 6211SOL    HW120084   4.744   8.721   0.501 -2.4405  1.3281  1.3667
 6211SOL    HW220085   4.786   8.650   0.627 -1.1713  0.6747  0.6026
 6212SOL     OW20086   4.934   2.865   0.094 -0.3626  0.1798  0.3817
 6212SOL    HW120087   4.972   2.779   0.107  1.6177  1.2768  2.5740
 6212SOL    HW220088   4.865   2.871   0.161 -2.6085 -0.6921 -1.6803
 6213SOL     OW20089   0.241   8.173   3.525  0.0781 -0.1777 -0.4877
 6213SOL    HW120090   0.327   8.197   3.561 -0.5937  0.8513  0.4993
 6213SOL    HW220091   0.216   8.095   3.575 -1.1698  1.6495  1.9470
 6214SOL     OW20092   2.409   6.971   8.534 -0.1582  0.4062  0.6217
 6214SOL    HW120093   2.351   6.981   8.459 -0.0095 -0.8632  0.3259
 6214SOL    HW220094   2.466   7.049   8.530 -0.0154  0.2576 -0.7032
 6215SOL     OW20095   8.895   8.979   8.005  0.1038 -0.0763  0.0645
 6215SOL    HW120096   8.910   9.028   8.086 -0.3500  1.0930 -0.5274
 6215SOL    HW220097   8.974   8.927   7.993  0.8850  0.9962  0.4081
 6216SOL     OW20098   8.754   7.220   7.219 -0.1001  0.3101 -0.3476
 6216SOL    HW120099   8.829   7.206   7.162 -1.5565  0.5800 -2.4416
 6216SOL    HW220100   8.731   7.312   7.205 -0.8298  0.2284  0.2510
 6217SOL     OW20101   6.190   2.314   4.596 -1.0593 -0.3540  0.6535
 6217SOL    HW120102   6.264   2.371   4.575 -0.3182 -1.5680 -0.2038
 6217SOL    HW220103   6.113   2.366   4.576 -0.4307 -0.5061 -2.8191
 6218SOL     OW20104   7.292   7.397   4.840 -0.5094  0.2637 -0.4247
 6218SOL    HW120105   7.285   7.301   4.834  1.1501  0.0955 -0.1180
 6218SOL    HW220106   7.372   7.412   4.890 -1.5430  1.8232  0.8823
 6219SOL     OW20107   7.848   4.312   1.554 -0.4424 -0.0290 -0.0342
 6219SOL    HW120108   7.775   4.361   1.514  0.1936  1.0542  0.0884
 6219SOL    HW220109   7.842   4.334   1.647  0.8916  1.2619 -0.2126
 6220SOL     OW20110   6.995   6.595   2.957 -0.1752 -0.1475  0.3148
 6220SOL    HW120111   6.934   6.526   2.982 -0.2936  0.3670  1.4853
 6220SOL    HW220112   7.077   6.571   3.001  0.2183 -0.3365 -0.4981
 6221SOL     OW20113   5.010   5.344   3.788  0.2085  0.6498  0.3509
 6221SOL    HW120114   5.058   5.283   3.732  2.0599  0.2174  2.2782
 6221SOL    HW220115   4.979   5.291   3.862  2.7728  2.0545  2.6229
 6222SOL     OW20116   5.458   0.182   1.688  0.1012  0.3792  0.1108
 6222SOL    HW120117   5.550   0.204   1.698  0.0168  0.4764  0.7161
 6222SOL    HW220118   5.413   0.267   1.684 -0.0356  0.3369  0.6055
 6223SOL     OW20119   2.979   3.445   2.361 -0.0670 -0.5076 -0.1277
 6223SOL    HW120120   3.043   3.514   2.378 -1.4182  0.9201 -0.5564
 6223SOL    HW220121   2.977   3.437   2.266 -1.5630  0.5790 -0.2378
 6224SOL     OW20122   5.863   4.004   7.946  0.2897  0.1925  0.1468
 6224SOL    HW120123   5.941   3.949   7.952 -0.6279 -1.1100  0.6085
 6224SOL    HW220124   5.812   3.981   8.023 -0.4129  1.2743  0.0265
 6225SOL     OW20125   7.389   2.504   0.154  0.2265 -0.0685  0.6672
 6225SOL    HW120126   7.362   2.415   0.134 -0.7034  0.2298  0.5522
 6225SOL    HW220127   7.481   2.496   0.179 -0.2242 -1.2371  2.0493
 6226SOL     OW20128   1.074   2.693   0.611  0.2289 -0.2819  0.1865
 6226SOL    HW120129   1.077   2.745   0.691  1.5518 -0.1662  0.0853
 6226SOL    HW220130   1.009   2.737   0.556  2.2931  2.2010 -0.4875
 6227SOL     OW20131   0.290   0.196   2.129 -0.1052  0.3364 -0.0018
 6227SOL    HW120132   0.305   0.117   2.075  0.9413  1.1424 -0.9384
 6227SOL    HW220133   0.375   0.240   2.131 -0.7453  1.6073  0.2458
 6228SOL     OW20134   9.219   2.922   6.276 -0.1257  0.1087  0.0973
 6228SOL    HW120135   9.166   3.001   6.270  1.2752  1.0656 -0.1077
 6228SOL    HW220136   9.184   2.863   6.210 -0.9033  0.7311 -0.0455
 6229SOL     OW20137   8.331   4.833   8.707  0.0015 -0.0510 -0.5350
 6229SOL    HW120138   8.272   4.834   8.631 -1.2230 -0.6734  0.3765
 6229SOL    HW220139   8.401   4.894   8.684 -0.3077 -0.2651 -2.1890
 6230SOL     OW20140   7.164   1.558   8.336  0.4268  0.3844  0.3881
 6230SOL    HW120141   7.166   1.622   8.265  0.4148 -0.6150 -0.5469
 6230SOL    HW220142   7.228   1.591   8.400  1.3339  0.6990 -0.6439
 6231SOL     OW20143   4.001   8.507   1.180 -0.1893  0.0989 -0.1865
 6231SOL    HW120144   4.069   8.564   1.144  0.4005 -1.0548 -0.9589
 6231SOL    HW220145   3.934   8.503   1.112 -0.5933  0.4640  0.1813
 6232SOL     OW20146   2.410   4.538   3.702  0.3219  0.2620  0.2527
 6232SOL    HW120147   2.468   4.579   3.765 -0.2898  1.6136 -0.0259
 6232SOL    HW220148   2.367   4.468   3.751  0.5376  0.6981  1.0832
 6233SOL     OW20149   2.072   7.567   0.377 -0.0113 -0.3900 -0.4567
 6233SOL    HW120150   2.134   7.634   0.348 -1.3842  0.3493 -1.8071
 6233SOL    HW220151   2.065   7.507   0.303 -1.7736  0.1954 -0.7997
 6234SOL     OW20152   5.353   4.089   6.616 -0.2227  0.6471  0.3736
 6234SOL    HW120153   5.342   4.094   6.521  0.1864  0.0144  0.2925
 6234SOL    HW220154   5.323   4.002   6.640  0.1089  0.6344  0.7631
 6235SOL     OW20155   0.007   5.993   1.050 -0.1127 -0.3937  0.4081
 6235SOL    HW120156   0.076   5.949   1.001 -0.8135 -0.6946 -0.3402
 6235SOL    HW220157  -0.064   5.929   1.053 -0.6854  0.2313  0.3868
 6236SOL     OW20158   3.741   2.664   4.001 -0.1168  0.8387 -0.1712
 6236SOL    HW120159   3.706   2.649   3.913 -1.7390  2.6866  0.0907
 6236SOL    HW220160   3.819   2.718   3.986  1.3519 -1.2766 -0.5976
 6237SOL     OW20161   2.495   0.228   0.052  0.6009  0.6674 -0.1828
 6237SOL    HW120162   2.431   0.209  -0.016 -0.4644 -1.5409  1.3058
 6237SOL    HW220163   2.456   0.191   0.132  2.3134  2.0940  1.3974
 6238SOL     OW20164   0.465   5.716   9.242  0.6268  0.1197 -0.2448
 6238SOL    HW120165   0.498   5.722   9.332  0.1471  2.1727 -0.1616
 6238SOL    HW220166   0.542   5.734   9.187  0.9685 -1.3491 -0.2887
 6239SOL     OW20167   4.865   2.102   7.099  0.2521 -0.4678  0.3389
 6239SOL    HW120168   4.881   2.023   7.048  0.4466 -0.9643  1.1370
 6239SOL    HW220169   4.800   2.075   7.165  1.2677 -0.3369  1.4340
 6240SOL     OW20170   3.363   8.202   7.093  0.2183  0.3870 -0.4037
 6240SOL    HW120171   3.348   8.270   7.158 -1.3055  1.6749 -2.0280
 6240SOL    HW220172   3.432   8.237   7.036 -0.0053  0.2246 -0.7772
 6241SOL     OW20173   5.133   1.255   4.294 -0.3217 -0.1462 -0.3275
 6241SOL    HW120174   5.171   1.171   4.267  0.6686  0.0220  0.4690
 6241SOL    HW220175   5.206   1.301   4.336 -0.4011  1.7935 -2.1875
 6242SOL     OW20176   5.232   1.486   1.483 -0.0808  0.0598  0.1081
 6242SOL    HW120177   5.177   1.531   1.420  0.6051  2.1028  0.8761
 6242SOL    HW220178   5.313   1.466   1.436  0.0633  0.7227  0.0669
 6243SOL     OW20179   5.592   9.203   2.370  0.3553 -0.1789  0.2907
 6243SOL    HW120180   5.619   9.125   2.419  1.2958  0.1614  0.3276
 6243SOL    HW220181   5.500   9.187   2.349  0.1213 -0.6368  1.5805
 6244SOL     OW20182   6.971   0.897   1.714 -0.0596 -0.2892  0.4379
 6244SOL    HW120183   6.980   0.990   1.731  2.3172 -0.3840  0.0272
 6244SOL    HW220184   6.896   0.870   1.767 -0.2358  1.6606  1.2638
 6245SOL     OW20185   4.640   0.319   6.912  0.4634  0.4069 -0.4906
 6245SOL    HW120186   4.562   0.305   6.966  0.4862 -0.1238 -0.5854
 6245SOL    HW220187   4.677   0.402   6.943  0.5829  0.0183  0.4321
 6246SOL     OW20188   5.952   0.773   0.730  0.1106 -0.0554  0.1283
 6246SOL    HW120189   5.898   0.829   0.673  0.2431 -1.9270 -1.9398
 6246SOL    HW220190   5.888   0.716   0.774  0.2397 -1.6753 -1.6590
 6247SOL     OW20191   5.246   5.810   5.367  0.2281  0.3152 -0.1047
 6247SOL    HW120192   5.302   5.862   5.425 -1.0159  1.5813  0.0164
 6247SOL    HW220193   5.181   5.771   5.426 -0.0452  0.2443 -0.4526
 6248SOL     OW20194   4.098   0.532   5.887 -0.2053  0.9943  0.0889
 6248SOL    HW120195   4.188   0.511   5.911 -0.0371  1.2281 -0.3335
 6248SOL    HW220196   4.055   0.550   5.971 -0.1574 -0.2221  0.4014
 6249SOL     OW20197   9.116   2.803   0.910 -0.1260 -0.3702  0.1128
 6249SOL    HW120198   9.123   2.836   0.821 -0.8419 -1.5397 -0.4121
 6249SOL    HW220199   9.059   2.866   0.955  2.0023  1.4361  0.4150
 6250SOL     OW20200   7.980   1.106   2.778  0.0269 -0.5087 -0.2828
 6250SOL    HW120201   7.916   1.122   2.847  2.7650 -0.0108  2.2940
 6250SOL    HW220202   7.959   1.017   2.747 -1.0481 -0.9024  1.4516
 6251SOL     OW20203   4.129   5.221   2.492 -0.1074  0.5154  0.2874
 6251SOL    HW120204   4.072   5.271   2.551  0.1569 -0.2268  1.2121
 6251SOL    HW220205   4.095   5.131   2.498 -0.7612  0.6039 -1.5638
 6252SOL     OW20206   8.971   3.395   5.939 -0.2709  0.6445 -0.4552
 6252SOL    HW120207   8.887   3.360   5.969  0.9592 -2.0720  0.0821
 6252SOL    HW220208   9.013   3.428   6.018  0.4220 -0.8723 -0.1647
 6253SOL     OW20209   8.726   1.689   4.743 -0.2615 -0.3478  0.0966
 6253SOL    HW120210   8.665   1.664   4.813 -0.4826  0.0523  0.0487
 6253SOL    HW220211   8.753   1.778   4.765  0.3477 -0.5351  0.1422
 6254SOL     OW20212   3.796   6.961   7.232  0.1166 -0.5928 -0.2830
 6254SOL    HW120213   3.819   6.959   7.139  1.6676 -0.1272  0.0573
 6254SOL    HW220214   3.854   6.896   7.272  1.7686  1.4122  0.7781
 6255SOL     OW20215   3.135   7.895   1.535  0.0376 -0.3486  0.2206
 6255SOL    HW120216   3.180   7.958   1.592 -0.1936 -0.1124  0.1389
 6255SOL    HW220217   3.183   7.813   1.550  1.0214  0.0752 -0.4745
 6256SOL     OW20218   6.509   3.176   2.123 -0.3619  0.2447 -0.8653
 6256SOL    HW120219   6.448   3.104   2.139  0.3137 -0.2113 -0.2619
 6256SOL    HW220220   6.548   3.194   2.209  0.8539  0.0651 -1.3484
 6257SOL     OW20221   1.007   3.256   3.879  0.0722 -0.5773 -0.1765
 6257SOL    HW120222   0.946   3.324   3.908  0.6696 -0.5465  1.0905
 6257SOL    HW220223   1.011   3.265   3.784 -0.7121  0.4240 -0.1244
 6258SOL     OW20224   1.576   8.115   6.926  0.0235  0.7037 -0.1692
 6258SOL    HW120225   1.506   8.069   6.880  0.8362  1.3111 -2.1241
 6258SOL    HW220226   1.655   8.066   6.907  0.1810 -0.0851  2.1812
 6259SOL     OW20227   3.871   7.313   4.546  0.5665 -0.9022 -0.2094
 6259SOL    HW120228   3.881   7.363   4.464  1.0099 -2.1262 -0.9338
 6259SOL    HW220229   3.778   7.290   4.549  0.4810 -0.5599 -0.1848
 6260SOL     OW20230   7.381   8.635   3.841  0.3953 -0.2462 -0.3177
 6260SOL    HW120231   7.388   8.649   3.746  1.3894 -0.2497 -0.2565
 6260SOL    HW220232   7.352   8.720   3.876 -0.4800 -0.3868 -0.6613
 6261SOL     OW20233   1.335   7.615   3.631 -0.0563 -0.0097 -0.5966
 6261SOL    HW120234   1.421   7.572   3.631 -0.9638 -1.9484 -1.0402
 6261SOL    HW220235   1.327   7.652   3.543 -0.0859 -0.7280 -0.9023
 6262SOL     OW20236   6.041   5.238   1.255 -0.1895 -0.2271 -0.6787
 6262SOL    HW120237   6.027   5.313   1.312 -0.1581 -1.2984  0.8057
 6262SOL    HW220238   5.961   5.185   1.265  0.5198 -1.2548 -0.2994
 6263SOL     OW20239   8.075   8.165   7.353 -0.2412  1.0229  0.0192
 6263SOL    HW120240   8.113   8.137   7.436  0.7831  1.9640 -0.1207
 6263SOL    HW220241   8.015   8.236   7.377 -0.1565  1.1068 -0.0196
 6264SOL     OW20242   5.994   8.083   8.633 -0.3266 -0.1262  0.0138
 6264SOL    HW120243   6.054   8.044   8.569  0.7303  0.8485  0.4007
 6264SOL    HW220244   5.969   8.167   8.595 -1.4193 -0.4837 -0.1094
 6265SOL     OW20245   4.103   1.428   4.873 -0.1726 -0.2513  0.2560
 6265SOL    HW120246   4.039   1.421   4.944 -1.7705 -0.1536 -1.1168
 6265SOL    HW220247   4.146   1.512   4.888 -1.1492  0.2008  0.5865
 6266SOL     OW20248   4.008   7.874   3.961  0.3335 -0.3387  0.0335
 6266SOL    HW120249   3.927   7.926   3.960 -0.7076 -1.8686  0.7525
 6266SOL    HW220250   4.035   7.874   4.053  1.2284  0.2445 -0.2202
 6267SOL     OW20251   5.727   5.539   8.257 -0.3132  0.6298 -0.1487
 6267SOL    HW120252   5.726   5.635   8.258 -0.6025  0.6253  0.3202
 6267SOL    HW220253   5.643   5.514   8.294  0.3915  0.1938  1.2352
 6268SOL     OW20254   3.496   9.036   5.654  0.4338 -0.3426 -0.5864
 6268SOL    HW120255   3.467   8.948   5.681  0.1843 -0.2837 -0.6617
 6268SOL    HW220256   3.592   9.030   5.654  0.4255 -0.5142 -0.2527
 6269SOL     OW20257   4.067   0.088   5.308 -0.1841 -0.0474 -0.0532
 6269SOL    HW120258   4.158   0.063   5.323 -0.0771  1.0121  1.1706
 6269SOL    HW220259   4.056   0.170   5.355 -1.7669 -0.1357 -0.2153
 6270SOL     OW20260   1.028   8.452   1.837 -0.3254 -0.4500 -0.4015
 6270SOL    HW120261   1.077   8.473   1.757 -1.1144 -1.6519 -1.2333
 6270SOL    HW220262   1.095   8.427   1.900  0.2950  0.2747 -0.7513
 6271SOL     OW20263   0.449   0.758   3.321  0.2651  0.8081 -0.2302
 6271SOL    HW120264   0.374   0.701   3.306  0.7012  0.6880 -2.2434
 6271SOL    HW220265   0.417   0.845   3.297  0.3296  1.0320  0.4606
 6272SOL     OW20266   8.934   3.464   4.757 -0.2708 -0.0511  0.5567
 6272SOL    HW120267   8.974   3.535   4.706 -0.8016  0.9540  1.5009
 6272SOL    HW220268   8.981   3.385   4.729 -0.3271  0.5021 -1.2377
 6273SOL     OW20269   4.606   0.057   7.950  0.0328  0.4727  0.8318
 6273SOL    HW120270   4.676   0.117   7.925  1.2619 -1.0190  0.5728
 6273SOL    HW220271   4.540   0.068   7.882 -0.1892  2.1350  1.2519
 6274SOL     OW20272   4.231   6.271   1.757  0.7118  0.6433 -0.2352
 6274SOL    HW120273   4.303   6.335   1.753 -1.2196  2.8736 -1.7113
 6274SOL    HW220274   4.226   6.236   1.668  1.0936 -0.8702  0.3178
 6275SOL     OW20275   2.595   8.348   7.116  0.2511 -0.3954 -0.0109
 6275SOL    HW120276   2.632   8.364   7.203 -0.5378  1.0000  0.0939
 6275SOL    HW220277   2.532   8.277   7.130 -0.7852  0.6644  0.8195
 6276SOL     OW20278   2.555   5.118   2.472  0.1286 -0.1622  0.2474
 6276SOL    HW120279   2.460   5.117   2.482  0.0533  1.0105 -0.1186
 6276SOL    HW220280   2.582   5.028   2.488 -1.4208 -1.4413 -3.2530
 6277SOL     OW20281   3.494   6.553   2.439  0.1449  0.4140  0.0184
 6277SOL    HW120282   3.584   6.524   2.424  0.7687  1.1203  2.0524
 6277SOL    HW220283   3.446   6.523   2.362  1.6590 -1.9069 -0.1153
 6278SOL     OW20284   9.053   7.718   0.218 -0.2048 -1.0540  0.5043
 6278SOL    HW120285   9.064   7.794   0.161 -0.8543 -0.6399  0.9120
 6278SOL    HW220286   8.960   7.694   0.209 -0.5046 -0.5520  1.8853
 6279SOL     OW20287   0.521   3.413   2.407 -0.3424  0.3019  0.4475
 6279SOL    HW120288   0.580   3.338   2.403  0.9651  1.3171 -0.1445
 6279SOL    HW220289   0.530   3.446   2.496 -0.9393 -0.2276  0.7167
 6280SOL     OW20290   6.741   7.434   4.077 -0.1012 -0.8159 -0.1722
 6280SOL    HW120291   6.722   7.427   4.171 -0.6798 -0.3723 -0.2497
 6280SOL    HW220292   6.836   7.441   4.072  0.0148 -1.8292  0.3174
 6281SOL     OW20293   3.648   4.505   5.060  0.4558 -0.1405 -0.1905
 6281SOL    HW120294   3.608   4.418   5.052 -0.8870  0.4378 -0.0522
 6281SOL    HW220295   3.713   4.509   4.990  0.6942 -1.3331 -0.0553
 6282SOL     OW20296   8.975   4.354   0.032 -0.5622 -0.2789 -0.2194
 6282SOL    HW120297   8.889   4.315   0.018  0.0979 -1.8348 -0.2078
 6282SOL    HW220298   8.989   4.346   0.126 -0.6308  0.4872 -0.1405
 6283SOL     OW20299   3.597   1.795   0.554 -0.5020  0.5142 -0.4716
 6283SOL    HW120300   3.643   1.795   0.638 -0.5823 -0.7682 -0.3939
 6283SOL    HW220301   3.506   1.775   0.578 -0.1542 -2.0969 -0.9648
 6284SOL     OW20302   6.231   3.099   7.823  0.5739 -0.1225  0.1104
 6284SOL    HW120303   6.264   3.051   7.747  2.4004  1.7862 -0.4055
 6284SOL    HW220304   6.291   3.077   7.894 -0.4322 -0.9797  0.7236
 6285SOL     OW20305   5.294   8.548   3.181  0.4695  0.0498 -0.2428
 6285SOL    HW120306   5.240   8.470   3.167  0.0428  0.4666 -0.9518
 6285SOL    HW220307   5.246   8.598   3.248  1.4674 -0.9576  1.2821
 6286SOL     OW20308   2.599   8.432   7.396 -0.2725  0.1824 -0.0053
 6286SOL    HW120309   2.612   8.527   7.403 -0.5317  0.2387 -0.2866
 6286SOL    HW220310   2.601   8.402   7.487  1.6278  0.2011  0.0039
 6287SOL     OW20311   7.617   4.762   8.629  0.1886 -0.4352 -0.6839
 6287SOL    HW120312   7.689   4.825   8.620 -0.9420  1.0666  0.4793
 6287SOL    HW220313   7.539   4.810   8.603 -1.0427 -0.5863  2.3916
 6288SOL     OW20314   6.429   6.169   5.962  0.2967 -0.5605 -0.0972
 6288SOL    HW120315   6.424   6.191   6.055 -1.5683 -1.9947  0.2060
 6288SOL    HW220316   6.447   6.074   5.961  0.3728 -0.5506 -1.2018
 6289SOL     OW20317   1.434   4.569   2.022 -0.2796  0.3174 -0.2695
 6289SOL    HW120318   1.429   4.639   2.087 -0.7443  0.0062  0.0443
 6289SOL    HW220319   1.383   4.601   1.948  1.5996  1.3650 -1.1801
 6290SOL     OW20320   2.889   2.450   3.676 -0.4127  0.0267  1.0531
 6290SOL    HW120321   2.848   2.397   3.608  0.2592 -0.0617  0.7075
 6290SOL    HW220322   2.978   2.467   3.643 -0.0104 -0.1810  1.9962
 6291SOL     OW20323   7.469   4.019   8.397 -0.8594  0.4464  0.2627
 6291SOL    HW120324   7.515   4.103   8.393 -0.0373 -0.0547 -1.3267
 6291SOL    HW220325   7.381   4.042   8.427 -0.3133  1.7214  0.9932
 6292SOL     OW20326   8.515   1.895   9.280 -0.3044 -0.2856 -0.4391
 6292SOL    HW120327   8.441   1.865   9.228 -0.5240 -0.2155 -0.1711
 6292SOL    HW220328   8.552   1.815   9.318  0.4714 -0.4541 -1.4889
 6293SOL     OW20329   4.902   1.162   1.363  0.3167  0.4649 -0.5581
 6293SOL    HW120330   4.839   1.104   1.405  0.9002 -0.6575 -1.1739
 6293SOL    HW220331   4.972   1.104   1.334  1.2017  1.5651 -0.6908
 6294SOL     OW20332   1.497   0.500   7.976  0.1028 -0.0670  0.3286
 6294SOL    HW120333   1.443   0.547   7.913  0.4109  0.2111  0.2721
 6294SOL    HW220334   1.583   0.496   7.936 -0.5859 -3.4496 -1.1410
 6295SOL     OW20335   1.191   0.356   6.079  0.6861  0.4576  0.0735
 6295SOL    HW120336   1.171   0.263   6.074  1.6910  0.3193 -2.8528
 6295SOL    HW220337   1.286   0.359   6.089  0.7269  1.1641 -0.4672
 6296SOL     OW20338   6.106   0.361   3.838 -0.0495  0.6825 -0.2669
 6296SOL    HW120339   6.189   0.328   3.871 -0.2757  1.3332  1.0644
 6296SOL    HW220340   6.089   0.311   3.758  0.3777 -1.2881  0.7964
 6297SOL     OW20341   6.407   3.045   8.022  0.3012  0.3986 -0.4923
 6297SOL    HW120342   6.490   2.998   8.016  0.4893  0.6545  0.1123
 6297SOL    HW220343   6.425   3.120   8.078 -1.1965 -1.5024  2.7986
 6298SOL     OW20344   8.860   4.326   1.150 -0.8332  0.6991 -0.2733
 6298SOL    HW120345   8.804   4.346   1.224 -0.0268 -1.6834  1.0579
 6298SOL    HW220346   8.906   4.409   1.133 -2.3420  1.7832  0.6750
 6299SOL     OW20347   3.374   5.304   0.356 -0.6189  0.6936 -0.0528
 6299SOL    HW120348   3.328   5.320   0.438  0.4091 -2.3929  1.2955
 6299SOL    HW220349   3.340   5.219   0.327  0.4652  0.8135 -1.7935
 6300SOL     OW20350   4.303   6.524   0.233  0.2412 -0.0441 -0.5912
 6300SOL    HW120351   4.336   6.611   0.208  1.6768 -0.4162 -0.0985
 6300SOL    HW220352   4.211   6.525   0.206  0.6162  1.0837 -1.9798
 6301SOL     OW20353   4.438   2.946   8.205 -0.3303 -0.1162 -0.4699
 6301SOL    HW120354   4.350   2.930   8.170 -0.3503  0.0742 -0.5103
 6301SOL    HW220355   4.463   3.031   8.168 -0.9125  0.7581  1.0199
 6302SOL     OW20356   1.166   7.296   6.551  0.4122  0.1611 -0.2412
 6302SOL    HW120357   1.110   7.362   6.510 -0.5310  0.0774  0.8613
 6302SOL    HW220358   1.208   7.252   6.478 -0.0465  1.0275 -1.0522
 6303SOL     OW20359   0.506   0.234   5.659 -0.1465 -0.2663  0.3765
 6303SOL    HW120360   0.530   0.151   5.701 -1.7762 -0.6224  0.6868
 6303SOL    HW220361   0.525   0.220   5.566  0.4677 -0.6346  0.5483
 6304SOL     OW20362   4.264   0.164   3.726  0.0858 -0.2043 -0.2487
 6304SOL    HW120363   4.196   0.125   3.671 -0.5963  1.0902 -0.3588
 6304SOL    HW220364   4.223   0.173   3.812  0.2046  0.3563 -0.2506
 6305SOL     OW20365   7.681   8.650   2.347  0.1731  0.2673  0.0983
 6305SOL    HW120366   7.625   8.722   2.320  0.6287  0.6021  0.0277
 6305SOL    HW220367   7.677   8.588   2.275  0.5627  0.6798 -0.2823
 6306SOL     OW20368   6.843   3.925   4.757  0.1456 -0.4070  0.0584
 6306SOL    HW120369   6.761   3.971   4.743 -0.1666 -1.0292 -0.2021
 6306SOL    HW220370   6.834   3.844   4.707 -0.0278 -1.5790  1.9155
 6307SOL     OW20371   3.230   4.144   1.318 -0.1290 -0.0237 -0.8171
 6307SOL    HW120372   3.317   4.183   1.324 -1.2921  2.5583  0.7076
 6307SOL    HW220373   3.191   4.185   1.240  0.5072 -2.4662 -2.5463
 6308SOL     OW20374   6.170   5.837   2.627  0.5782  0.2192  0.0088
 6308SOL    HW120375   6.163   5.777   2.553  0.7007  1.3209 -0.9339
 6308SOL    HW220376   6.156   5.924   2.589 -0.9715  0.7064  1.5575
 6309SOL     OW20377   6.720   3.860   5.643  0.6395  0.2784  0.2302
 6309SOL    HW120378   6.661   3.905   5.583  1.5477  0.7202 -0.3591
 6309SOL    HW220379   6.791   3.827   5.587  2.0458  1.5908  1.1647
 6310SOL     OW20380   8.645   6.224   0.723  0.0832 -0.1830  0.2739
 6310SOL    HW120381   8.630   6.143   0.771  1.4856 -0.3311  0.5082
 6310SOL    HW220382   8.717   6.203   0.664 -1.3845  0.0897 -1.7008
 6311SOL     OW20383   2.415   2.664   6.457 -0.9065 -0.2026  0.1392
 6311SOL    HW120384   2.374   2.593   6.407 -1.6077  0.6626 -0.5405
 6311SOL    HW220385   2.374   2.744   6.424 -1.4439  0.4009  2.1780
 6312SOL     OW20386   4.008   1.468   5.741  0.0448  0.3044 -0.0545
 6312SOL    HW120387   4.014   1.541   5.680 -0.1104  0.4096  0.0548
 6312SOL    HW220388   3.982   1.393   5.687  1.1835  0.0970 -0.3415
 6313SOL     OW20389   0.420   7.707   8.603  0.1791 -0.3725 -0.2539
 6313SOL    HW120390   0.388   7.796   8.587 -0.6635 -0.5770  0.2309
 6313SOL    HW220391   0.343   7.652   8.592  0.5910 -0.9927 -0.0576
 6314SOL     OW20392   3.295   6.307   1.826  0.2639  0.1766  0.5147
 6314SOL    HW120393   3.370   6.249   1.812  0.0575  0.0969 -0.2573
 6314SOL    HW220394   3.220   6.259   1.794 -0.2636 -0.0803  2.0607
 6315SOL     OW20395   1.939   2.721   6.263 -0.1166  0.1154  0.0493
 6315SOL    HW120396   2.004   2.785   6.238 -0.3804  0.7403  0.9173
 6315SOL    HW220397   1.950   2.649   6.201 -0.1839  1.2277 -1.2916
 6316SOL     OW20398   6.667   0.912   5.276  0.0290  1.0563 -0.5206
 6316SOL    HW120399   6.697   0.977   5.212  0.4031  0.4767 -0.9494
 6316SOL    HW220400   6.636   0.839   5.222 -1.2078  1.2227 -0.0643
 6317SOL     OW20401   2.682   8.602   7.702  0.4177 -0.1703  0.1078
 6317SOL    HW120402   2.759   8.618   7.756  1.0164  1.9146 -1.2262
 6317SOL    HW220403   2.680   8.507   7.690  2.8869 -0.2887  0.0617
 6318SOL     OW20404   7.545   4.221   4.773 -0.3882  0.3625 -0.8388
 6318SOL    HW120405   7.494   4.199   4.851  0.8058  0.9221  0.1381
 6318SOL    HW220406   7.485   4.206   4.700 -1.0863 -1.5719  0.0685
 6319SOL     OW20407   8.328   8.068   6.327  0.4067  0.0161  0.1052
 6319SOL    HW120408   8.343   8.150   6.374 -0.8329  0.6706 -0.6128
 6319SOL    HW220409   8.297   8.095   6.240  0.3529 -1.2105 -0.2777
 6320SOL     OW20410   3.704   8.441   0.587  0.0293  0.0876  0.0289
 6320SOL    HW120411   3.776   8.447   0.650  0.9242 -2.4822 -0.6425
 6320SOL    HW220412   3.747   8.432   0.502 -1.0166 -2.1022 -0.3267
 6321SOL     OW20413   5.141   4.913   6.664  0.0946 -0.0745 -0.3458
 6321SOL    HW120414   5.088   4.981   6.706 -1.4861 -0.2199 -1.9617
 6321SOL    HW220415   5.215   4.959   6.627 -0.9726  0.8282 -1.4398
 6322SOL     OW20416   0.539   8.396   9.275  0.2713 -0.1000  0.5042
 6322SOL    HW120417   0.483   8.322   9.252  1.5710 -0.6936 -0.9467
 6322SOL    HW220418   0.627   8.359   9.278  0.8047  1.1459  1.0502
 6323SOL     OW20419   4.930   7.305   9.082 -0.5230  0.0362 -0.0743
 6323SOL    HW120420   4.987   7.380   9.101 -0.4560 -0.2483  0.9148
 6323SOL    HW220421   4.919   7.307   8.987 -1.7079  2.1653  0.0305
 6324SOL     OW20422   7.903   2.972   1.609 -0.3632  0.1812  0.0133
 6324SOL    HW120423   7.899   3.068   1.611  3.1449  0.5397 -2.3860
 6324SOL    HW220424   7.817   2.946   1.578 -0.9013  2.6779 -0.8496
 6325SOL     OW20425   4.157   8.256   3.996 -0.1572  0.3717 -0.1083
 6325SOL    HW120426   4.205   8.339   3.990  1.9898 -0.7554  0.4066
 6325SOL    HW220427   4.195   8.212   4.072 -0.7093 -1.4253 -0.8169
 6326SOL     OW20428   1.545   6.953   9.168  0.1937 -0.1921  0.2851
 6326SOL    HW120429   1.481   6.975   9.236  1.2016  1.0704  0.8645
 6326SOL    HW220430   1.612   6.901   9.213  0.3800 -0.1688  0.0388
 6327SOL     OW20431   8.603   3.956   1.196 -0.0059 -0.5996  0.2299
 6327SOL    HW120432   8.617   4.032   1.139 -1.4950 -0.2317  0.3028
 6327SOL    HW220433   8.566   3.889   1.139 -2.9477  0.2697  0.9313
 6328SOL     OW20434   1.134   8.743   4.648 -0.3764 -0.4433 -0.0976
 6328SOL    HW120435   1.219   8.700   4.639 -0.7007 -1.5148  1.5366
 6328SOL    HW220436   1.098   8.744   4.560  0.6911 -1.3262 -0.5658
 6329SOL     OW20437   2.758   8.231   0.616 -0.8827 -0.1579  0.6507
 6329SOL    HW120438   2.786   8.161   0.557 -0.1153 -2.2792  3.3068
 6329SOL    HW220439   2.837   8.281   0.631 -0.6999 -0.5586  1.0480
 6330SOL     OW20440   7.963   5.447   0.710  0.2480 -0.1686 -0.0598
 6330SOL    HW120441   7.963   5.364   0.758 -0.3399  1.1356  2.3990
 6330SOL    HW220442   7.870   5.464   0.692  0.4211 -0.3549 -1.1737
 6331SOL     OW20443   7.170   5.941   3.502 -0.4220  0.2571 -0.1651
 6331SOL    HW120444   7.226   5.863   3.496 -0.0378  0.3006  2.0408
 6331SOL    HW220445   7.231   6.014   3.514 -0.5862  1.4220 -4.6242
 6332SOL     OW20446   4.367   6.058   0.616  0.0931 -0.0167 -0.1612
 6332SOL    HW120447   4.425   6.093   0.548  0.2912 -0.6500 -0.3212
 6332SOL    HW220448   4.281   6.053   0.575  0.1437 -0.0822 -0.2582
 6333SOL     OW20449   2.108   3.192   9.077 -0.2687  0.6627  0.5516
 6333SOL    HW120450   2.175   3.222   9.016 -0.2019  0.1152  0.3472
 6333SOL    HW220451   2.044   3.263   9.079 -0.3878  0.5882 -0.3335
 6334SOL     OW20452   9.236   7.339   1.954 -0.4365  0.7226 -0.3632
 6334SOL    HW120453   9.201   7.307   2.037 -0.3417 -0.4715 -0.7636
 6334SOL    HW220454   9.196   7.426   1.943  0.4889  1.4375  1.4924
 6335SOL     OW20455   2.330   5.967   1.646 -0.5440 -0.0246 -0.0611
 6335SOL    HW120456   2.348   5.927   1.731 -0.1334  2.2809  1.0142
 6335SOL    HW220457   2.412   5.956   1.597 -0.4469 -0.4932  0.1990
 6336SOL     OW20458   5.887   2.643   3.441 -0.3678  0.1875 -0.4539
 6336SOL    HW120459   5.965   2.598   3.472 -0.6994  0.3295  0.6333
 6336SOL    HW220460   5.828   2.645   3.517 -1.9908 -1.1142 -1.5954
 6337SOL     OW20461   5.491   7.843   5.917 -0.0281  0.1065 -0.0571
 6337SOL    HW120462   5.493   7.781   5.844  2.1942 -1.9704  1.5923
 6337SOL    HW220463   5.442   7.798   5.985 -0.0526  1.0014  0.5304
 6338SOL     OW20464   7.102   8.048   8.926 -0.1798 -0.3127  0.4289
 6338SOL    HW120465   7.031   8.054   8.990 -1.5576 -4.0041 -0.5043
 6338SOL    HW220466   7.149   7.968   8.949  1.0207 -0.2391 -1.5255
 6339SOL     OW20467   5.707   6.650   8.452  0.3568 -0.0651  0.0226
 6339SOL    HW120468   5.688   6.571   8.401 -0.7094  0.9714 -1.2408
 6339SOL    HW220469   5.681   6.627   8.542 -2.3035 -0.3754 -0.7418
 6340SOL     OW20470   3.100   1.436   2.085  0.2604  0.4042  0.4548
 6340SOL    HW120471   3.098   1.488   2.166  0.4156  0.5232  0.3830
 6340SOL    HW220472   3.173   1.472   2.035  0.7526 -0.2753  0.6658
 6341SOL     OW20473   2.230   5.964   6.700  0.5263  0.1572 -0.3698
 6341SOL    HW120474   2.260   5.965   6.791 -0.8720 -2.3333  0.2112
 6341SOL    HW220475   2.259   6.048   6.664  2.4338  0.5844  1.9176
 6342SOL     OW20476   6.126   3.139   2.384 -0.5226 -0.0807 -0.1675
 6342SOL    HW120477   6.195   3.121   2.448  0.1320  2.0142 -0.1983
 6342SOL    HW220478   6.056   3.076   2.405  0.8694 -1.4178  0.6554
 6343SOL     OW20479   4.594   8.620   4.829 -0.8208 -0.0305  0.2714
 6343SOL    HW120480   4.622   8.543   4.779  0.3550  1.4299 -1.4642
 6343SOL    HW220481   4.676   8.659   4.861 -1.4440  0.1338  1.7609
 6344SOL     OW20482   0.078   8.854   4.708  0.4551 -0.4728  0.4288
 6344SOL    HW120483   0.032   8.934   4.681  2.5291  0.0607 -1.8485
 6344SOL    HW220484   0.039   8.785   4.655  0.0289 -0.6488  0.9564
 6345SOL     OW20485   3.546   0.116   6.951 -0.5191 -0.4627  0.6150
 6345SOL    HW120486   3.562   0.051   6.883 -0.4761  1.8386 -1.7761
 6345SOL    HW220487   3.452   0.133   6.947 -0.1451  1.6240 -0.9078
 6346SOL     OW20488   7.361   6.977   1.912  0.0825  0.0539  0.8925
 6346SOL    HW120489   7.429   6.933   1.964  0.1316 -0.7089  0.2011
 6346SOL    HW220490   7.330   7.048   1.968 -0.2670 -1.0980  2.1931
 6347SOL     OW20491   6.606   7.775   7.211  0.5288 -0.0882  0.0269
 6347SOL    HW120492   6.696   7.794   7.182  0.4890  1.1392  0.6229
 6347SOL    HW220493   6.592   7.836   7.284 -0.9813  0.1256 -0.4138
 6348SOL     OW20494   2.675   4.366   6.024 -0.4681  0.4320  0.2717
 6348SOL    HW120495   2.596   4.313   6.012  0.3508 -0.5833 -0.9461
 6348SOL    HW220496   2.680   4.381   6.118 -1.3968 -0.6194  0.5061
 6349SOL     OW20497   5.888   4.138   6.013 -0.5914  0.0814  0.3040
 6349SOL    HW120498   5.914   4.048   5.995 -0.9090 -0.0354  0.4328
 6349SOL    HW220499   5.900   4.183   5.929 -1.1219 -0.2420  0.0512
 6350SOL     OW20500   4.812   2.514   6.390  0.1743  0.2160  0.2413
 6350SOL    HW120501   4.819   2.607   6.412 -1.9343  0.4840  0.0063
 6350SOL    HW220502   4.899   2.478   6.408  1.3568  2.4249 -0.6362
 6351SOL     OW20503   4.822   0.335   0.883 -0.0476  1.0226 -0.4885
 6351SOL    HW120504   4.775   0.367   0.960  0.0645  1.1023 -0.4532
 6351SOL    HW220505   4.913   0.357   0.899  0.3243 -0.9598  0.3866
 6352SOL     OW20506   2.431   7.910   5.277 -0.0582  0.6023  0.3468
 6352SOL    HW120507   2.405   7.908   5.185 -1.4969  0.6535  0.7222
 6352SOL    HW220508   2.398   7.827   5.312  1.2577  0.1840  0.6357
 6353SOL     OW20509   5.921   0.655   1.483  0.2559  0.1778 -0.1789
 6353SOL    HW120510   5.908   0.749   1.477  1.5063  0.4511  1.0135
 6353SOL    HW220511   6.013   0.641   1.460  0.0469 -0.7900 -0.5220
 6354SOL     OW20512   1.922   0.693   8.904 -0.5548  0.1265 -0.0460
 6354SOL    HW120513   1.885   0.755   8.967 -0.4764 -0.8275  0.9693
 6354SOL    HW220514   1.977   0.747   8.848 -1.4969  1.1736 -0.0015
 6355SOL     OW20515   8.260   2.682   3.745 -0.4631  0.1384 -0.2232
 6355SOL    HW120516   8.266   2.758   3.687 -1.3353  1.4312  1.3172
 6355SOL    HW220517   8.173   2.646   3.728  0.3891 -1.3103 -1.8261
 6356SOL     OW20518   5.897   7.837   2.982  0.1491 -0.2251  0.3356
 6356SOL    HW120519   5.846   7.803   3.055 -1.7286  0.9358 -0.3818
 6356SOL    HW220520   5.926   7.759   2.934 -2.5693 -0.9364 -0.3016
 6357SOL     OW20521   4.502   8.675   8.612  0.0723  0.3430 -0.0843
 6357SOL    HW120522   4.431   8.611   8.620  1.4791 -1.0726  2.0403
 6357SOL    HW220523   4.532   8.666   8.521 -0.3659 -1.3759 -0.0960
 6358SOL     OW20524   2.349   0.062   8.413 -0.5349  0.3098  0.8722
 6358SOL    HW120525   2.443   0.051   8.406 -0.6989 -0.0793 -1.1608
 6358SOL    HW220526   2.332   0.149   8.376 -1.0950 -0.2134 -0.1486
 6359SOL     OW20527   9.275   4.990   2.509  0.3132 -0.4378  0.1753
 6359SOL    HW120528   9.290   4.911   2.457 -0.9058  0.2785 -1.3329
 6359SOL    HW220529   9.274   4.959   2.599 -0.9216 -2.2962 -0.4138
 6360SOL     OW20530   0.012   9.208   0.321  0.0144 -0.1777 -0.4047
 6360SOL    HW120531   0.099   9.200   0.360 -0.5114  1.1467  1.1809
 6360SOL    HW220532  -0.033   9.128   0.347 -0.1992  0.5070  1.5054
 6361SOL     OW20533   1.941   2.906   8.090 -0.2029  0.6293 -0.4074
 6361SOL    HW120534   1.869   2.969   8.094  0.0319  0.8364  2.0075
 6361SOL    HW220535   1.966   2.892   8.181  2.4632  0.1253 -1.1221
 6362SOL     OW20536   9.108   0.652   5.857 -0.0192 -0.4165  0.4543
 6362SOL    HW120537   9.091   0.747   5.855 -1.1323 -0.6176 -0.1148
 6362SOL    HW220538   9.203   0.645   5.858  0.0853  0.7247  1.3493
 6363SOL     OW20539   2.745   2.106   4.109  0.3981  0.3059  0.1684
 6363SOL    HW120540   2.838   2.124   4.125  0.1148  0.8205  1.3756
 6363SOL    HW220541   2.744   2.059   4.026  1.5775  2.0575 -0.9181
 6364SOL     OW20542   5.351   1.953   6.989  0.7055  0.5162 -0.1861
 6364SOL    HW120543   5.291   1.980   7.059  0.0412 -1.1970 -0.0293
 6364SOL    HW220544   5.372   1.862   7.010  0.1741 -0.1759 -2.4037
 6365SOL     OW20545   5.568   5.672   8.895 -0.0009  0.4349  0.4392
 6365SOL    HW120546   5.517   5.742   8.934 -0.8309 -0.2252  0.5889
 6365SOL    HW220547   5.503   5.618   8.850  0.6956  0.1126 -0.2131
 6366SOL     OW20548   2.848   5.729   9.255  0.3189 -0.0260  0.7324
 6366SOL    HW120549   2.776   5.787   9.230  0.7464  1.1183  2.0486
 6366SOL    HW220550   2.865   5.750   9.346  1.5779 -1.0940  0.7674
 6367SOL     OW20551   0.226   3.358   6.969  0.3592  0.0205  0.2534
 6367SOL    HW120552   0.181   3.425   7.021  0.2445 -0.4441  0.7553
 6367SOL    HW220553   0.307   3.401   6.941  0.5851  0.1708  1.0919
 6368SOL     OW20554   5.670   0.185   5.876 -0.0696  0.2967 -0.6377
 6368SOL    HW120555   5.645   0.217   5.789  0.9406 -0.1888 -1.1229
 6368SOL    HW220556   5.623   0.242   5.936 -1.5537  0.0346 -1.4922
 6369SOL     OW20557   2.661   5.390   8.276 -0.4739 -0.4932 -0.0569
 6369SOL    HW120558   2.732   5.435   8.231  0.3164 -0.5644  1.1045
 6369SOL    HW220559   2.701   5.351   8.353 -1.3373 -2.3810 -0.5069
 6370SOL     OW20560   6.072   6.549   7.528 -0.0002  0.1130  0.1423
 6370SOL    HW120561   6.053   6.628   7.477  1.7067 -0.3010 -1.2423
 6370SOL    HW220562   6.071   6.478   7.464  2.2595 -0.4140  0.5919
 6371SOL     OW20563   2.148   0.606   5.675 -0.0314  0.1327  0.3161
 6371SOL    HW120564   2.067   0.653   5.658  0.7789  1.6117  0.3565
 6371SOL    HW220565   2.186   0.591   5.588  0.4847  1.0063  0.3813
 6372SOL     OW20566   2.411   8.430   2.801  0.4393  0.2258  0.3998
 6372SOL    HW120567   2.338   8.429   2.862  1.1023  2.2401  1.3115
 6372SOL    HW220568   2.476   8.372   2.841 -0.3625 -1.0485 -0.0866
 6373SOL     OW20569   1.540   1.287   5.094 -0.2241  0.1840  0.3386
 6373SOL    HW120570   1.477   1.222   5.123 -0.8890 -0.4907 -2.3828
 6373SOL    HW220571   1.624   1.241   5.093 -0.4576 -0.2302 -0.2697
 6374SOL     OW20572   3.419   0.651   4.534 -0.2638 -0.2244  0.7481
 6374SOL    HW120573   3.326   0.650   4.510 -0.0895  0.3476 -0.0075
 6374SOL    HW220574   3.465   0.651   4.450  0.4845 -2.5800  1.0830
 6375SOL     OW20575   7.377   1.944   3.652  0.8396  0.2324 -0.2874
 6375SOL    HW120576   7.358   2.018   3.709 -3.5758  0.7836 -2.0682
 6375SOL    HW220577   7.332   1.870   3.692  3.8284 -1.2346  0.6058
 6376SOL     OW20578   2.821   1.997   6.197  0.6014  0.4407  0.1085
 6376SOL    HW120579   2.824   2.050   6.277  1.0304 -0.8548  0.9921
 6376SOL    HW220580   2.822   1.907   6.229  0.7113 -0.1040 -1.3713
 6377SOL     OW20581   3.517   7.110   1.964  0.3625  0.2167  0.2723
 6377SOL    HW120582   3.493   7.146   1.879 -0.9723 -2.5447 -0.6051
 6377SOL    HW220583   3.612   7.098   1.959  0.1585 -1.0491 -1.3452
 6378SOL     OW20584   3.478   5.042   3.855 -0.7397  0.1324  0.2606
 6378SOL    HW120585   3.411   5.013   3.917 -2.5195 -0.1671 -1.7049
 6378SOL    HW220586   3.435   5.038   3.769  1.5751  0.6646 -1.0031
 6379SOL     OW20587   8.339   2.425   0.534  0.9125  0.0674 -0.9577
 6379SOL    HW120588   8.403   2.444   0.603 -1.3209  1.3909  0.8764
 6379SOL    HW220589   8.276   2.366   0.575  0.7660 -1.0382 -2.6584
 6380SOL     OW20590   8.524   8.201   9.034 -0.3104  0.2560 -0.4685
 6380SOL    HW120591   8.459   8.255   9.080 -0.9336  0.0762 -1.1361
 6380SOL    HW220592   8.476   8.158   8.964  0.9132  1.8212 -2.4047
 6381SOL     OW20593   1.939   8.945   1.159  0.3818  0.0777  0.3522
 6381SOL    HW120594   2.004   8.876   1.146 -0.6561 -0.8132 -0.1741
 6381SOL    HW220595   1.865   8.901   1.200  0.0115  1.0454  0.7438
 6382SOL     OW20596   6.375   5.868   5.886  0.4826  0.8415 -0.3016
 6382SOL    HW120597   6.307   5.831   5.943 -0.6405  2.2239 -0.6782
 6382SOL    HW220598   6.457   5.837   5.923 -0.3149 -0.2960  0.6007
 6383SOL     OW20599   3.202   7.166   6.875 -0.4076 -0.1257 -0.9366
 6383SOL    HW120600   3.250   7.248   6.889 -1.7783  0.3565  1.4668
 6383SOL    HW220601   3.167   7.174   6.786 -0.3383  1.8397 -0.8399
 6384SOL     OW20602   8.481   8.657   6.885  0.1099 -0.3757  0.3872
 6384SOL    HW120603   8.398   8.614   6.908  0.6886 -1.4431  0.5173
 6384SOL    HW220604   8.494   8.721   6.955 -0.0932 -0.9122  0.9288
 6385SOL     OW20605   4.673   1.563   6.989  0.3261 -0.6042  0.4957
 6385SOL    HW120606   4.678   1.486   7.046  1.0774 -1.6977 -0.9532
 6385SOL    HW220607   4.754   1.559   6.937 -0.1919  0.4979 -0.4331
 6386SOL     OW20608   0.916   4.354   4.167 -0.4153 -0.5698  0.5167
 6386SOL    HW120609   0.972   4.277   4.168 -1.3279 -1.2410  1.3639
 6386SOL    HW220610   0.837   4.328   4.214 -0.3602  1.1612  1.6677
 6387SOL     OW20611   2.525   3.014   5.813 -0.2103 -0.2130 -0.2775
 6387SOL    HW120612   2.606   3.023   5.863 -0.5828 -1.2046  0.5386
 6387SOL    HW220613   2.552   3.020   5.722  0.5809  0.9128  0.0147
 6388SOL     OW20614   7.854   7.329   4.217  0.5138  0.6609 -0.4828
 6388SOL    HW120615   7.911   7.257   4.242  0.7559  0.0389 -2.6314
 6388SOL    HW220616   7.900   7.408   4.247  0.5959 -0.0047  1.2317
 6389SOL     OW20617   8.376   5.573   6.757 -0.2323 -0.0952  0.2938
 6389SOL    HW120618   8.440   5.584   6.827  0.9627 -0.6192 -0.6978
 6389SOL    HW220619   8.402   5.492   6.713 -2.7194 -1.4222  1.0410
 6390SOL     OW20620   7.625   5.054   7.617 -0.7690 -0.7496 -0.3263
 6390SOL    HW120621   7.647   4.962   7.633 -3.1440 -1.4876 -0.9542
 6390SOL    HW220622   7.537   5.052   7.580 -1.0063  1.8156 -0.0946
 6391SOL     OW20623   4.863   5.867   1.460  0.0562  0.1292 -0.3499
 6391SOL    HW120624   4.835   5.894   1.547  0.0893  1.3179 -0.6908
 6391SOL    HW220625   4.958   5.879   1.460  0.1972 -0.8728 -0.2229
 6392SOL     OW20626   5.321   1.761   5.374  0.1470 -1.4847 -0.2793
 6392SOL    HW120627   5.298   1.854   5.373 -0.3494 -1.5959 -2.1032
 6392SOL    HW220628   5.315   1.734   5.283  0.7331 -3.2134  0.1635
 6393SOL     OW20629   3.143   4.255   7.269  0.4677  0.1346 -0.1215
 6393SOL    HW120630   3.110   4.254   7.359  0.6834 -2.2099 -0.0029
 6393SOL    HW220631   3.094   4.186   7.225  0.6800  0.9537 -1.7001
 6394SOL     OW20632   2.725   7.606   8.879 -0.4047  0.1868  0.2328
 6394SOL    HW120633   2.644   7.638   8.918 -1.4147 -1.6509 -0.2234
 6394SOL    HW220634   2.793   7.663   8.914 -1.6681  0.6368  2.0745
 6395SOL     OW20635   1.553   3.112   1.468  0.6003  0.6016  0.2497
 6395SOL    HW120636   1.550   3.032   1.520  0.5274  0.1488 -0.4391
 6395SOL    HW220637   1.473   3.159   1.490 -0.4705 -0.5732 -0.9889
 6396SOL     OW20638   3.251   5.996   3.982  0.5873  0.0356  0.7040
 6396SOL    HW120639   3.258   6.060   4.052 -0.0788 -0.2166  1.0084
 6396SOL    HW220640   3.164   5.956   3.994  1.1970 -1.2979  0.8476
 6397SOL     OW20641   1.271   1.456   6.069  0.3511 -0.1541 -0.6395
 6397SOL    HW120642   1.301   1.376   6.025  1.1386 -1.5722  2.1950
 6397SOL    HW220643   1.181   1.437   6.096  0.9663 -0.6965  1.1873
 6398SOL     OW20644   7.904   2.417   3.371  0.1075 -0.3782  0.3113
 6398SOL    HW120645   7.962   2.430   3.296 -1.3368  1.3334 -0.5881
 6398SOL    HW220646   7.881   2.324   3.368  0.7468 -0.5184 -0.8411
 6399SOL     OW20647   6.868   6.631   6.038  0.4220  0.3021 -0.3786
 6399SOL    HW120648   6.870   6.672   5.952 -2.3895  1.5331  0.0209
 6399SOL    HW220649   6.943   6.668   6.084  0.2237  2.0388 -1.3477
 6400SOL     OW20650   6.883   3.383   7.959 -0.1917 -0.6508 -0.2547
 6400SOL    HW120651   6.875   3.409   7.867  0.0970 -0.1618 -0.1455
 6400SOL    HW220652   6.793   3.368   7.988 -0.4258  0.7570 -0.1819
 6401SOL     OW20653   1.593   4.835   4.287  0.3490  0.7058 -0.6544
 6401SOL    HW120654   1.536   4.862   4.215  1.0690  1.3903 -0.9822
 6401SOL    HW220655   1.601   4.913   4.342  1.7534  0.9370 -1.1443
 6402SOL     OW20656   7.288   7.414   8.680 -0.0859  0.2837 -0.0477
 6402SOL    HW120657   7.375   7.406   8.641 -0.4066  0.4350 -0.8183
 6402SOL    HW220658   7.265   7.326   8.709  0.4130  0.2866  0.3586
 6403SOL     OW20659   1.889   3.834   7.423  0.6054  0.3095  0.2025
 6403SOL    HW120660   1.914   3.750   7.385 -0.7215 -0.6090  1.3106
 6403SOL    HW220661   1.953   3.896   7.386  0.7665 -0.9114 -1.7045
 6404SOL     OW20662   4.162   0.312   0.398 -0.7494 -0.1647  0.8688
 6404SOL    HW120663   4.095   0.364   0.444 -0.5858  0.3996  0.4740
 6404SOL    HW220664   4.242   0.327   0.448 -0.8695 -0.6972  1.2348
 6405SOL     OW20665   4.522   2.068   2.129 -0.2076 -0.8822 -0.2423
 6405SOL    HW120666   4.493   2.110   2.048 -0.5695 -0.3347  0.1618
 6405SOL    HW220667   4.570   1.990   2.100  0.0051 -0.4822 -0.9872
 6406SOL     OW20668   9.146   8.997   5.905  1.1427 -0.0658  0.1880
 6406SOL    HW120669   9.075   8.950   5.862  0.7745  0.2784  0.4134
 6406SOL    HW220670   9.225   8.950   5.880  0.9113 -0.0034 -0.6804
 6407SOL     OW20671   2.933   9.145   3.961 -0.0663 -0.0318 -0.2526
 6407SOL    HW120672   3.007   9.185   4.007 -1.2284  2.6047 -0.5107
 6407SOL    HW220673   2.930   9.056   3.995  2.1878  0.2921  1.0014
 6408SOL     OW20674   3.868   4.130   5.308  0.3864 -0.0114  0.4537
 6408SOL    HW120675   3.887   4.111   5.400 -0.7497 -1.3048  0.4528
 6408SOL    HW220676   3.885   4.048   5.262 -0.6196  0.1481 -0.2354
 6409SOL     OW20677   0.474   6.889   0.388 -0.6799 -0.3443 -0.4434
 6409SOL    HW120678   0.499   6.851   0.472 -0.0478  2.2064  0.6074
 6409SOL    HW220679   0.557   6.911   0.346 -0.9826  1.4242 -0.2112
 6410SOL     OW20680   3.065   3.694   0.525 -0.2022  0.1880  0.2183
 6410SOL    HW120681   3.110   3.748   0.460 -0.7563 -0.5499 -0.8122
 6410SOL    HW220682   3.003   3.642   0.474 -0.3052 -0.7791  1.2872
 6411SOL     OW20683   7.484   3.612   8.333 -0.1893  0.1756  0.1505
 6411SOL    HW120684   7.515   3.554   8.402  0.3445 -0.0602 -0.2774
 6411SOL    HW220685   7.552   3.680   8.326 -2.7973  3.6113  3.7584
 6412SOL     OW20686   3.505   6.354   8.336 -0.8169  0.3983 -0.5589
 6412SOL    HW120687   3.543   6.350   8.424 -0.7643 -0.7810 -0.6116
 6412SOL    HW220688   3.417   6.389   8.349 -0.5395  0.9444 -0.1346
 6413SOL     OW20689   5.771   4.080   5.726  0.1647 -0.0528  0.3589
 6413SOL    HW120690   5.798   3.996   5.688  1.8356  1.1098 -1.2221
 6413SOL    HW220691   5.849   4.114   5.768  0.2706  1.7689 -1.1489
 6414SOL     OW20692   3.695   8.561   7.255  0.1609 -0.1098 -0.2010
 6414SOL    HW120693   3.630   8.512   7.206 -0.2202  1.6318 -1.5050
 6414SOL    HW220694   3.695   8.520   7.342 -0.3060 -2.2077 -1.1249
 6415SOL     OW20695   4.697   6.304   3.016  0.3586  0.2731  0.0400
 6415SOL    HW120696   4.735   6.279   3.100  2.4856 -0.3287 -1.0004
 6415SOL    HW220697   4.762   6.275   2.952 -1.1674  0.7452 -1.8129
 6416SOL     OW20698   4.310   4.087   6.599 -0.5228  0.5215 -0.0494
 6416SOL    HW120699   4.365   4.035   6.657 -2.0921  1.2208  2.1764
 6416SOL    HW220700   4.333   4.178   6.620  0.7737  0.8600 -2.4932
 6417SOL     OW20701   6.958   4.481   7.923 -0.6749 -0.3228  1.0614
 6417SOL    HW120702   6.886   4.534   7.957  0.6414  2.1690  0.1757
 6417SOL    HW220703   7.036   4.534   7.938  0.5507 -1.3204 -1.3312
 6418SOL     OW20704   5.414   0.855   4.327 -0.5831  1.0021 -0.0950
 6418SOL    HW120705   5.331   0.831   4.370 -0.1266  1.6793  1.2201
 6418SOL    HW220706   5.437   0.778   4.275 -1.9073  0.7113 -0.2951
 6419SOL     OW20707   1.744   0.744   8.096  0.7918  0.1654 -0.3327
 6419SOL    HW120708   1.811   0.678   8.114  0.7189  0.2925  0.4680
 6419SOL    HW220709   1.661   0.697   8.102  0.7989  0.0043 -1.3427
 6420SOL     OW20710   0.205   3.269   6.634 -0.0674 -0.2611  0.2534
 6420SOL    HW120711   0.281   3.231   6.678 -0.3770 -0.2327  0.8260
 6420SOL    HW220712   0.200   3.358   6.668  0.3994  0.1699 -0.7600
 6421SOL     OW20713   2.494   6.967   0.884  0.1347  0.2710 -0.0448
 6421SOL    HW120714   2.418   6.910   0.870  0.3034 -0.1609  0.7364
 6421SOL    HW220715   2.569   6.908   0.885  0.6756  0.8461 -2.2438
 6422SOL     OW20716   4.675   7.917   0.482  0.2245  0.2231 -0.2213
 6422SOL    HW120717   4.733   7.881   0.415  1.4183  1.4134  0.1325
 6422SOL    HW220718   4.718   7.896   0.565  0.5597  1.7063  0.0216
 6423SOL     OW20719   8.340   3.146   7.996 -0.1639 -0.3292 -0.1475
 6423SOL    HW120720   8.431   3.125   8.018 -1.0582 -2.2687  2.1685
 6423SOL    HW220721   8.312   3.204   8.066 -1.0155 -0.6562 -0.2115
 6424SOL     OW20722   3.516   8.365   2.765  0.5045  0.2444 -0.0031
 6424SOL    HW120723   3.446   8.419   2.801  1.0671  0.0291  1.4800
 6424SOL    HW220724   3.494   8.276   2.792  1.2438  0.1513  0.3034
 6425SOL     OW20725   6.766   4.161   2.029 -0.2126 -0.5050  0.0873
 6425SOL    HW120726   6.713   4.238   2.005  0.3143 -0.1292  0.1143
 6425SOL    HW220727   6.750   4.149   2.122  1.0380  0.6459  0.4879
 6426SOL     OW20728   5.495   2.443   5.732 -0.1628  0.2030 -0.2963
 6426SOL    HW120729   5.424   2.417   5.790 -0.5484 -0.4133 -1.0151
 6426SOL    HW220730   5.458   2.433   5.644  0.3991  1.1331 -0.6463
 6427SOL     OW20731   7.951   0.133   5.837 -0.0007  0.3148  0.1284
 6427SOL    HW120732   7.919   0.097   5.920 -0.0290  1.6927  0.7493
 6427SOL    HW220733   8.014   0.200   5.863 -0.8395  1.5592 -0.9081
 6428SOL     OW20734   6.586   5.200   6.959  0.1333 -0.0801  0.0532
 6428SOL    HW120735   6.629   5.122   6.994  0.9835  0.1126 -0.5253
 6428SOL    HW220736   6.609   5.270   7.021  0.1365 -0.1054  0.0806
 6429SOL     OW20737   8.923   0.883   0.969 -0.6630  0.8034 -0.3235
 6429SOL    HW120738   8.994   0.945   0.984 -0.3284  0.0662  1.3647
 6429SOL    HW220739   8.858   0.904   1.036  0.6208 -2.2617  2.1602
 6430SOL     OW20740   1.056   3.286   6.726  0.0429 -0.2511 -0.0654
 6430SOL    HW120741   1.111   3.287   6.647 -0.7637 -0.2293 -0.6308
 6430SOL    HW220742   1.117   3.266   6.797  0.8074 -0.1110 -0.6711
 6431SOL     OW20743   7.603   6.840   3.625  0.0752  0.4919 -0.1275
 6431SOL    HW120744   7.520   6.829   3.670  0.5743 -0.0939  0.6721
 6431SOL    HW220745   7.612   6.935   3.612 -0.5929  0.5729  0.0035
 6432SOL     OW20746   3.949   6.907   7.560  0.1979 -0.4021  0.5773
 6432SOL    HW120747   3.935   6.828   7.612 -1.2319  0.1986  1.1466
 6432SOL    HW220748   3.964   6.874   7.471  3.4839 -1.4932  1.3839
 6433SOL     OW20749   3.415   4.567   1.803  0.5358  0.1750  0.5449
 6433SOL    HW120750   3.508   4.589   1.807  0.2860  1.1875  1.1298
 6433SOL    HW220751   3.372   4.636   1.854 -0.6233  0.2262 -0.4638
 6434SOL     OW20752   2.634   3.451   1.242  0.4262 -0.6490 -0.5069
 6434SOL    HW120753   2.687   3.455   1.163  0.6043  0.2990 -0.3439
 6434SOL    HW220754   2.602   3.360   1.244  1.2206 -0.9577 -1.1285
 6435SOL     OW20755   3.354   1.731   0.656  0.1204 -0.0468 -0.1759
 6435SOL    HW120756   3.364   1.641   0.686 -0.9680 -0.4831 -1.0742
 6435SOL    HW220757   3.283   1.766   0.709 -0.9712 -0.4339 -1.3523
 6436SOL     OW20758   2.717   4.560   7.631  0.2187 -0.2495 -0.0937
 6436SOL    HW120759   2.681   4.474   7.649 -0.7047  0.2883  0.7576
 6436SOL    HW220760   2.791   4.544   7.573 -1.3248 -1.4122 -1.8614
 6437SOL     OW20761   6.571   2.585   8.607 -0.0639  0.2851 -0.2432
 6437SOL    HW120762   6.558   2.667   8.655  0.1060  0.2071 -0.0637
 6437SOL    HW220763   6.495   2.531   8.631 -0.5322  0.6495 -0.9028
 6438SOL     OW20764   1.635   6.096   0.554  0.1744 -0.5472  0.2946
 6438SOL    HW120765   1.713   6.046   0.530 -0.4887 -0.9898 -1.0270
 6438SOL    HW220766   1.563   6.035   0.544 -0.4876  0.2305  0.1899
 6439SOL     OW20767   7.520   6.449   0.447  0.0578  0.1479  0.1643
 6439SOL    HW120768   7.447   6.396   0.480 -0.0022  0.6255  0.8229
 6439SOL    HW220769   7.502   6.537   0.479  0.2054  0.5624 -0.8373
 6440SOL     OW20770   5.675   9.178   5.914  0.0210 -0.0415  0.3393
 6440SOL    HW120771   5.604   9.147   5.858  0.0619 -0.4526  0.5065
 6440SOL    HW220772   5.693   9.266   5.883 -0.5311  0.0513  0.2647
 6441SOL     OW20773   6.572   7.676   4.140  0.3167  0.3712  0.1102
 6441SOL    HW120774   6.507   7.648   4.075  1.8222 -0.0195 -1.3019
 6441SOL    HW220775   6.614   7.595   4.169  1.6778  0.7581 -0.6875
 6442SOL     OW20776   6.361   6.640   2.068  0.4113  0.1509 -0.5088
 6442SOL    HW120777   6.351   6.693   1.989 -0.1106  1.0187  0.1093
 6442SOL    HW220778   6.302   6.681   2.132  1.3416 -0.0939  0.5481
 6443SOL     OW20779   9.177   5.852   3.144  0.1672 -0.0835 -0.3285
 6443SOL    HW120780   9.082   5.845   3.156  0.0379  0.5057 -0.9708
 6443SOL    HW220781   9.212   5.769   3.177 -0.2860  0.8256  2.8452
 6444SOL     OW20782   6.808   8.271   2.052  0.6011 -0.2484 -0.2493
 6444SOL    HW120783   6.775   8.348   2.007 -0.6951  0.1923  1.3390
 6444SOL    HW220784   6.889   8.299   2.094 -0.0796  0.4231  0.6695
 6445SOL     OW20785   7.836   6.885   1.752  0.2752 -0.4662  0.1651
 6445SOL    HW120786   7.854   6.824   1.823 -0.1673 -1.9280 -0.9349
 6445SOL    HW220787   7.861   6.838   1.672  1.3690  1.3661 -0.6463
 6446SOL     OW20788   3.894   8.156   4.038 -0.5724 -0.3267  0.2648
 6446SOL    HW120789   3.927   8.200   4.116  1.0792 -0.1349 -0.5078
 6446SOL    HW220790   3.967   8.159   3.976 -2.3819  1.0171 -1.9246
 6447SOL     OW20791   6.622   2.775   6.616  0.5140 -0.7919  0.3538
 6447SOL    HW120792   6.698   2.828   6.590  0.3565 -0.9776 -0.5078
 6447SOL    HW220793   6.660   2.699   6.659  0.7593 -0.2574  1.1200
 6448SOL     OW20794   1.148   8.956   4.064 -0.5743  0.0489  0.2745
 6448SOL    HW120795   1.219   8.987   4.009 -0.9218  0.8289  0.2515
 6448SOL    HW220796   1.090   9.032   4.073 -1.1294 -0.4211  0.7239
 6449SOL     OW20797   6.050   6.488   8.359 -0.8128 -0.2155 -0.3112
 6449SOL    HW120798   6.028   6.417   8.299  0.0423 -1.7319  1.0900
 6449SOL    HW220799   6.137   6.517   8.331 -1.6622  1.2155 -1.6659
 6450SOL     OW20800   8.873   3.774   5.542  0.4800  0.1600 -0.4821
 6450SOL    HW120801   8.885   3.862   5.578  1.4280  0.5679 -1.7182
 6450SOL    HW220802   8.920   3.776   5.458  0.9331 -1.6841 -0.3107
 6451SOL     OW20803   0.450   3.954   3.239  0.5193  0.1967 -0.5272
 6451SOL    HW120804   0.528   3.936   3.291  0.7542 -0.4819 -1.0915
 6451SOL    HW220805   0.466   3.909   3.156 -1.2093 -1.4512 -0.0446
 6452SOL     OW20806   5.305   8.662   1.726  0.2600 -0.6355 -0.2028
 6452SOL    HW120807   5.212   8.685   1.724  0.1541 -0.7353  1.6732
 6452SOL    HW220808   5.350   8.744   1.703 -0.2582 -0.0758  0.7232
 6453SOL     OW20809   3.830   6.998   3.671  0.2011 -0.0169 -0.1423
 6453SOL    HW120810   3.773   7.049   3.614  1.3632  0.9210 -0.5052
 6453SOL    HW220811   3.793   7.010   3.759  0.7764  2.0143 -0.1192
 6454SOL     OW20812   2.301   2.257   6.820  0.1905 -0.4014  0.0230
 6454SOL    HW120813   2.310   2.329   6.758 -2.0188  0.3900  0.5360
 6454SOL    HW220814   2.239   2.289   6.886 -0.2297 -2.4708  0.7140
 6455SOL     OW20815   0.151   1.741   2.407  0.0352 -0.7272 -0.2116
 6455SOL    HW120816   0.228   1.783   2.371 -0.3380 -1.4450 -1.9688
 6455SOL    HW220817   0.185   1.668   2.459  0.6092  0.7200  1.5372
 6456SOL     OW20818   3.043   7.364   6.240  0.1318  0.7127 -0.0233
 6456SOL    HW120819   3.063   7.300   6.173 -0.9548 -1.0082  1.2153
 6456SOL    HW220820   2.947   7.371   6.238  0.1201  0.9866  1.0120
 6457SOL     OW20821   2.617   3.009   5.546 -0.1941 -0.0250 -0.4350
 6457SOL    HW120822   2.639   3.096   5.514 -1.0271  0.7022  0.8794
 6457SOL    HW220823   2.549   2.978   5.486 -0.2900  0.4563 -0.5747
 6458SOL     OW20824   0.824   1.546   6.945 -0.1126 -0.1928  0.3990
 6458SOL    HW120825   0.745   1.558   6.892 -0.3252  0.3144  0.8281
 6458SOL    HW220826   0.842   1.452   6.940  0.3964 -0.0465 -1.3129
 6459SOL     OW20827   0.550   7.138   0.942 -0.2831  0.1746  0.2130
 6459SOL    HW120828   0.595   7.116   0.860  1.3628  0.0394  1.0926
 6459SOL    HW220829   0.505   7.220   0.924 -0.0799  0.0535 -0.8866
 6460SOL     OW20830   0.556   5.343   5.471 -0.8181  0.7126  0.0362
 6460SOL    HW120831   0.628   5.291   5.505 -1.7367 -0.4262  0.2951
 6460SOL    HW220832   0.543   5.413   5.536  0.1109  0.9982 -0.0767
 6461SOL     OW20833   0.427   8.480   7.138 -0.2364 -0.0051 -0.0071
 6461SOL    HW120834   0.401   8.572   7.146  3.1192  1.1785 -0.6874
 6461SOL    HW220835   0.390   8.452   7.054  1.0158  1.7214 -1.2076
 6462SOL     OW20836   0.412   4.651   6.381  0.4077  0.0869  0.7948
 6462SOL    HW120837   0.369   4.569   6.356  0.2909  0.0505  1.1040
 6462SOL    HW220838   0.505   4.636   6.364  0.4483 -0.2939  1.3203
 6463SOL     OW20839   9.123   4.613   7.994  0.1069  0.0371  0.0395
 6463SOL    HW120840   9.145   4.567   7.913  0.2644 -0.7466  0.5209
 6463SOL    HW220841   9.104   4.703   7.966  2.1601  0.3126 -0.6311
 6464SOL     OW20842   9.062   8.536   0.889 -0.1015  0.6116 -0.0967
 6464SOL    HW120843   9.066   8.442   0.876 -1.1819  0.5466 -0.0285
 6464SOL    HW220844   8.970   8.559   0.878  0.0260  1.5584  0.5760
 6465SOL     OW20845   4.872   8.615   2.234  0.4485  0.6239 -0.2323
 6465SOL    HW120846   4.951   8.639   2.282  0.7199 -2.3784  1.0335
 6465SOL    HW220847   4.800   8.643   2.290  0.6504  1.1996 -0.2519
 6466SOL     OW20848   5.335   2.216   7.872  0.0552  0.3135  0.0318
 6466SOL    HW120849   5.250   2.192   7.835  0.1229 -0.8947  0.6222
 6466SOL    HW220850   5.313   2.268   7.949 -0.2029 -1.0942  0.9366
 6467SOL     OW20851   3.976   1.651   9.216  0.1725 -0.0293  0.0094
 6467SOL    HW120852   4.056   1.602   9.235 -0.5194 -1.4424 -0.5807
 6467SOL    HW220853   4.006   1.735   9.181  1.3905 -0.1809  0.6624
 6468SOL     OW20854   3.082   4.815   8.294 -1.1399 -0.4540  0.2966
 6468SOL    HW120855   3.113   4.786   8.208 -0.4599  1.2938 -0.0881
 6468SOL    HW220856   3.045   4.902   8.278  0.5300  0.6362  2.0353
 6469SOL     OW20857   4.464   0.298   3.597 -0.0126  0.2485  0.1165
 6469SOL    HW120858   4.423   0.366   3.543 -0.7812 -0.1466  0.1885
 6469SOL    HW220859   4.393   0.266   3.653 -0.6714 -3.0588 -2.2751
 6470SOL     OW20860   4.931   8.361   5.728 -0.0491  0.1508  0.2255
 6470SOL    HW120861   4.957   8.421   5.798 -0.2775 -0.3549  0.7441
 6470SOL    HW220862   4.999   8.293   5.728  0.4363  0.6197 -0.6365
 6471SOL     OW20863   1.419   1.468   4.428  0.4917 -0.5888 -0.0999
 6471SOL    HW120864   1.397   1.490   4.518 -1.5317  0.0444 -0.6664
 6471SOL    HW220865   1.514   1.461   4.426  0.4767 -2.8019  2.5223
 6472SOL     OW20866   6.495   5.655   8.940  0.7789  0.0117 -0.1783
 6472SOL    HW120867   6.450   5.639   8.857  0.3397  0.4487 -0.0215
 6472SOL    HW220868   6.588   5.658   8.916  0.7173 -0.6419 -0.5330
 6473SOL     OW20869   5.112   2.112   2.763  0.1101  0.4491 -0.0707
 6473SOL    HW120870   5.049   2.156   2.706 -0.9292 -0.5354  0.2670
 6473SOL    HW220871   5.185   2.090   2.706  0.1911  1.6839 -0.4564
 6474SOL     OW20872   2.822   3.960   5.283 -0.2657  0.0949 -0.2037
 6474SOL    HW120873   2.727   3.966   5.290 -0.2132 -0.2318  0.8671
 6474SOL    HW220874   2.838   3.871   5.250 -0.3251  0.0902 -0.2201
 6475SOL     OW20875   2.411   7.595   0.164 -0.4732  0.3271  0.2929
 6475SOL    HW120876   2.454   7.536   0.226  2.2292  1.6951 -0.1605
 6475SOL    HW220877   2.380   7.538   0.094  1.6275 -0.6789  0.1099
 6476SOL     OW20878   2.480   0.806   0.387 -0.1815  0.1830 -0.8776
 6476SOL    HW120879   2.410   0.747   0.412  0.6870 -0.3340  0.4513
 6476SOL    HW220880   2.444   0.857   0.314 -1.0237 -1.8284 -1.9579
 6477SOL     OW20881   7.534   5.805   7.439  0.3198 -0.6030  0.1569
 6477SOL    HW120882   7.485   5.747   7.381  1.4760 -2.7998  1.2655
 6477SOL    HW220883   7.622   5.766   7.444  1.4455  1.7439  0.2859
 6478SOL     OW20884   5.957   5.944   6.883  0.6166  0.1387  0.7109
 6478SOL    HW120885   5.885   5.945   6.947 -0.5391  1.7318 -0.5276
 6478SOL    HW220886   5.996   6.031   6.890  0.5432  0.2958 -0.6359
 6479SOL     OW20887   7.234   4.852   8.655  0.4867 -0.0703  0.2648
 6479SOL    HW120888   7.316   4.848   8.607  0.2417 -0.9343 -0.0939
 6479SOL    HW220889   7.216   4.946   8.665  1.7935  0.1371  0.8471
 6480SOL     OW20890   2.047   8.648   5.149 -0.2394  0.7274 -0.5442
 6480SOL    HW120891   1.981   8.670   5.083  0.2914 -0.7332 -1.6142
 6480SOL    HW220892   2.072   8.558   5.129 -1.0248 -0.2704  2.5079
 6481SOL     OW20893   5.557   2.576   6.274 -0.6523 -0.9528  0.5220
 6481SOL    HW120894   5.467   2.598   6.297 -0.1790 -0.3214  1.8985
 6481SOL    HW220895   5.549   2.519   6.197 -2.0521  2.7721 -2.4205
 6482SOL     OW20896   1.016   1.291   9.126  0.0183  0.3248  0.1110
 6482SOL    HW120897   1.007   1.385   9.113  0.7793  0.6495  1.6937
 6482SOL    HW220898   1.100   1.280   9.169  0.5462 -1.2289 -1.1968
 6483SOL     OW20899   0.329   8.678   6.810  0.2103 -0.3039 -0.0227
 6483SOL    HW120900   0.378   8.679   6.728 -0.5005  0.0169 -0.4616
 6483SOL    HW220901   0.257   8.617   6.793 -0.4908  0.4928  0.0197
 6484SOL     OW20902   5.061   5.118   3.649 -0.3661  0.0699  0.3773
 6484SOL    HW120903   5.154   5.124   3.667 -0.2984 -1.3839  0.6125
 6484SOL    HW220904   5.056   5.070   3.566 -0.8936  0.6225  0.0804
 6485SOL     OW20905   9.263   4.309   8.848  0.4626  0.9659  0.2027
 6485SOL    HW120906   9.174   4.323   8.881  0.3043  0.7277 -0.1210
 6485SOL    HW220907   9.272   4.213   8.844 -0.4743  0.8978 -2.9558
 6486SOL     OW20908   0.654   2.079   6.429  0.6022 -0.0270  0.1626
 6486SOL    HW120909   0.655   2.172   6.452  0.3698 -0.3126  1.4135
 6486SOL    HW220910   0.640   2.078   6.334  1.6448  1.2339 -0.0419
 6487SOL     OW20911   3.816   1.466   0.896  0.4773  0.3721  0.6368
 6487SOL    HW120912   3.840   1.480   0.804 -2.0192 -0.2563 -0.1886
 6487SOL    HW220913   3.773   1.548   0.921  1.3184  0.6117  1.3405
 6488SOL     OW20914   1.811   1.882   5.460 -0.4442  0.0653 -0.3078
 6488SOL    HW120915   1.750   1.955   5.466  0.5855  1.0428 -1.2051
 6488SOL    HW220916   1.805   1.853   5.369 -0.4823 -0.6636 -0.0813
 6489SOL     OW20917   2.074   6.992   8.945 -0.3418  0.2024  0.0387
 6489SOL    HW120918   2.125   7.057   8.994 -1.5185 -0.1503  1.8353
 6489SOL    HW220919   2.113   6.991   8.857 -0.3484  3.4058 -0.0981
 6490SOL     OW20920   1.187   6.590   2.404  0.1587 -0.5862  0.1626
 6490SOL    HW120921   1.167   6.662   2.345 -2.7512 -0.8993  0.6501
 6490SOL    HW220922   1.125   6.521   2.382 -1.3578 -0.5857  3.7179
 6491SOL     OW20923   7.402   2.938   5.954 -0.3757 -0.4897  0.2172
 6491SOL    HW120924   7.346   2.865   5.927  0.2629 -0.5885 -0.9025
 6491SOL    HW220925   7.474   2.897   6.001  0.0834 -0.6114 -0.5792
 6492SOL     OW20926   1.116   2.021   0.142  0.2599  0.2270 -0.2581
 6492SOL    HW120927   1.109   1.982   0.229  0.2626  0.2467 -0.2491
 6492SOL    HW220928   1.085   2.110   0.153  0.3170  0.2476 -0.2648
 6493SOL     OW20929   0.687   3.023   6.411  0.7220  0.1317  0.2810
 6493SOL    HW120930   0.748   2.989   6.477  0.9703  0.8990  0.4595
 6493SOL    HW220931   0.717   3.112   6.394  0.2079  0.1987 -0.3243
 6494SOL     OW20932   0.324   3.400   5.396 -0.1154  0.2014 -0.1788
 6494SOL    HW120933   0.303   3.337   5.465 -0.5694  1.0099  0.4328
 6494SOL    HW220934   0.274   3.478   5.418  1.8086  1.4343  0.0614
 6495SOL     OW20935   1.424   1.565   6.606  0.0480  0.4902  0.4385
 6495SOL    HW120936   1.409   1.576   6.513 -0.6327 -0.3416  0.4391
 6495SOL    HW220937   1.430   1.470   6.619 -0.6087  0.5557  1.3416
 6496SOL     OW20938   5.656   8.100   8.457 -0.1322  0.2650 -0.1127
 6496SOL    HW120939   5.714   8.135   8.390 -1.5383  0.5255 -1.2572
 6496SOL    HW220940   5.678   8.008   8.463  0.6776  0.4449 -0.2158
 6497SOL     OW20941   0.176   5.110   0.307  0.2514 -0.2148 -0.3948
 6497SOL    HW120942   0.212   5.176   0.248  1.3905 -1.2377 -0.8995
 6497SOL    HW220943   0.105   5.155   0.353  0.0869  0.9414 -1.7028
 6498SOL     OW20944   5.115   7.428   8.681 -0.5175 -0.6073 -0.5069
 6498SOL    HW120945   5.195   7.480   8.694 -1.3252  0.5257  0.0654
 6498SOL    HW220946   5.075   7.465   8.603  0.0204 -1.8703 -1.4208
 6499SOL     OW20947   1.843   7.356   0.069  0.3598  0.2403  0.2219
 6499SOL    HW120948   1.821   7.355   0.162  1.2441 -3.0288  0.5018
 6499SOL    HW220949   1.782   7.294   0.028 -0.5689  2.2173 -1.6164
 6500SOL     OW20950   2.404   1.144   7.140  0.0377 -0.5338 -0.3433
 6500SOL    HW120951   2.424   1.202   7.214 -1.4120 -0.9820  0.4390
 6500SOL    HW220952   2.356   1.199   7.078 -3.2481 -1.2285  1.3223
 6501SOL     OW20953   3.208   0.474   8.353  0.2504 -0.0419 -0.1654
 6501SOL    HW120954   3.167   0.553   8.388 -0.4224  0.1726 -1.3732
 6501SOL    HW220955   3.134   0.419   8.326  0.7054 -1.2071  0.8975
 6502SOL     OW20956   3.700   6.743   7.475  0.5053 -0.4180  0.4175
 6502SOL    HW120957   3.702   6.729   7.380  0.3015  0.1609  0.3232
 6502SOL    HW220958   3.696   6.838   7.485  1.0758 -0.4541  1.0192
 6503SOL     OW20959   5.310   7.912   7.046 -0.3296  0.1700 -1.0238
 6503SOL    HW120960   5.341   7.933   6.958  1.4663  0.6604 -0.3120
 6503SOL    HW220961   5.351   7.828   7.066  0.2902  0.6626 -0.1907
 6504SOL     OW20962   4.321   0.781   4.766 -0.3200  0.3257 -0.0309
 6504SOL    HW120963   4.264   0.825   4.830  1.1578  0.7880  1.0168
 6504SOL    HW220964   4.272   0.704   4.740 -1.1327  0.3206  1.3999
 6505SOL     OW20965   4.918   1.950   6.126 -0.4556 -0.0645 -0.2603
 6505SOL    HW120966   4.895   1.858   6.133 -1.8373  0.3722  2.4704
 6505SOL    HW220967   4.838   1.996   6.152  0.6277  1.8516 -0.1164
 6506SOL     OW20968   2.098   4.974   2.029  0.1219  0.4019  0.2487
 6506SOL    HW120969   2.077   4.999   1.939  0.6971 -0.4517 -0.1322
 6506SOL    HW220970   2.013   4.955   2.069  0.0100 -3.3904 -1.3714
 6507SOL     OW20971   0.301   5.313   4.666  0.2107 -0.3527 -0.6841
 6507SOL    HW120972   0.227   5.373   4.668  1.4117  1.2389 -1.4201
 6507SOL    HW220973   0.331   5.314   4.575  2.1394  0.3942 -0.1065
 6508SOL     OW20974   9.019   4.557   7.322  0.3753  0.4041 -0.3144
 6508SOL    HW120975   9.042   4.478   7.371  0.8682 -0.9921 -2.6723
 6508SOL    HW220976   8.925   4.568   7.339  0.5972  0.2219  1.2110
 6509SOL     OW20977   4.326   2.692   7.342 -0.0017  0.7184 -0.1718
 6509SOL    HW120978   4.361   2.780   7.327 -1.1449  1.0093 -1.3130
 6509SOL    HW220979   4.339   2.647   7.259  0.3212 -0.1105  0.3205
 6510SOL     OW20980   5.137   0.353   7.017  0.3167 -0.0538 -0.0293
 6510SOL    HW120981   5.139   0.315   6.929 -0.2941  1.3811 -0.6893
 6510SOL    HW220982   5.154   0.446   7.003 -0.8617  0.3825  1.2607
 6511SOL     OW20983   3.152   7.409   7.432 -0.1168 -0.5203  0.5361
 6511SOL    HW120984   3.208   7.375   7.363 -0.4707 -0.4507  0.2132
 6511SOL    HW220985   3.069   7.427   7.389 -0.4657 -0.8487  1.0573
 6512SOL     OW20986   5.688   4.515   7.089 -0.2740  0.0972  0.3385
 6512SOL    HW120987   5.712   4.513   7.181 -2.2966 -1.8716  0.9107
 6512SOL    HW220988   5.634   4.594   7.080 -0.1859  0.2212  0.8738
 6513SOL     OW20989   3.098   6.786   3.930 -0.1821  0.2970  0.1907
 6513SOL    HW120990   3.103   6.774   3.835  0.9954  0.3483  0.2319
 6513SOL    HW220991   3.150   6.714   3.967 -2.3374 -0.9692  0.9126
 6514SOL     OW20992   6.675   5.124   6.713  0.0984  0.1034 -0.7694
 6514SOL    HW120993   6.634   5.118   6.799  1.2440 -0.3792 -0.2353
 6514SOL    HW220994   6.639   5.050   6.664 -0.1515  0.0639 -0.5271
 6515SOL     OW20995   6.412   4.940   3.419  0.3515  0.4157  0.1288
 6515SOL    HW120996   6.486   4.995   3.392 -0.3631  1.0211 -0.6360
 6515SOL    HW220997   6.441   4.901   3.501  1.6150  0.4552 -0.2773
 6516SOL     OW20998   4.852   1.510   2.579  0.3945 -0.4004  0.2754
 6516SOL    HW120999   4.917   1.440   2.583  0.1698 -0.5462  1.9915
 6516SOL    HW221000   4.886   1.571   2.513  0.7053 -1.9825 -1.0880
 6517SOL     OW21001   7.074   5.088   7.018  0.1025  0.2619 -0.2798
 6517SOL    HW121002   7.147   5.050   6.969  0.0150 -0.6193  0.2602
 6517SOL    HW221003   7.037   5.154   6.958  0.1698 -0.5903 -1.2947
 6518SOL     OW21004   3.921   9.279   3.538  0.1497  0.4151  0.5911
 6518SOL    HW121005   3.949   9.334   3.465  1.2709  1.0039  1.4292
 6518SOL    HW221006   3.826   9.277   3.533  0.1976  0.7483 -0.6535
 6519SOL     OW21007   8.921   8.182   4.998  0.1667 -0.2812 -0.2606
 6519SOL    HW121008   9.016   8.179   4.990  0.1943  1.8152 -1.3564
 6519SOL    HW221009   8.889   8.152   4.913 -0.2214 -1.7299  0.3569
 6520SOL     OW21010   2.474   4.880   9.024 -0.0692 -0.3350 -0.2786
 6520SOL    HW121011   2.406   4.857   8.961  0.1831 -1.6471 -0.1179
 6520SOL    HW221012   2.427   4.898   9.105 -0.3954  1.3637 -0.8045
 6521SOL     OW21013   6.361   2.327   7.114  0.2077  0.5516  0.4980
 6521SOL    HW121014   6.454   2.308   7.117  0.3182  1.0151  0.1333
 6521SOL    HW221015   6.354   2.402   7.055 -0.6120 -0.8485 -1.2828
 6522SOL     OW21016   6.081   0.592   8.581  0.2046 -0.1223 -0.6422
 6522SOL    HW121017   6.004   0.534   8.574  0.0284  0.2129 -1.6787
 6522SOL    HW221018   6.081   0.620   8.672 -1.1422  0.1847 -0.7115
 6523SOL     OW21019   4.087   3.307   3.888 -0.1994  0.2660 -0.1138
 6523SOL    HW121020   4.075   3.393   3.848 -0.9798 -0.0867 -0.6684
 6523SOL    HW221021   4.181   3.289   3.879 -0.1285  0.8150 -0.5116
 6524SOL     OW21022   6.472   3.316   6.982 -0.3350 -0.0542 -0.0468
 6524SOL    HW121023   6.471   3.407   6.951 -1.8138 -0.0489 -0.0837
 6524SOL    HW221024   6.524   3.270   6.916  2.5154  1.1002  1.2081
 6525SOL     OW21025   3.884   0.177   2.431 -1.1071  0.2786 -0.5215
 6525SOL    HW121026   3.902   0.113   2.362 -0.9351  0.1262 -0.3382
 6525SOL    HW221027   3.940   0.150   2.504  1.1697  2.2358 -1.3654
 6526SOL     OW21028   4.262   8.353   6.178  0.3706  0.5519 -0.2202
 6526SOL    HW121029   4.313   8.408   6.119  0.9645  1.0954  0.7776
 6526SOL    HW221030   4.279   8.389   6.265 -0.8475  0.0566  0.2453
 6527SOL     OW21031   4.722   8.066   6.143 -0.3446 -0.9375 -0.2156
 6527SOL    HW121032   4.738   8.147   6.096 -1.4121 -0.4994  0.1548
 6527SOL    HW221033   4.808   8.023   6.146  0.2671  0.2474 -0.2533
 6528SOL     OW21034   4.781   0.520   4.942  0.1896 -0.2400  0.0724
 6528SOL    HW121035   4.723   0.594   4.922 -0.4365 -0.6359  0.4043
 6528SOL    HW221036   4.844   0.556   5.005 -0.5686 -0.1740  0.8123
 6529SOL     OW21037   1.921   8.996   8.075 -0.0628  0.2767 -0.1760
 6529SOL    HW121038   2.003   9.045   8.076 -0.5594  1.1244  0.8342
 6529SOL    HW221039   1.900   8.983   8.168 -0.7458 -0.4817 -0.4289
 6530SOL     OW21040   1.592   6.619   8.868 -0.1718 -0.5989  0.5138
 6530SOL    HW121041   1.569   6.712   8.872 -0.8290 -0.7266 -0.0664
 6530SOL    HW221042   1.588   6.598   8.775  5.2562  0.0651 -0.1940
 6531SOL     OW21043   1.326   1.773   9.010 -0.3017  0.0378  0.1652
 6531SOL    HW121044   1.388   1.700   9.000 -0.7376 -0.3753  0.4209
 6531SOL    HW221045   1.329   1.795   9.103 -0.9408 -0.3594  0.2912
 6532SOL     OW21046   9.188   4.594   2.442  0.3411  0.2073  0.2328
 6532SOL    HW121047   9.146   4.539   2.376  1.3149 -0.0286 -0.2025
 6532SOL    HW221048   9.221   4.670   2.393 -0.4291  0.8757  0.7287
 6533SOL     OW21049   3.559   8.032   6.603  0.3864  0.1725  0.2137
 6533SOL    HW121050   3.523   7.986   6.679 -0.5543 -2.1344 -1.5102
 6533SOL    HW221051   3.551   7.969   6.531 -0.8347  2.9937 -2.3247
 6534SOL     OW21052   8.722   4.954   2.470  0.0115  0.1948 -0.2760
 6534SOL    HW121053   8.743   4.969   2.562 -0.4462  0.2666 -0.1829
 6534SOL    HW221054   8.693   4.862   2.466  1.2830 -0.2187 -0.5765
 6535SOL     OW21055   2.702   3.199   6.179  0.3188  0.3300 -0.2005
 6535SOL    HW121056   2.790   3.217   6.211  0.0526 -0.2822  0.9055
 6535SOL    HW221057   2.673   3.282   6.141  0.1894  1.4866  2.2340
 6536SOL     OW21058   5.700   2.736   3.664 -0.1185 -0.6449  0.1258
 6536SOL    HW121059   5.636   2.806   3.671 -2.0253 -2.4583  1.9078
 6536SOL    HW221060   5.752   2.742   3.744  0.5954 -0.4992 -0.3323
 6537SOL     OW21061   0.342   1.217   4.805 -0.3626 -0.5366 -0.5282
 6537SOL    HW121062   0.339   1.129   4.844 -0.8232  0.5006  2.0039
 6537SOL    HW221063   0.302   1.273   4.871  0.0621  1.6214 -2.0127
 6538SOL     OW21064   7.416   0.033   6.014 -0.4208  0.4282 -0.4452
 6538SOL    HW121065   7.497  -0.008   6.045  0.9487  2.9585 -0.4757
 6538SOL    HW221066   7.420   0.123   6.045 -3.3519  0.6115 -0.3067
 6539SOL     OW21067   7.000   4.259   7.151 -0.0687 -0.4703 -0.2172
 6539SOL    HW121068   7.057   4.239   7.078 -0.5856 -3.1802  0.0330
 6539SOL    HW221069   7.043   4.332   7.196  1.7774 -0.6948 -1.5217
 6540SOL     OW21070   1.035   9.272   5.517 -0.0768 -0.2376 -0.5267
 6540SOL    HW121071   0.996   9.343   5.466  0.8221  1.0053  0.4628
 6540SOL    HW221072   1.124   9.302   5.535  0.0682 -1.2794  0.5820
 6541SOL     OW21073   5.671   5.854   5.886  0.3458  0.4531 -0.4179
 6541SOL    HW121074   5.685   5.848   5.981 -0.1853  0.3909 -0.3429
 6541SOL    HW221075   5.686   5.765   5.854  1.1865  0.6140 -0.4842
 6542SOL     OW21076   3.859   0.440   8.270  0.2460  0.1762  0.2167
 6542SOL    HW121077   3.766   0.464   8.271  0.1869  0.1439 -1.5344
 6542SOL    HW221078   3.892   0.466   8.356 -0.9296  2.0163  0.1497
 6543SOL     OW21079   0.207   1.026   4.036 -0.0995  0.3380  0.1469
 6543SOL    HW121080   0.166   0.953   3.991  0.7218 -0.3994  0.5525
 6543SOL    HW221081   0.151   1.042   4.112 -0.7809  0.7425 -0.4299
 6544SOL     OW21082   8.817   2.845   2.980 -0.2277  0.0214 -0.3515
 6544SOL    HW121083   8.901   2.890   2.968 -0.9961  1.9235  0.9907
 6544SOL    HW221084   8.754   2.902   2.937 -1.3715  0.8379  2.2517
 6545SOL     OW21085   2.638   1.689   1.572  0.4131  0.6377 -0.2843
 6545SOL    HW121086   2.668   1.600   1.552  2.7617  0.7054  2.2088
 6545SOL    HW221087   2.543   1.684   1.568  0.4616 -2.0384 -0.0767
 6546SOL     OW21088   0.803   8.825   4.779 -0.0518  0.8983  0.1448
 6546SOL    HW121089   0.841   8.870   4.704 -0.5967  0.8780 -0.1466
 6546SOL    HW221090   0.776   8.896   4.838 -1.7954  1.0241 -0.7412
 6547SOL     OW21091   1.813   7.426   7.462  0.2545 -0.1287 -0.0595
 6547SOL    HW121092   1.867   7.374   7.521  0.0836  0.3165  0.5028
 6547SOL    HW221093   1.726   7.424   7.502  0.4271  1.2885  0.4466
 6548SOL     OW21094   1.605   7.771   1.120  0.7644  0.0207 -0.5169
 6548SOL    HW121095   1.541   7.708   1.155  0.1584  0.4879 -0.7754
 6548SOL    HW221096   1.648   7.723   1.049  3.0667 -1.4957  1.7119
 6549SOL     OW21097   4.294   3.899   6.323 -0.7297  0.7527  0.5687
 6549SOL    HW121098   4.352   3.845   6.377  0.4681  0.0652 -1.3237
 6549SOL    HW221099   4.233   3.938   6.386  2.1703  2.1193  2.7776
 6550SOL     OW21100   8.343   8.698   1.536 -0.5559  0.1384 -0.3920
 6550SOL    HW121101   8.379   8.760   1.600  0.7795 -0.1730 -0.8226
 6550SOL    HW221102   8.303   8.753   1.469 -0.1930  0.5117 -0.3020
 6551SOL     OW21103   8.237   1.073   6.359 -0.0819  0.4889 -0.1658
 6551SOL    HW121104   8.273   1.090   6.446  0.9878 -0.5669 -0.3808
 6551SOL    HW221105   8.160   1.018   6.375  1.3863 -1.5882  0.0110
 6552SOL     OW21106   2.282   4.779   7.726 -0.1966  0.5698  0.2879
 6552SOL    HW121107   2.375   4.782   7.748 -0.5023  0.2854  1.6705
 6552SOL    HW221108   2.277   4.716   7.654  0.8125  1.4771 -0.6095
 6553SOL     OW21109   0.143   0.483   8.802  0.1509 -0.1701  0.0605
 6553SOL    HW121110   0.131   0.483   8.897 -3.0185  2.1909 -0.1643
 6553SOL    HW221111   0.189   0.564   8.783  0.1638 -0.2957 -0.4658
 6554SOL     OW21112   0.808   2.971   4.762  0.0984 -0.1541  0.5150
 6554SOL    HW121113   0.858   3.049   4.788 -0.7636  0.4727  0.3427
 6554SOL    HW221114   0.726   3.006   4.727 -0.1888 -1.1366  0.1782
 6555SOL     OW21115   3.361   3.810   8.815  0.3449  0.1209  0.4153
 6555SOL    HW121116   3.425   3.758   8.864  0.5579 -1.0714 -1.0619
 6555SOL    HW221117   3.312   3.746   8.763 -1.0364  1.1628  0.3531
 6556SOL     OW21118   8.495   4.686   7.594  0.7309 -0.2178  0.4714
 6556SOL    HW121119   8.420   4.728   7.551  1.5470  0.0518 -0.7413
 6556SOL    HW221120   8.473   4.593   7.595 -0.2598  0.0074  1.4637
 6557SOL     OW21121   1.797   2.694   8.581 -0.2445 -0.0962 -0.3456
 6557SOL    HW121122   1.874   2.706   8.526  0.4221 -2.3998 -0.0002
 6557SOL    HW221123   1.775   2.601   8.573 -2.2708  0.2539  0.5109
 6558SOL     OW21124   4.352   5.436   1.019 -0.1269 -0.5739  0.0869
 6558SOL    HW121125   4.365   5.440   0.924 -2.3489  1.0868 -0.2033
 6558SOL    HW221126   4.267   5.394   1.030 -0.7342  0.8795  1.2360
 6559SOL     OW21127   3.635   7.348   8.735  0.5556  0.2601  0.3568
 6559SOL    HW121128   3.560   7.329   8.679  2.2919 -0.7744 -1.7645
 6559SOL    HW221129   3.711   7.320   8.684  2.2175 -2.9951  4.1387
 6560SOL     OW21130   7.540   7.562   0.135  0.4479  0.0190  0.0661
 6560SOL    HW121131   7.525   7.517   0.218 -0.1279  2.0351  1.1188
 6560SOL    HW221132   7.620   7.613   0.149 -1.0180  2.3987  0.3628
 6561SOL     OW21133   5.362   7.854   3.874 -0.9642  0.3969  0.1244
 6561SOL    HW121134   5.305   7.911   3.823 -1.9284 -1.6015 -1.1776
 6561SOL    HW221135   5.302   7.789   3.912  0.2367 -0.7600  0.1061
 6562SOL     OW21136   2.257   0.088   3.777 -0.0741 -0.2476 -0.8422
 6562SOL    HW121137   2.190   0.030   3.811 -0.6337  0.5478 -0.5611
 6562SOL    HW221138   2.254   0.165   3.834  1.0230 -0.1687 -0.8705
 6563SOL     OW21139   0.730   2.810   7.749  0.3194 -0.3241  0.3271
 6563SOL    HW121140   0.702   2.731   7.704 -3.5833  1.0474 -0.0146
 6563SOL    HW221141   0.726   2.879   7.683  0.8279  0.6497  1.2692
 6564SOL     OW21142   7.914   5.966   5.427  0.1085 -0.2070  0.2875
 6564SOL    HW121143   7.943   5.960   5.336  0.2738  1.8616  0.1724
 6564SOL    HW221144   7.977   6.024   5.469 -0.8081  0.0453  1.3646
 6565SOL     OW21145   3.007   1.848   1.569 -0.3945 -0.7753 -0.3241
 6565SOL    HW121146   2.971   1.833   1.656 -0.1534 -1.0469 -0.2697
 6565SOL    HW221147   3.101   1.832   1.579 -0.1262  0.6898 -0.2815
 6566SOL     OW21148   1.136   3.359   1.935  0.2810 -0.0167 -0.3304
 6566SOL    HW121149   1.113   3.450   1.918  2.1347  0.5313 -0.1657
 6566SOL    HW221150   1.128   3.349   2.030  0.1966  0.0258 -0.3336
 6567SOL     OW21151   9.009   0.401   2.495 -0.7633  0.4954 -0.4922
 6567SOL    HW121152   9.033   0.369   2.408 -0.8777  1.6555 -0.9693
 6567SOL    HW221153   8.931   0.454   2.481 -0.8139  0.6539  0.3220
 6568SOL     OW21154   3.734   1.156   5.801  0.1066  0.1557  0.3792
 6568SOL    HW121155   3.818   1.118   5.773 -0.2716 -0.6681  0.3412
 6568SOL    HW221156   3.751   1.250   5.806  0.5755  0.2042 -1.3081
 6569SOL     OW21157   4.765   4.928   4.831  0.2005 -0.2692  0.4659
 6569SOL    HW121158   4.840   4.953   4.885  0.4349  1.5325 -0.6466
 6569SOL    HW221159   4.705   5.002   4.837  0.1441 -0.0946 -1.5765
 6570SOL     OW21160   4.458   4.680   3.519 -0.6100 -0.1130  0.3454
 6570SOL    HW121161   4.478   4.599   3.473  1.4454  0.0269  0.8941
 6570SOL    HW221162   4.410   4.652   3.597 -0.4261 -0.7491  0.2345
 6571SOL     OW21163   1.056   5.272   0.884  0.0711 -0.2130  0.1723
 6571SOL    HW121164   1.150   5.256   0.878 -0.0342 -1.6350  1.5960
 6571SOL    HW221165   1.050   5.359   0.924  0.8844 -1.1071  2.4409
 6572SOL     OW21166   6.217   8.805   1.422  0.7257  0.4028 -0.1864
 6572SOL    HW121167   6.300   8.792   1.467  0.5763  0.6000  0.1491
 6572SOL    HW221168   6.150   8.794   1.490  0.3241 -2.0778 -0.8685
 6573SOL     OW21169   5.864   4.347   5.499  0.2785 -0.6260 -0.1232
 6573SOL    HW121170   5.847   4.269   5.551 -1.2351  0.1318  0.5759
 6573SOL    HW221171   5.867   4.316   5.408  0.2076 -1.5579  0.1860
 6574SOL     OW21172   2.990   6.515   5.702  0.3970  0.5408 -0.2148
 6574SOL    HW121173   2.918   6.528   5.640  0.8865  1.4764 -0.6151
 6574SOL    HW221174   3.064   6.491   5.648  0.8602  1.4839 -0.0156
 6575SOL     OW21175   8.619   5.256   2.200 -0.4897 -0.0797  0.0872
 6575SOL    HW121176   8.686   5.234   2.135 -2.6481 -2.7186 -1.4660
 6575SOL    HW221177   8.605   5.350   2.190 -0.4962 -0.3351 -3.0870
 6576SOL     OW21178   2.698   1.164   4.432  0.3574 -0.3823  0.1220
 6576SOL    HW121179   2.666   1.074   4.437  1.1622 -0.6465  0.6734
 6576SOL    HW221180   2.716   1.178   4.339 -0.9526 -0.3556 -0.1475
 6577SOL     OW21181   5.672   5.320   4.081  0.3758 -0.3157  0.1225
 6577SOL    HW121182   5.636   5.400   4.042 -0.9111  0.3155  2.4070
 6577SOL    HW221183   5.596   5.275   4.118  1.4983 -0.7543  2.0131
 6578SOL     OW21184   4.011   5.562   4.187  0.1804 -0.2793  0.1656
 6578SOL    HW121185   3.982   5.545   4.097 -2.3491  0.8286  0.6896
 6578SOL    HW221186   4.080   5.627   4.178 -1.2201  1.1515 -0.9627
 6579SOL     OW21187   6.838   2.829   5.954  0.0590  0.1855 -0.0721
 6579SOL    HW121188   6.814   2.737   5.951  0.0447  0.2111 -0.9944
 6579SOL    HW221189   6.755   2.875   5.967 -0.0406  0.1129 -0.4398
 6580SOL     OW21190   5.230   4.291   5.696  0.0173  0.1888  0.4378
 6580SOL    HW121191   5.320   4.289   5.728  0.3896  0.2330 -0.5695
 6580SOL    HW221192   5.239   4.299   5.601 -1.0540  0.7342  0.3758
 6581SOL     OW21193   1.085   3.249   5.415 -0.2689 -0.7139 -0.6095
 6581SOL    HW121194   1.094   3.248   5.510  1.0546 -0.8416 -0.7271
 6581SOL    HW221195   0.992   3.233   5.400 -0.4740 -0.7953  0.6568
 6582SOL     OW21196   3.148   2.468   1.195  0.1180 -0.2264  0.1453
 6582SOL    HW121197   3.064   2.423   1.199 -0.3585  0.5262 -0.8340
 6582SOL    HW221198   3.158   2.507   1.282 -1.0489  0.5162 -0.0301
 6583SOL     OW21199   4.327   8.632   6.211  0.2663  0.2065  0.1743
 6583SOL    HW121200   4.344   8.655   6.119  0.0248  0.8378  0.2801
 6583SOL    HW221201   4.414   8.618   6.249  0.3152 -1.5393 -0.5108
 6584SOL     OW21202   5.828   6.072   8.909 -0.1543 -0.3816  0.0388
 6584SOL    HW121203   5.909   6.117   8.884  0.9722 -1.7803  0.9861
 6584SOL    HW221204   5.786   6.051   8.826  0.9604 -0.5068 -0.5154
 6585SOL     OW21205   5.650   7.571   6.841  0.4651 -0.4948 -0.0121
 6585SOL    HW121206   5.645   7.582   6.935  2.1151  0.3276  0.0094
 6585SOL    HW221207   5.743   7.567   6.822  0.1572 -2.0635 -1.4720
 6586SOL     OW21208   1.890   7.254   1.131 -0.5743 -0.4486  0.0689
 6586SOL    HW121209   1.920   7.172   1.092  0.1956 -0.4830  0.7004
 6586SOL    HW221210   1.904   7.242   1.225 -0.4805  0.3936  0.1739
 6587SOL     OW21211   4.334   9.058   2.307 -0.6163  0.1448 -0.0628
 6587SOL    HW121212   4.340   9.131   2.368 -0.3968 -0.1989  0.3340
 6587SOL    HW221213   4.394   9.080   2.237  0.2958 -0.1629  0.6034
 6588SOL     OW21214   1.781   3.068   1.786  0.0269 -0.1631 -0.4664
 6588SOL    HW121215   1.743   2.980   1.779 -0.5401  0.1807 -2.4709
 6588SOL    HW221216   1.863   3.063   1.737  1.5376 -0.2952  1.9279
 6589SOL     OW21217   2.538   7.445   8.104  0.2972 -0.2518  0.3491
 6589SOL    HW121218   2.582   7.477   8.183  0.2458  0.0360  0.2625
 6589SOL    HW221219   2.561   7.508   8.036  0.5788 -0.6630  0.0612
 6590SOL     OW21220   4.603   1.632   0.395  0.5961 -0.5924  0.3829
 6590SOL    HW121221   4.635   1.643   0.484  0.5392 -1.8455  0.5777
 6590SOL    HW221222   4.681   1.631   0.340  0.6855 -0.6635  0.5133
 6591SOL     OW21223   8.118   8.961   3.694  0.4268 -0.4587 -0.3487
 6591SOL    HW121224   8.201   9.001   3.666  0.3906 -1.0070 -1.2977
 6591SOL    HW221225   8.072   9.030   3.740  0.4644  0.5391 -1.7496
 6592SOL     OW21226   3.530   7.884   2.691  0.4932  0.3050  0.0480
 6592SOL    HW121227   3.595   7.818   2.668  0.7498  1.1248 -1.7172
 6592SOL    HW221228   3.452   7.859   2.642  0.0378  0.3325  0.7489
 6593SOL     OW21229   0.448   4.967   4.070  0.1741  0.1666  0.5769
 6593SOL    HW121230   0.457   4.879   4.032 -0.3178  0.5087 -0.3744
 6593SOL    HW221231   0.477   5.026   4.000  1.4684  0.7334  1.5543
 6594SOL     OW21232   8.535   2.135   8.116 -0.1932 -0.5345  0.6888
 6594SOL    HW121233   8.477   2.088   8.175  0.5912 -0.6108  1.4074
 6594SOL    HW221234   8.621   2.095   8.128  0.1084 -0.1322 -0.0378
 6595SOL     OW21235   1.152   5.522   5.883  0.3268 -0.1690 -0.2384
 6595SOL    HW121236   1.124   5.439   5.922  5.4035 -2.2060 -0.0874
 6595SOL    HW221237   1.167   5.580   5.958  0.0075 -0.3207 -0.0563
 6596SOL     OW21238   4.292   2.956   7.098  0.0452  0.3638 -0.0689
 6596SOL    HW121239   4.225   2.909   7.047 -0.0979 -2.3234  2.3253
 6596SOL    HW221240   4.375   2.921   7.065  0.0189 -0.2092  0.4604
 6597SOL     OW21241   8.965   2.460   2.438  0.0725  0.2179 -0.0316
 6597SOL    HW121242   8.891   2.402   2.418  2.1514 -2.9795  0.8015
 6597SOL    HW221243   8.962   2.526   2.369 -1.6809 -1.6866 -1.9661
 6598SOL     OW21244   0.212   6.157   7.572 -0.1954  0.2757  0.1944
 6598SOL    HW121245   0.160   6.080   7.553 -1.6124  0.7599  1.8287
 6598SOL    HW221246   0.148   6.225   7.594  1.0296  1.7223 -0.4598
 6599SOL     OW21247   8.927   6.820   8.203  0.3792 -0.3304 -0.3950
 6599SOL    HW121248   8.928   6.912   8.229 -2.8449  0.2662 -1.8411
 6599SOL    HW221249   8.974   6.774   8.272 -0.1267  2.1293  1.7204
 6600SOL     OW21250   0.852   0.370   5.950  0.4342  0.4064  0.2835
 6600SOL    HW121251   0.839   0.461   5.922  1.4935  0.6286  0.4546
 6600SOL    HW221252   0.783   0.321   5.906 -1.7325  1.6340  2.1002
 6601SOL     OW21253   9.224   4.998   3.960 -0.0095 -0.1385  0.1781
 6601SOL    HW121254   9.290   4.950   4.010  1.4520  2.0867  0.5748
 6601SOL    HW221255   9.224   4.956   3.874  1.5537 -0.5457  0.3451
 6602SOL     OW21256   7.434   5.804   5.055  0.2833 -0.1883  0.1841
 6602SOL    HW121257   7.518   5.823   5.014  0.8852  0.5435  1.7006
 6602SOL    HW221258   7.378   5.878   5.032  0.2442 -0.3606 -0.2849
 6603SOL     OW21259   0.734   7.107   0.475  0.3132 -0.2009  0.0620
 6603SOL    HW121260   0.783   7.100   0.393  0.2331 -0.8984  0.0751
 6603SOL    HW221261   0.703   7.019   0.493 -1.1393  0.2539 -0.0515
 6604SOL     OW21262   3.610   6.542   0.601 -0.1152  0.0068  0.2330
 6604SOL    HW121263   3.530   6.545   0.654  0.5311 -0.3544  1.2562
 6604SOL    HW221264   3.680   6.529   0.665  0.7020 -0.3266 -0.7140
 6605SOL     OW21265   4.594   6.280   4.681  0.0222  0.2380  0.1953
 6605SOL    HW121266   4.671   6.333   4.699  0.3595 -0.5971  1.2812
 6605SOL    HW221267   4.522   6.326   4.725 -0.0022  0.6680 -0.2765
 6606SOL     OW21268   8.260   7.870   3.655  0.3015  0.4637 -0.1191
 6606SOL    HW121269   8.320   7.807   3.616  0.3268 -0.6845  1.6448
 6606SOL    HW221270   8.176   7.853   3.614  0.2386 -0.9876  0.5675
 6607SOL     OW21271   4.236   5.727   3.746 -0.4421  0.5642  0.2033
 6607SOL    HW121272   4.166   5.774   3.700 -0.1136  1.3176  0.4505
 6607SOL    HW221273   4.231   5.638   3.713 -1.1675  0.7395 -0.1880
 6608SOL     OW21274   5.266   4.196   9.128  0.1435 -0.0825 -0.4160
 6608SOL    HW121275   5.236   4.198   9.219 -1.6471  0.8430 -0.9593
 6608SOL    HW221276   5.361   4.187   9.133  0.2275  1.2783  1.5938
 6609SOL     OW21277   4.365   5.077   5.341 -0.1831 -0.1105  0.2541
 6609SOL    HW121278   4.347   5.034   5.425 -0.1728  2.3874  1.6313
 6609SOL    HW221279   4.456   5.055   5.322  0.2943  0.4581  1.7088
 6610SOL     OW21280   2.503   0.743   7.675 -0.1544 -0.1476  0.3265
 6610SOL    HW121281   2.490   0.766   7.583 -0.8977 -0.3436  0.3788
 6610SOL    HW221282   2.542   0.655   7.673 -3.7350 -1.9367  0.2003
 6611SOL     OW21283   2.718   6.161   3.281 -0.1485  0.0823  0.8240
 6611SOL    HW121284   2.753   6.152   3.192 -0.5335 -1.5990  0.8110
 6611SOL    HW221285   2.781   6.116   3.337 -0.7140 -0.2769  1.1851
 6612SOL     OW21286   2.261   7.551   8.471  0.0099  0.1609 -0.5750
 6612SOL    HW121287   2.274   7.470   8.423 -0.4572 -0.7292  0.7471
 6612SOL    HW221288   2.335   7.555   8.532 -0.4841  0.2210  0.0315
 6613SOL     OW21289   0.148   7.109   7.682  0.3777 -0.1458  0.0699
 6613SOL    HW121290   0.075   7.170   7.682 -0.5819 -1.1006  3.3782
 6613SOL    HW221291   0.111   7.026   7.652  1.0976  0.1787 -1.9271
 6614SOL     OW21292   3.564   2.242   4.703  0.3127 -0.3434  0.0173
 6614SOL    HW121293   3.548   2.263   4.795  3.3923 -1.4129  0.9284
 6614SOL    HW221294   3.553   2.147   4.698 -2.7493 -0.0488 -1.5331
 6615SOL     OW21295   7.748   0.596   7.568 -0.9517  0.5040 -0.7457
 6615SOL    HW121296   7.785   0.666   7.621 -0.4740  0.4177 -0.9636
 6615SOL    HW221297   7.671   0.567   7.617 -0.1456 -0.0351  0.2539
 6616SOL     OW21298   0.678   5.469   8.070  0.5561 -0.5717  0.2043
 6616SOL    HW121299   0.632   5.412   8.008 -0.5786  0.6914 -0.1449
 6616SOL    HW221300   0.620   5.473   8.146  0.7519 -0.0828  0.3301
 6617SOL     OW21301   2.855   3.250   4.370  0.0145  0.2271  0.5328
 6617SOL    HW121302   2.946   3.277   4.384  0.0468  0.6138 -0.3897
 6617SOL    HW221303   2.856   3.201   4.288 -0.2339 -1.7297  1.6283
 6618SOL     OW21304   0.993   6.675   6.499 -0.6465 -0.2922  0.0587
 6618SOL    HW121305   1.084   6.664   6.471 -0.3906 -0.2093  0.8469
 6618SOL    HW221306   0.978   6.770   6.493  0.2779  0.1104  2.7570
 6619SOL     OW21307   5.794   0.704   1.851 -0.3226  0.9511 -0.1237
 6619SOL    HW121308   5.869   0.763   1.851  1.4153 -1.1424  0.4995
 6619SOL    HW221309   5.742   0.731   1.926  1.4667  0.5397  1.3398
 6620SOL     OW21310   2.744   4.168   7.049  0.0849  0.2820 -0.0398
 6620SOL    HW121311   2.657   4.131   7.066  0.0852  0.0598 -0.4966
 6620SOL    HW221312   2.751   4.167   6.954  0.2039  1.2028 -0.0413
 6621SOL     OW21313   5.403   6.604   1.756 -0.1529  0.4770  0.1750
 6621SOL    HW121314   5.351   6.682   1.776  0.8194  1.0049  0.7588
 6621SOL    HW221315   5.420   6.565   1.842  0.8712  0.6251  0.0482
 6622SOL     OW21316   8.940   7.011   1.477  0.0662 -0.5270 -0.6578
 6622SOL    HW121317   8.868   7.069   1.451  0.4247  0.4815  0.5341
 6622SOL    HW221318   8.992   7.000   1.397 -0.4073  0.2104 -1.0774
 6623SOL     OW21319   8.272   2.364   6.851 -0.2035 -0.5902  0.0499
 6623SOL    HW121320   8.336   2.294   6.866  0.3606  0.0341  0.6531
 6623SOL    HW221321   8.309   2.414   6.779  1.6304  1.5671  2.3012
 6624SOL     OW21322   7.273   4.583   4.858  0.2936 -0.0686 -0.2263
 6624SOL    HW121323   7.350   4.579   4.802  0.1887  0.6540 -0.4245
 6624SOL    HW221324   7.221   4.655   4.823 -0.5185 -0.5973 -0.1513
 6625SOL     OW21325   2.756   5.084   2.887 -0.2049 -0.4371 -0.7087
 6625SOL    HW121326   2.737   5.154   2.950 -1.7714 -1.7157  0.3255
 6625SOL    HW221327   2.717   5.114   2.805  0.0953  0.3731 -0.5627
 6626SOL     OW21328   4.211   4.233   7.818  0.3379 -0.7434 -0.7570
 6626SOL    HW121329   4.180   4.229   7.728 -0.2799 -0.3612 -0.5638
 6626SOL    HW221330   4.225   4.142   7.843 -1.9070 -1.0485 -0.4062
 6627SOL     OW21331   3.823   1.492   8.112  0.2369  0.2019  0.6461
 6627SOL    HW121332   3.899   1.547   8.091 -0.7897  2.6910  2.8526
 6627SOL    HW221333   3.753   1.529   8.058  0.1484 -0.8769  0.0055
 6628SOL     OW21334   2.864   3.078   7.917  0.1373 -0.3183  0.2581
 6628SOL    HW121335   2.875   3.013   7.848  2.1621  1.4087 -1.1746
 6628SOL    HW221336   2.793   3.134   7.887  1.8906  1.2509 -1.2553
 6629SOL     OW21337   3.981   8.572   4.817 -0.5990  0.5242  0.0864
 6629SOL    HW121338   4.055   8.519   4.791  0.3834  1.1711  1.4417
 6629SOL    HW221339   3.988   8.651   4.763 -1.6583 -0.3714 -1.4249
 6630SOL     OW21340   1.324   4.036   5.173  0.2728  0.0001  0.2116
 6630SOL    HW121341   1.338   4.042   5.267 -0.3991 -1.0824  0.3966
 6630SOL    HW221342   1.289   3.948   5.159 -2.5376  1.1372 -0.6695
 6631SOL     OW21343   6.417   0.421   1.770 -0.0425 -0.4422  0.9210
 6631SOL    HW121344   6.481   0.381   1.711 -1.1060 -0.1979 -0.4756
 6631SOL    HW221345   6.402   0.356   1.837 -0.0069 -1.4403 -0.0109
 6632SOL     OW21346   4.170   7.173   6.791 -0.0270 -0.4909  0.1312
 6632SOL    HW121347   4.168   7.080   6.813 -0.2287 -0.4629  0.2361
 6632SOL    HW221348   4.083   7.192   6.756  0.2462 -0.5029 -0.5723
 6633SOL     OW21349   3.962   2.136   8.511  0.3093  0.5167 -0.4226
 6633SOL    HW121350   3.897   2.204   8.495 -0.2816 -0.1582 -0.9087
 6633SOL    HW221351   3.911   2.059   8.534  0.9845  0.2837  0.3596
 6634SOL     OW21352   1.664   6.664   2.108  0.0335 -0.0480 -0.0292
 6634SOL    HW121353   1.622   6.745   2.080  0.0906  0.6617  1.8593
 6634SOL    HW221354   1.645   6.602   2.037  0.2011  1.6514 -1.6334
 6635SOL     OW21355   1.731   0.933   4.666 -0.1285 -0.1883  0.3025
 6635SOL    HW121356   1.685   0.967   4.589  0.3565  0.0551  0.1183
 6635SOL    HW221357   1.818   0.909   4.633  0.1427  0.0926  0.8121
 6636SOL     OW21358   1.352   2.153   0.023 -0.2119  0.2907  0.5646
 6636SOL    HW121359   1.367   2.214   0.096 -2.6451  0.5503  0.9361
 6636SOL    HW221360   1.284   2.093   0.055 -0.7062 -0.1356 -1.1747
 6637SOL     OW21361   0.934   7.430   5.376  0.0446  0.8614  0.3119
 6637SOL    HW121362   0.877   7.364   5.416 -0.8934  0.4439 -1.6180
 6637SOL    HW221363   1.021   7.412   5.412 -0.6735  0.3041  1.8593
 6638SOL     OW21364   3.664   7.851   2.177  0.2255 -0.1839  0.0785
 6638SOL    HW121365   3.759   7.861   2.167  0.2674 -1.4522 -1.1180
 6638SOL    HW221366   3.631   7.854   2.088 -0.6525 -1.5924  0.3444
 6639SOL     OW21367   7.532   8.464   1.228 -0.1504 -0.3059  0.3891
 6639SOL    HW121368   7.476   8.408   1.282  1.2517 -0.8172  1.3579
 6639SOL    HW221369   7.472   8.502   1.163 -1.9048  0.4145  2.3438
 6640SOL     OW21370   1.205   3.572   8.938 -0.1008  0.0801 -0.6806
 6640SOL    HW121371   1.258   3.575   8.857  0.6888 -2.0877 -0.3093
 6640SOL    HW221372   1.266   3.599   9.007 -0.0212 -0.5668 -0.4936
 6641SOL     OW21373   1.179   1.862   5.122 -0.0949  0.6309 -0.4111
 6641SOL    HW121374   1.255   1.895   5.073 -0.7962  0.3976 -1.7274
 6641SOL    HW221375   1.192   1.767   5.123  0.0556  0.6563  0.1137
 6642SOL     OW21376   7.115   4.358   9.219 -0.2775 -0.3752 -0.5355
 6642SOL    HW121377   7.119   4.289   9.152 -2.0932 -0.7124 -0.3385
 6642SOL    HW221378   7.102   4.312   9.301 -0.6668  0.1629 -0.2897
 6643SOL     OW21379   5.335   8.139   7.518 -0.0756  0.6777 -0.1286
 6643SOL    HW121380   5.286   8.088   7.454  0.2364  1.3199 -0.8994
 6643SOL    HW221381   5.349   8.079   7.592  1.0943 -0.6529 -1.3810
 6644SOL     OW21382   6.839   8.678   2.042  0.0506  0.0548 -0.0260
 6644SOL    HW121383   6.836   8.769   2.071  1.5504  0.2804 -0.5151
 6644SOL    HW221384   6.831   8.627   2.123  0.5702  0.6384  0.3995
 6645SOL     OW21385   8.382   1.438   4.260  0.7553  0.2365 -0.0595
 6645SOL    HW121386   8.411   1.418   4.171  1.9729 -0.1158  0.3961
 6645SOL    HW221387   8.393   1.533   4.268 -0.2924  0.4229 -0.5857
 6646SOL     OW21388   1.441   2.713   7.229  0.4083  0.5647  0.0585
 6646SOL    HW121389   1.518   2.661   7.206 -0.2050  0.2839 -1.4607
 6646SOL    HW221390   1.474   2.779   7.291  1.7774  0.1958 -0.2507
 6647SOL     OW21391   1.269   1.649   7.823  0.0372  0.5143 -0.3005
 6647SOL    HW121392   1.308   1.646   7.910 -0.4631  0.7542 -0.0620
 6647SOL    HW221393   1.320   1.588   7.771  1.0048  1.1515 -0.1139
 6648SOL     OW21394   1.454   8.962   4.455  0.4353 -0.2895 -0.3138
 6648SOL    HW121395   1.378   8.974   4.398 -0.8920 -1.9445  1.0116
 6648SOL    HW221396   1.441   9.025   4.526  1.1323  0.4856 -0.8505
 6649SOL     OW21397   1.165   5.850   5.404 -0.3338 -0.2808 -0.2888
 6649SOL    HW121398   1.205   5.821   5.486 -1.3422 -0.3089  0.2047
 6649SOL    HW221399   1.080   5.887   5.430  0.2792  1.8221 -1.0604
 6650SOL     OW21400   5.041   3.158   4.769 -0.2443 -0.2316  0.5233
 6650SOL    HW121401   4.969   3.125   4.823  0.8417  0.7945  2.7381
 6650SOL    HW221402   5.110   3.093   4.779  0.0163  0.0351  0.4572
 6651SOL     OW21403   6.720   3.845   0.740 -0.2521  0.1268 -0.3489
 6651SOL    HW121404   6.743   3.841   0.647 -0.4656  1.0084 -0.4439
 6651SOL    HW221405   6.661   3.920   0.747  1.3047  1.3131  0.8257
 6652SOL     OW21406   9.046   7.546   2.509 -0.4032  0.1003  0.8757
 6652SOL    HW121407   9.107   7.541   2.435  0.5681  1.3005  1.5717
 6652SOL    HW221408   9.074   7.476   2.568  1.5147  1.7923  2.0530
 6653SOL     OW21409   0.450   6.399   0.229 -0.4840 -0.9268 -0.7281
 6653SOL    HW121410   0.413   6.399   0.317  1.4765 -0.2787  0.1491
 6653SOL    HW221411   0.401   6.467   0.182 -0.1699  0.1787  0.5021
 6654SOL     OW21412   8.928   5.820   6.913  0.3715 -0.2353 -0.6062
 6654SOL    HW121413   8.874   5.768   6.854 -1.1687 -1.1276  1.5006
 6654SOL    HW221414   9.013   5.775   6.914  0.2672 -0.4851 -1.7093
 6655SOL     OW21415   8.212   2.300   9.234  0.3220  0.4702 -0.6585
 6655SOL    HW121416   8.251   2.256   9.158 -0.3090 -1.7015  0.2131
 6655SOL    HW221417   8.269   2.278   9.307 -1.0394 -0.5166  0.1436
 6656SOL     OW21418   6.862   8.021   0.649  0.2944  0.1606 -0.9140
 6656SOL    HW121419   6.832   8.061   0.730  0.6354  1.0545 -1.2216
 6656SOL    HW221420   6.820   7.935   0.648  1.0023 -0.2435  0.6559
 6657SOL     OW21421   2.574   0.978   1.401 -0.1156 -0.2915  0.1214
 6657SOL    HW121422   2.497   0.937   1.361 -0.9429 -1.1217  2.4364
 6657SOL    HW221423   2.546   1.067   1.423 -0.5524 -0.7064  1.2842
 6658SOL     OW21424   6.184   5.150   2.398  0.0904 -0.4596  0.3418
 6658SOL    HW121425   6.229   5.209   2.458  0.0762 -0.7025  0.5963
 6658SOL    HW221426   6.253   5.118   2.340  0.2176 -0.7031  0.6260
 6659SOL     OW21427   1.900   4.672   6.271 -0.0002 -0.1747 -0.0369
 6659SOL    HW121428   1.874   4.758   6.305 -1.3832 -0.5478 -0.0945
 6659SOL    HW221429   1.929   4.690   6.181  2.8379  0.6782  0.9365
 6660SOL     OW21430   0.858   7.859   5.875 -0.3136  0.1847 -0.0608
 6660SOL    HW121431   0.853   7.868   5.780 -0.0838  0.0689 -0.0858
 6660SOL    HW221432   0.783   7.804   5.898  0.5614 -1.2019 -0.3714
 6661SOL     OW21433   1.670   2.229   4.918  0.4166 -0.3393  0.4355
 6661SOL    HW121434   1.652   2.213   4.825 -0.9711  1.1307  0.3926
 6661SOL    HW221435   1.758   2.266   4.919 -0.4866  2.1288 -0.6927
 6662SOL     OW21436   3.710   2.511   7.304  0.1839 -0.2908  0.2948
 6662SOL    HW121437   3.621   2.482   7.284 -0.3898  0.2991  1.8201
 6662SOL    HW221438   3.759   2.430   7.319 -0.0855 -0.6176 -0.5297
 6663SOL     OW21439   1.780   8.829   5.416  0.6494 -0.3810 -0.3092
 6663SOL    HW121440   1.739   8.746   5.390 -1.4094  0.2914  0.6026
 6663SOL    HW221441   1.770   8.886   5.340  2.1429 -0.9411 -0.9686
 6664SOL     OW21442   7.977   9.174   6.758 -1.1503 -0.2354  0.6907
 6664SOL    HW121443   8.007   9.206   6.843  1.9415  2.6782 -1.2315
 6664SOL    HW221444   8.037   9.102   6.738  1.5833  2.2528 -0.9167
 6665SOL     OW21445   8.679   9.260   0.094 -0.0960 -0.0795  0.7967
 6665SOL    HW121446   8.588   9.289   0.089  0.0419  0.3422  0.7295
 6665SOL    HW221447   8.685   9.189   0.030 -0.5662 -0.6301  1.3478
 6666SOL     OW21448   3.961   2.900   2.777  0.1904 -0.3323 -0.3821
 6666SOL    HW121449   3.896   2.833   2.795  0.1148 -1.1620 -3.3828
 6666SOL    HW221450   3.913   2.969   2.730  1.1729 -0.3310 -1.4217
 6667SOL     OW21451   5.863   7.690   7.683 -0.1589 -0.2739 -0.2033
 6667SOL    HW121452   5.869   7.612   7.737  0.0178  0.5573  1.0212
 6667SOL    HW221453   5.769   7.707   7.674 -0.1839  0.1337  0.6983
 6668SOL     OW21454   0.147   9.091   3.101  0.4367 -0.0743  0.2647
 6668SOL    HW121455   0.141   9.101   3.006 -0.4212  0.9410  0.4022
 6668SOL    HW221456   0.207   9.160   3.129 -0.6335  0.7508  0.6075
 6669SOL     OW21457   0.544   7.872   2.438  0.2799  1.0750  0.1315
 6669SOL    HW121458   0.522   7.902   2.350 -2.2292  2.1069  1.0253
 6669SOL    HW221459   0.547   7.776   2.431 -2.9879  0.9232 -0.5302
 6670SOL     OW21460   0.868   7.136   3.870 -0.0318 -0.2217  0.5436
 6670SOL    HW121461   0.941   7.095   3.916  1.8447  0.8818 -1.2952
 6670SOL    HW221462   0.905   7.215   3.831 -1.7728 -0.4335 -1.7735
 6671SOL     OW21463   6.032   8.990   3.197  0.0789 -1.1632  0.1883
 6671SOL    HW121464   5.949   9.037   3.192  1.1615  0.8785  0.4210
 6671SOL    HW221465   6.073   9.021   3.277  1.4524 -1.4438 -0.3704
 6672SOL     OW21466   2.805   3.241   2.684  0.5617 -0.2751 -0.4974
 6672SOL    HW121467   2.773   3.172   2.625  0.9592 -0.9182  0.0231
 6672SOL    HW221468   2.750   3.233   2.762  0.6204 -0.0135 -0.4295
 6673SOL     OW21469   1.079   0.725   3.400  0.0070 -0.1218  0.1651
 6673SOL    HW121470   1.076   0.660   3.470  0.8788  1.4322  1.7258
 6673SOL    HW221471   1.112   0.804   3.442  0.9281  0.7873 -2.0816
 6674SOL     OW21472   3.325   6.449   7.618  0.3098 -0.9021  0.2347
 6674SOL    HW121473   3.275   6.508   7.563 -1.4900 -3.1906 -0.7732
 6674SOL    HW221474   3.269   6.432   7.694  0.7125 -1.4057  0.4302
 6675SOL     OW21475   1.399   3.865   3.729 -0.1941  0.0873  0.3092
 6675SOL    HW121476   1.477   3.862   3.674  0.6593  2.7678  1.1887
 6675SOL    HW221477   1.335   3.811   3.683  1.4958 -0.4547 -1.5574
 6676SOL     OW21478   7.255   6.025   0.885  0.0774 -0.3940 -0.7293
 6676SOL    HW121479   7.244   6.100   0.942 -1.0473 -0.8436 -0.3217
 6676SOL    HW221480   7.311   5.965   0.934 -1.0393 -0.8594  0.0135
 6677SOL     OW21481   2.169   6.220   1.544  0.1424  0.3749 -0.1891
 6677SOL    HW121482   2.213   6.161   1.605  0.2057 -0.4443 -1.0002
 6677SOL    HW221483   2.094   6.170   1.512  0.2481  0.6990 -0.9572
 6678SOL     OW21484   4.074   1.153   1.233  0.6004  0.1637  0.4572
 6678SOL    HW121485   4.072   1.196   1.148  1.6290 -1.1878 -0.2976
 6678SOL    HW221486   4.006   1.086   1.228 -0.0091  0.7240  1.0803
 6679SOL     OW21487   0.763   3.410   3.932 -0.4011  0.2225 -0.0703
 6679SOL    HW121488   0.742   3.503   3.927  1.8900  0.7682 -0.8413
 6679SOL    HW221489   0.728   3.372   3.852 -0.5524  0.5907 -0.1792
 6680SOL     OW21490   0.367   1.489   9.271  0.3914  0.5781 -0.3927
 6680SOL    HW121491   0.353   1.584   9.278 -0.6162  0.3850  0.3451
 6680SOL    HW221492   0.343   1.468   9.181  0.9452  1.0668 -0.6637
 6681SOL     OW21493   7.215   5.307   5.518 -0.5052  0.0699  0.1731
 6681SOL    HW121494   7.260   5.352   5.446  0.9912 -2.6850 -0.7491
 6681SOL    HW221495   7.201   5.218   5.486 -2.6828 -0.3940  2.1605
 6682SOL     OW21496   6.086   2.160   6.579 -0.1860 -0.1647  0.7050
 6682SOL    HW121497   6.067   2.067   6.581 -0.3911 -0.1179  1.2763
 6682SOL    HW221498   6.113   2.178   6.489  1.2507 -1.0454  0.9230
 6683SOL     OW21499   6.371   4.734   8.015 -0.0276 -0.6510 -0.0882
 6683SOL    HW121500   6.400   4.720   7.925  0.2879 -2.0672  0.2071
 6683SOL    HW221501   6.411   4.818   8.040 -0.5356  0.0066 -1.4100
 6684SOL     OW21502   5.079   4.771   5.985  0.6844  0.4243 -1.1896
 6684SOL    HW121503   5.009   4.738   5.929  0.7518 -2.5163  0.2550
 6684SOL    HW221504   5.049   4.857   6.013 -2.1733 -0.5315 -1.0036
 6685SOL     OW21505   5.633   3.317   3.064  0.2699  0.5259 -0.1871
 6685SOL    HW121506   5.540   3.336   3.052  0.0031 -0.9706 -0.7879
 6685SOL    HW221507   5.643   3.227   3.031  2.3097  1.3351 -2.0775
 6686SOL     OW21508   3.243   1.097   0.036  0.8014  0.4528 -0.5387
 6686SOL    HW121509   3.192   1.067   0.112  0.2014  1.2730 -0.6052
 6686SOL    HW221510   3.317   1.144   0.074  0.3471  1.1120 -0.4554
 6687SOL     OW21511   8.253   1.946   0.996  0.6509 -0.5329  0.1851
 6687SOL    HW121512   8.193   1.872   1.002 -0.5301  0.3366 -0.3795
 6687SOL    HW221513   8.267   1.958   0.902 -0.3414  0.8326  0.1811
 6688SOL     OW21514   1.554   0.143   5.427  0.6606  0.3446  0.2729
 6688SOL    HW121515   1.603   0.160   5.507  0.6236 -0.2704  0.4307
 6688SOL    HW221516   1.620   0.148   5.357  0.7110  0.7818  0.3486
 6689SOL     OW21517   5.841   1.599   3.297 -0.1846 -0.2405 -0.6765
 6689SOL    HW121518   5.784   1.524   3.282 -0.7002 -0.0756  0.3786
 6689SOL    HW221519   5.818   1.661   3.228  0.0853 -0.9486 -1.4190
 6690SOL     OW21520   8.540   3.798   5.219  0.1519  0.0123 -0.6551
 6690SOL    HW121521   8.530   3.766   5.129  0.0941 -1.8119 -0.0464
 6690SOL    HW221522   8.489   3.736   5.272 -0.8388  1.7614  0.5292
 6691SOL     OW21523   4.337   1.132   2.216  0.1388 -0.4974  0.7281
 6691SOL    HW121524   4.364   1.189   2.144 -0.8482 -1.3429 -0.3357
 6691SOL    HW221525   4.259   1.174   2.252 -0.1967 -0.8124  0.3766
 6692SOL     OW21526   3.153   8.270   0.388  0.0867 -0.1440  0.4006
 6692SOL    HW121527   3.224   8.316   0.342 -0.0335 -1.1338 -0.8128
 6692SOL    HW221528   3.089   8.252   0.320 -0.0533 -1.7457  0.9291
 6693SOL     OW21529   4.397   9.160   3.695  0.3189 -0.0465  0.5379
 6693SOL    HW121530   4.360   9.200   3.774 -0.9409  0.1572 -0.1373
 6693SOL    HW221531   4.449   9.230   3.655  0.0353  0.1979  0.5919
 6694SOL     OW21532   1.944   2.999   4.569 -0.3231 -0.0371 -0.1765
 6694SOL    HW121533   1.952   2.904   4.579  1.0760 -0.1108 -1.6622
 6694SOL    HW221534   1.992   3.019   4.489 -0.7515  1.9161  0.0116
 6695SOL     OW21535   6.649   1.811   6.935 -0.5508  0.0047  0.4528
 6695SOL    HW121536   6.639   1.765   6.851  0.9500 -0.2842  0.4171
 6695SOL    HW221537   6.620   1.900   6.916  0.2431  0.0721 -0.5213
 6696SOL     OW21538   8.025   0.932   7.564  0.0208  0.7841 -0.2723
 6696SOL    HW121539   7.944   0.885   7.585 -1.4938  2.7348 -1.4710
 6696SOL    HW221540   8.010   1.021   7.596  1.8571  1.1098 -0.2246
 6697SOL     OW21541   6.493   4.239   5.035  0.1460 -0.1887 -0.0531
 6697SOL    HW121542   6.486   4.235   4.939  0.2671 -1.8076 -0.0234
 6697SOL    HW221543   6.424   4.300   5.061  0.6118  0.8678 -1.2137
 6698SOL     OW21544   8.878   5.269   7.213  0.6051 -0.6457 -0.1537
 6698SOL    HW121545   8.926   5.274   7.296 -1.6790  1.8126  1.1946
 6698SOL    HW221546   8.859   5.360   7.191 -2.1074 -1.3953 -1.3260
 6699SOL     OW21547   6.219   3.310   4.462 -0.1998  0.1008 -0.1898
 6699SOL    HW121548   6.146   3.350   4.414  0.4107  2.2360  0.5307
 6699SOL    HW221549   6.181   3.234   4.506 -1.7084  0.4899 -0.7649
 6700SOL     OW21550   1.316   3.355   4.957  0.1381 -0.3521  0.6900
 6700SOL    HW121551   1.398   3.402   4.972  0.3552 -0.7296  0.6926
 6700SOL    HW221552   1.275   3.350   5.043 -1.8976  3.4565  0.1573
 6701SOL     OW21553   4.077   5.932   8.002  0.6381  0.3136 -0.3493
 6701SOL    HW121554   4.058   5.871   7.931 -0.0272  0.0151  0.0717
 6701SOL    HW221555   4.146   5.889   8.053 -2.0012 -1.7292  1.8387
 6702SOL     OW21556   1.841   7.224   3.129 -0.5708 -0.3455  0.0838
 6702SOL    HW121557   1.842   7.238   3.224  2.7437  1.4300 -0.0583
 6702SOL    HW221558   1.895   7.145   3.116  0.3677  0.3483 -0.3556
 6703SOL     OW21559   8.525   4.443   4.235  0.0613  0.1505  0.2404
 6703SOL    HW121560   8.471   4.498   4.177  0.4725  1.3228  0.9303
 6703SOL    HW221561   8.493   4.463   4.323 -0.4895 -1.5356  0.4485
 6704SOL     OW21562   2.506   7.840   8.733  0.1676 -0.3326 -0.0165
 6704SOL    HW121563   2.425   7.838   8.681 -0.3002 -0.6520  0.7092
 6704SOL    HW221564   2.493   7.773   8.800  0.8205 -0.0211  0.4283
 6705SOL     OW21565   6.916   2.093   6.463 -0.3002  0.0351  0.1075
 6705SOL    HW121566   6.929   1.999   6.457 -1.0483 -0.1203  0.8145
 6705SOL    HW221567   6.939   2.115   6.554  2.7366  1.0230 -0.7699
 6706SOL     OW21568   3.929   0.931   6.020 -0.6714  0.0244 -0.0965
 6706SOL    HW121569   3.978   0.935   6.102 -0.2009 -0.1261 -0.3702
 6706SOL    HW221570   3.837   0.943   6.046 -0.8257 -2.4786  0.7265
 6707SOL     OW21571   5.513   3.812   9.009 -0.0697  0.1871  0.5567
 6707SOL    HW121572   5.569   3.735   9.021  2.5612  2.0939  1.5334
 6707SOL    HW221573   5.478   3.802   8.920  1.1992 -1.5387  0.1912
 6708SOL     OW21574   5.028   9.241   5.934 -0.0607  1.1122  0.0653
 6708SOL    HW121575   5.014   9.157   5.889 -0.2344  1.7754 -1.1876
 6708SOL    HW221576   5.030   9.219   6.027 -2.6862  0.0385 -0.0482
 6709SOL     OW21577   4.302   9.258   7.697 -0.2713 -0.4740  0.4319
 6709SOL    HW121578   4.333   9.244   7.608 -0.6721 -1.6194  0.4579
 6709SOL    HW221579   4.363   9.208   7.751 -0.8747 -0.9577  0.6709
 6710SOL     OW21580   3.088   8.397   2.820 -0.1239 -0.4924 -0.5420
 6710SOL    HW121581   3.136   8.431   2.744 -0.0481 -1.3663 -0.9023
 6710SOL    HW221582   3.004   8.366   2.783 -0.9958  1.0253  0.0790
 6711SOL     OW21583   0.157   8.662   4.907 -0.4827 -0.6561 -0.1986
 6711SOL    HW121584   0.136   8.752   4.884 -0.7477 -1.1370 -2.0324
 6711SOL    HW221585   0.107   8.609   4.844  1.3290 -2.0209 -0.5817
 6712SOL     OW21586   3.553   6.043   0.944  0.1277 -0.2001 -0.1157
 6712SOL    HW121587   3.569   6.137   0.941 -0.7086 -0.0685 -1.0504
 6712SOL    HW221588   3.459   6.034   0.926  0.1305 -1.1949  0.2810
 6713SOL     OW21589   5.858   5.215   4.590  0.8352  0.3055 -0.4240
 6713SOL    HW121590   5.930   5.272   4.562  1.3772 -0.5873 -0.8958
 6713SOL    HW221591   5.829   5.172   4.509 -1.1146  1.6141 -0.4760
 6714SOL     OW21592   1.187   5.137   4.265  0.0258  0.0247 -0.1300
 6714SOL    HW121593   1.257   5.197   4.240 -0.7861  1.3912  0.7525
 6714SOL    HW221594   1.231   5.055   4.284  1.2035  0.4200 -1.0531
 6715SOL     OW21595   1.904   5.666   9.144 -0.0468  0.4506 -0.2085
 6715SOL    HW121596   1.916   5.573   9.165  0.4530  0.2185 -1.4015
 6715SOL    HW221597   1.810   5.675   9.128  0.0716 -0.1874 -1.4320
 6716SOL     OW21598   9.226   2.549   6.877  0.5340  0.2072 -0.2776
 6716SOL    HW121599   9.277   2.539   6.957 -0.0647 -0.5757  0.0175
 6716SOL    HW221600   9.192   2.461   6.859  0.6761  0.3623 -1.4079
 6717SOL     OW21601   7.786   7.740   0.175 -0.7452 -0.5402 -0.0989
 6717SOL    HW121602   7.872   7.780   0.184 -0.8785  0.2941 -2.0604
 6717SOL    HW221603   7.727   7.815   0.162 -1.3469 -1.2338 -1.5093
 6718SOL     OW21604   2.908   2.575   3.138  0.6273  0.2637  0.5195
 6718SOL    HW121605   2.901   2.594   3.045 -1.0812 -0.4726  0.4548
 6718SOL    HW221606   2.987   2.621   3.167  0.1538  2.0474 -0.8828
 6719SOL     OW21607   3.571   5.174   5.588  0.3166 -0.3049 -0.1675
 6719SOL    HW121608   3.592   5.083   5.567  0.0559 -0.5924  0.7653
 6719SOL    HW221609   3.498   5.196   5.530 -0.9464 -1.3428  0.9558
 6720SOL     OW21610   6.637   7.543   3.849  0.7626  0.2787  0.0282
 6720SOL    HW121611   6.675   7.504   3.927  0.4759 -1.0851 -0.4852
 6720SOL    HW221612   6.664   7.485   3.778  0.4560  1.1183 -0.7949
 6721SOL     OW21613   2.362   6.686   4.814  0.0512  0.0467  0.2107
 6721SOL    HW121614   2.395   6.745   4.746 -2.1731  0.6796 -0.4107
 6721SOL    HW221615   2.380   6.732   4.896 -1.1815  1.4120 -0.2375
 6722SOL     OW21616   0.728   6.811   2.742  1.3978  0.4854  0.1277
 6722SOL    HW121617   0.823   6.809   2.754  1.2268 -0.3969  1.5642
 6722SOL    HW221618   0.700   6.720   2.757  0.1530  1.0329  1.3155
 6723SOL     OW21619   7.115   3.296   4.368  0.6442  0.2595  0.1020
 6723SOL    HW121620   7.149   3.362   4.427  1.9421 -1.5199  1.4655
 6723SOL    HW221621   7.169   3.219   4.384 -0.6726 -1.1008 -1.5293
 6724SOL     OW21622   7.578   6.511   6.452 -0.1428  0.2668 -0.3156
 6724SOL    HW121623   7.575   6.417   6.435 -0.5575  0.3301 -0.6243
 6724SOL    HW221624   7.616   6.519   6.539 -1.7683 -0.2835  0.4874
 6725SOL     OW21625   0.191   1.194   5.144 -0.6062 -0.0468 -0.1108
 6725SOL    HW121626   0.098   1.188   5.121 -0.5087  0.4259 -0.6284
 6725SOL    HW221627   0.215   1.284   5.123  0.1757 -0.3941 -0.7428
 6726SOL     OW21628   7.686   0.126   4.262 -0.1009 -0.3167  0.1132
 6726SOL    HW121629   7.766   0.167   4.231 -0.0449  0.6068  1.4104
 6726SOL    HW221630   7.617   0.189   4.243 -0.4406 -0.8332 -0.4133
 6727SOL     OW21631   5.576   2.654   2.008 -0.4659  0.4655 -0.1647
 6727SOL    HW121632   5.636   2.720   2.043 -0.8467  1.3533 -1.1257
 6727SOL    HW221633   5.608   2.637   1.919 -0.6741 -0.2676 -0.1060
 6728SOL     OW21634   6.506   5.051   7.919 -0.7665 -0.2654  0.0700
 6728SOL    HW121635   6.483   4.996   7.844  1.9306 -0.1142 -0.9869
 6728SOL    HW221636   6.433   5.113   7.927 -1.1850 -0.3233 -2.4253
 6729SOL     OW21637   5.536   7.009   2.430  0.4369 -0.3967  0.4749
 6729SOL    HW121638   5.566   7.043   2.346  0.3142  0.5329  0.7958
 6729SOL    HW221639   5.615   7.000   2.483  0.1540  3.5539  1.8686
 6730SOL     OW21640   0.339   3.561   6.641 -0.4930 -0.2734  0.0343
 6730SOL    HW121641   0.301   3.593   6.559  0.4773  1.6028  0.2715
 6730SOL    HW221642   0.426   3.528   6.616 -0.2249  0.2338  0.2925
 6731SOL     OW21643   4.758   3.594   6.812 -0.2390 -0.7097 -0.1514
 6731SOL    HW121644   4.690   3.633   6.868  0.6129  1.1040 -0.2962
 6731SOL    HW221645   4.712   3.527   6.761 -1.1185 -2.1723  2.4067
 6732SOL     OW21646   3.113   3.371   8.410 -0.3123 -0.1040  0.4500
 6732SOL    HW121647   3.119   3.287   8.454  0.3261 -1.3646 -1.8723
 6732SOL    HW221648   3.195   3.379   8.360 -1.0784  1.0586 -0.7149
 6733SOL     OW21649   3.664   0.941   6.051  0.3083 -0.0540 -0.0879
 6733SOL    HW121650   3.613   0.953   5.971 -0.3439  0.4189  0.3846
 6733SOL    HW221651   3.617   0.873   6.099 -0.1256  0.6452  0.5211
 6734SOL     OW21652   8.901   1.428   4.863 -0.3560 -0.2911  0.3301
 6734SOL    HW121653   8.864   1.360   4.918 -1.8301  0.6670  0.5786
 6734SOL    HW221654   8.861   1.414   4.777 -0.7964  0.3610  0.4266
 6735SOL     OW21655   1.468   5.906   7.505  0.4421 -0.3703 -0.4382
 6735SOL    HW121656   1.488   5.864   7.422  0.1756 -1.0933 -0.1416
 6735SOL    HW221657   1.403   5.849   7.547 -1.2353  1.2139 -0.7632
 6736SOL     OW21658   0.161   8.386   3.674  0.5281 -0.1672 -0.0176
 6736SOL    HW121659   0.132   8.337   3.751  1.1652  0.3774  0.5773
 6736SOL    HW221660   0.182   8.318   3.610 -3.1112 -0.5997 -0.9383
 6737SOL     OW21661   1.384   2.174   6.474  0.4755 -0.2787 -0.2596
 6737SOL    HW121662   1.400   2.080   6.481  0.4007 -0.1802  1.6869
 6737SOL    HW221663   1.319   2.182   6.404  0.0093 -1.7305 -0.0325
 6738SOL     OW21664   2.473   2.407   3.754 -0.4596  0.4581  0.2994
 6738SOL    HW121665   2.415   2.422   3.679  1.0300  2.0937 -0.5912
 6738SOL    HW221666   2.553   2.455   3.733  1.8408 -2.7881  0.8508
 6739SOL     OW21667   8.564   1.607   4.539  0.4332  0.4546 -0.6180
 6739SOL    HW121668   8.595   1.549   4.470 -0.0817 -1.1903  0.4705
 6739SOL    HW221669   8.637   1.613   4.600  0.0460 -0.1455 -0.0769
 6740SOL     OW21670   2.487   4.891   8.187  0.2953 -0.2419 -0.1090
 6740SOL    HW121671   2.406   4.877   8.138  0.0145 -0.7091  0.4847
 6740SOL    HW221672   2.475   4.976   8.229  0.5666  0.1971 -0.8936
 6741SOL     OW21673   4.128   6.982   4.815 -0.0883 -0.2905  0.3221
 6741SOL    HW121674   4.145   6.992   4.722  0.2789  1.2513  0.5215
 6741SOL    HW221675   4.052   7.037   4.832 -1.5266 -2.2343  0.5844
 6742SOL     OW21676   1.629   3.080   8.888 -0.2905 -0.1588  0.0913
 6742SOL    HW121677   1.617   3.048   8.978 -0.2702  0.4661  0.3238
 6742SOL    HW221678   1.628   3.001   8.834 -1.7540 -0.4526  0.4866
 6743SOL     OW21679   0.062   5.662   7.775  0.1663 -0.4752  0.1877
 6743SOL    HW121680   0.062   5.638   7.868 -0.3528  2.1580  0.9426
 6743SOL    HW221681   0.153   5.655   7.749  0.2614 -1.6323  0.7675
 6744SOL     OW21682   4.920   0.584   8.554 -0.7461 -0.8201  0.4320
 6744SOL    HW121683   4.999   0.635   8.570  0.1632 -2.0268 -0.0327
 6744SOL    HW221684   4.864   0.603   8.629 -1.2178  2.1721 -0.5388
 6745SOL     OW21685   6.870   5.496   8.943  0.4737  0.0488  0.6645
 6745SOL    HW121686   6.837   5.490   9.033 -0.9687  0.5543  0.1886
 6745SOL    HW221687   6.848   5.412   8.904  0.4335  0.1103  0.5567
 6746SOL     OW21688   4.468   4.870   2.840 -0.2526  0.4627  0.0462
 6746SOL    HW121689   4.434   4.901   2.924  2.3807  0.7265  1.1065
 6746SOL    HW221690   4.434   4.932   2.776 -0.5369  1.5729  1.2355
 6747SOL     OW21691   8.397   4.558   6.145 -0.4686  0.0134  0.4091
 6747SOL    HW121692   8.429   4.537   6.233  1.2285 -0.5124 -0.2783
 6747SOL    HW221693   8.310   4.519   6.141 -0.3229 -0.4935  1.6619
 6748SOL     OW21694   3.751   5.358   8.208  0.0530  0.1452  0.2117
 6748SOL    HW121695   3.820   5.292   8.219 -0.1027  0.0413  0.5701
 6748SOL    HW221696   3.797   5.436   8.178  0.3708  0.1686  0.7457
 6749SOL     OW21697   3.595   7.451   5.691 -0.0827  0.1091  0.3843
 6749SOL    HW121698   3.659   7.520   5.673  1.4859 -1.0383  1.2603
 6749SOL    HW221699   3.581   7.454   5.785 -3.5045  2.0817 -0.0158
 6750SOL     OW21700   0.528   2.332   2.863 -0.2104  0.1764  0.4948
 6750SOL    HW121701   0.475   2.372   2.794 -2.0635 -2.2837  0.3928
 6750SOL    HW221702   0.613   2.376   2.856 -1.7834  3.4535 -0.1102
 6751SOL     OW21703   7.442   6.362   1.640 -0.4743 -0.0414  0.3405
 6751SOL    HW121704   7.525   6.314   1.635 -0.3483 -0.3077  3.3804
 6751SOL    HW221705   7.454   6.436   1.580  0.9479 -1.4109 -1.1962
 6752SOL     OW21706   3.683   4.917   0.556 -0.2610 -0.0661  0.1674
 6752SOL    HW121707   3.764   4.924   0.506 -0.2653  0.9502  0.2778
 6752SOL    HW221708   3.669   5.005   0.592  0.7715 -1.1464  3.6307
 6753SOL     OW21709   2.375   6.128   3.529  0.2498  0.2597 -0.3705
 6753SOL    HW121710   2.280   6.115   3.535  0.2661 -0.2169 -1.0728
 6753SOL    HW221711   2.391   6.143   3.436  0.6627  2.0116 -0.0668
 6754SOL     OW21712   0.750   5.264   3.581  0.2523  0.0101  0.1280
 6754SOL    HW121713   0.733   5.190   3.523 -1.2826 -0.3843  1.0076
 6754SOL    HW221714   0.786   5.225   3.660 -2.9523 -0.2299  1.6297
 6755SOL     OW21715   1.394   4.809   7.634 -0.0557 -0.4340 -0.8993
 6755SOL    HW121716   1.431   4.840   7.551 -0.3398 -0.3800 -1.0064
 6755SOL    HW221717   1.435   4.723   7.648  0.5054 -0.1520 -0.7534
 6756SOL     OW21718   7.457   5.924   2.778  0.3254  0.5828  0.2022
 6756SOL    HW121719   7.388   5.931   2.845  0.3028  0.7108  0.1657
 6756SOL    HW221720   7.489   6.013   2.767  0.7893  0.4548  0.5231
 6757SOL     OW21721   6.523   8.820   6.380  0.2537 -0.1389 -0.0994
 6757SOL    HW121722   6.541   8.878   6.306  0.8013 -0.9133 -0.5912
 6757SOL    HW221723   6.584   8.849   6.448  1.5701 -1.0379 -0.8465
 6758SOL     OW21724   1.968   8.974   9.069 -0.2850  0.4535 -0.1414
 6758SOL    HW121725   1.965   9.057   9.116  2.5243  0.9068 -0.5915
 6758SOL    HW221726   2.006   8.996   8.984 -0.0820 -1.1843 -0.5045
 6759SOL     OW21727   5.875   3.349   1.981  0.0744 -0.0160 -0.6516
 6759SOL    HW121728   5.828   3.422   2.023  0.2098 -0.6574  0.6675
 6759SOL    HW221729   5.923   3.390   1.910 -0.6605  1.0272 -0.5763
 6760SOL     OW21730   1.056   7.928   8.481  0.0808 -0.5468  0.2393
 6760SOL    HW121731   1.125   7.880   8.436  0.3136 -1.0431  1.1002
 6760SOL    HW221732   0.978   7.913   8.428  0.4118 -0.8511 -0.1712
 6761SOL     OW21733   0.568   2.710   8.522  0.1789 -0.2809  0.7958
 6761SOL    HW121734   0.607   2.630   8.557 -1.4041 -0.9426  1.1623
 6761SOL    HW221735   0.610   2.723   8.438  0.1217 -1.7884  0.5098
 6762SOL     OW21736   7.572   2.851   3.660 -0.1904  0.2919 -0.1513
 6762SOL    HW121737   7.647   2.808   3.701 -0.9807 -0.9278  0.0724
 6762SOL    HW221738   7.519   2.779   3.626 -1.2741  1.1241 -0.2864
 6763SOL     OW21739   1.066   1.927   3.574  0.0027 -0.1155 -0.3046
 6763SOL    HW121740   1.047   1.836   3.594 -2.0656  0.8056  2.6374
 6763SOL    HW221741   1.145   1.948   3.624  0.6097 -0.3137 -1.1591
 6764SOL     OW21742   1.481   2.544   2.858  0.3503 -0.4598  0.2398
 6764SOL    HW121743   1.427   2.482   2.808 -2.7456  0.7418  1.8241
 6764SOL    HW221744   1.568   2.504   2.858 -0.2237 -2.1553 -3.1576
 6765SOL     OW21745   8.643   6.530   4.198 -0.5585 -0.1783 -0.3294
 6765SOL    HW121746   8.669   6.462   4.261  1.3480 -0.1545 -1.0162
 6765SOL    HW221747   8.682   6.611   4.233 -0.1943 -0.0137 -1.1030
 6766SOL     OW21748   1.931   4.275   0.959  0.3955  0.9562  0.0752
 6766SOL    HW121749   1.892   4.212   1.019  1.5389  1.1918  1.0897
 6766SOL    HW221750   1.993   4.325   1.012  1.0383  1.5434 -1.1763
 6767SOL     OW21751   9.154   1.958   4.278  0.1297 -0.3287  0.1094
 6767SOL    HW121752   9.087   1.986   4.341  0.0389 -0.2290 -0.0311
 6767SOL    HW221753   9.107   1.901   4.217 -0.2890  1.2944 -1.1653
 6768SOL     OW21754   6.753   8.926   5.357 -0.4076  0.0265 -0.8618
 6768SOL    HW121755   6.660   8.924   5.336 -0.3748  1.0387 -1.1627
 6768SOL    HW221756   6.785   8.838   5.338 -1.3817 -0.4427 -0.3726
 6769SOL     OW21757   0.025   9.154   9.148 -0.1114  0.1555 -0.0448
 6769SOL    HW121758  -0.050   9.181   9.201  0.4635 -1.0455  1.4578
 6769SOL    HW221759  -0.013   9.127   9.065 -1.2392  0.3894  0.3755
 6770SOL     OW21760   5.074   0.523   3.847  0.1519  0.1142 -0.3943
 6770SOL    HW121761   5.055   0.480   3.764  0.1843 -1.0022  0.1582
 6770SOL    HW221762   5.001   0.582   3.861  0.0553  0.1778 -1.1244
 6771SOL     OW21763   0.337   7.581   2.954  0.4455  0.2255  0.3029
 6771SOL    HW121764   0.354   7.497   2.912 -1.1504  0.0359 -0.0395
 6771SOL    HW221765   0.394   7.582   3.031  1.6950 -0.4344 -0.5897
 6772SOL     OW21766   7.881   8.300   0.029  0.1163 -0.2366  0.6137
 6772SOL    HW121767   7.845   8.325   0.114 -0.0263 -1.0549  0.8063
 6772SOL    HW221768   7.974   8.285   0.046  0.4089  1.0895  0.2882
 6773SOL     OW21769   2.503   6.517   4.473  0.3705  1.1395 -0.2288
 6773SOL    HW121770   2.544   6.593   4.432  0.5195  0.4296 -1.4166
 6773SOL    HW221771   2.411   6.524   4.451  0.4963  0.6016 -0.9415
 6774SOL     OW21772   5.430   1.178   5.828  0.1331 -0.8027  0.0038
 6774SOL    HW121773   5.445   1.221   5.744  1.9452  2.5591  1.8236
 6774SOL    HW221774   5.516   1.150   5.857 -0.3626 -1.3007  1.0454
 6775SOL     OW21775   3.424   4.125   6.745  0.1359 -0.3074  0.3669
 6775SOL    HW121776   3.469   4.197   6.788  1.2397 -1.6481  1.5506
 6775SOL    HW221777   3.338   4.161   6.721  1.3443  1.9704 -0.9075
 6776SOL     OW21778   3.839   1.926   8.840  0.0182 -0.1953 -0.1821
 6776SOL    HW121779   3.831   1.843   8.888  0.7685  0.8482  1.8991
 6776SOL    HW221780   3.923   1.918   8.795  0.8192 -0.0393  1.2147
 6777SOL     OW21781   1.452   2.992   7.156 -0.2473 -0.0420  0.4072
 6777SOL    HW121782   1.453   2.914   7.100 -0.7286 -0.1413  0.5284
 6777SOL    HW221783   1.544   3.013   7.170 -0.1201 -0.0319 -0.3993
 6778SOL     OW21784   6.476   7.102   4.693  0.3888  0.5660 -0.4129
 6778SOL    HW121785   6.568   7.079   4.698 -0.3286 -2.3871  0.9998
 6778SOL    HW221786   6.459   7.156   4.770  0.8836  1.1243 -0.6845
 6779SOL     OW21787   4.429   1.070   6.240  0.5430  0.3563  0.3129
 6779SOL    HW121788   4.338   1.053   6.215  0.7590  0.1042 -0.3099
 6779SOL    HW221789   4.426   1.083   6.335 -0.3464  1.7152  0.1283
 6780SOL     OW21790   6.617   5.373   7.808 -0.8841 -0.1775 -0.6196
 6780SOL    HW121791   6.666   5.321   7.871  0.2286  0.2018 -1.1397
 6780SOL    HW221792   6.589   5.450   7.856  0.2144  0.2526 -0.6443
 6781SOL     OW21793   4.460   1.296   2.042  0.2600  0.3352 -0.6000
 6781SOL    HW121794   4.412   1.284   1.959  0.1865  1.5468 -0.7444
 6781SOL    HW221795   4.468   1.391   2.052  1.1807  0.1782  0.2724
 6782SOL     OW21796   3.329   7.995   4.684 -0.1535 -0.0713 -0.2701
 6782SOL    HW121797   3.265   7.995   4.613  1.3472  0.8731 -1.6717
 6782SOL    HW221798   3.414   7.990   4.641  0.8563  1.5579  1.3937
 6783SOL     OW21799   2.581   9.115   7.010  0.1128  0.1126  0.0512
 6783SOL    HW121800   2.497   9.119   7.054 -0.1720 -0.3906 -0.4277
 6783SOL    HW221801   2.565   9.060   6.933  0.5644  1.0825 -0.7539
 6784SOL     OW21802   3.079   3.896   8.324  0.0947 -0.1735  0.4007
 6784SOL    HW121803   3.120   3.851   8.249  1.4951  1.0324  0.3879
 6784SOL    HW221804   3.118   3.854   8.401 -1.8084 -1.8362  0.5195
 6785SOL     OW21805   1.543   4.075   7.218  0.6721  0.1619 -0.8724
 6785SOL    HW121806   1.600   4.151   7.230  3.1337 -1.2211 -2.6888
 6785SOL    HW221807   1.535   4.036   7.305 -1.0105  2.6207  0.1896
 6786SOL     OW21808   5.216   8.213   0.893  0.0374  0.2286  0.4134
 6786SOL    HW121809   5.212   8.221   0.988  1.1433  0.5485  0.4448
 6786SOL    HW221810   5.206   8.120   0.876  1.2318 -0.0144  0.9443
 6787SOL     OW21811   8.977   1.799   0.024 -0.0766 -0.3640  0.5080
 6787SOL    HW121812   8.937   1.818  -0.061  0.8741  0.5201  0.2419
 6787SOL    HW221813   8.922   1.845   0.087  0.8693  1.4335  0.0818
 6788SOL     OW21814   7.776   7.851   6.694 -0.3731  0.2787  0.1723
 6788SOL    HW121815   7.684   7.876   6.686  0.0945  2.1132  0.0977
 6788SOL    HW221816   7.817   7.886   6.614  0.3364 -0.8665  0.0060
 6789SOL     OW21817   4.598   8.504   7.083  0.5059 -0.1414 -0.0474
 6789SOL    HW121818   4.638   8.583   7.046  0.1563 -0.8073 -1.9466
 6789SOL    HW221819   4.516   8.535   7.122  1.4848  0.7802  1.3667
 6790SOL     OW21820   5.409   0.083   4.007  0.0697  0.1515 -0.3379
 6790SOL    HW121821   5.410   0.144   4.081 -0.3990 -0.7790  0.4649
 6790SOL    HW221822   5.316   0.071   3.988  0.1936  0.5026 -1.1862
 6791SOL     OW21823   5.675   3.017   3.559  0.3627  0.2474  0.2376
 6791SOL    HW121824   5.767   2.993   3.568  0.9899  2.7186  1.0993
 6791SOL    HW221825   5.657   3.073   3.634 -1.6974  0.3002 -0.2394
 6792SOL     OW21826   4.331   6.432   5.159  0.2968  0.7656 -0.1476
 6792SOL    HW121827   4.251   6.459   5.114 -0.0461 -0.2314 -0.1474
 6792SOL    HW221828   4.301   6.381   5.234  0.9358 -1.8679 -1.5668
 6793SOL     OW21829   4.425   0.999   4.623 -0.3648 -0.4596  0.1368
 6793SOL    HW121830   4.469   0.969   4.543 -2.8107 -0.2806 -1.3827
 6793SOL    HW221831   4.376   0.922   4.653 -0.2262 -0.2496  0.9149
 6794SOL     OW21832   1.927   5.965   8.560  0.5538  1.0302 -0.1269
 6794SOL    HW121833   1.864   5.902   8.526  1.4642  0.2627 -0.4458
 6794SOL    HW221834   1.989   5.977   8.488  0.9764  1.4839  0.3082
 6795SOL     OW21835   2.479   3.204   4.405  0.5542 -0.1414  0.0375
 6795SOL    HW121836   2.509   3.118   4.375  0.0835 -0.0620 -0.7036
 6795SOL    HW221837   2.429   3.239   4.331  1.1876  1.0037  0.1228
 6796SOL     OW21838   1.671   5.391   1.298 -0.0517 -0.0426  0.1038
 6796SOL    HW121839   1.596   5.410   1.354  0.3550 -0.8046  0.9311
 6796SOL    HW221840   1.650   5.433   1.215 -0.6976  1.0661  0.7985
 6797SOL     OW21841   0.519   2.292   8.497  0.3086  0.4635 -0.6536
 6797SOL    HW121842   0.528   2.204   8.462  1.0145  0.2013  0.1643
 6797SOL    HW221843   0.483   2.343   8.424  0.3896 -0.3748 -1.2974
 6798SOL     OW21844   4.999   8.745   8.976 -0.1339 -0.1477 -0.1235
 6798SOL    HW121845   5.010   8.765   9.070  1.6961 -0.9005 -0.1217
 6798SOL    HW221846   5.023   8.827   8.932 -1.7978  0.4696  0.0427
 6799SOL     OW21847   3.271   3.029   2.497 -0.0610  0.0989 -0.2060
 6799SOL    HW121848   3.237   2.957   2.443  0.5786 -0.2110 -0.2128
 6799SOL    HW221849   3.221   3.106   2.469 -0.7069 -0.3302 -0.2463
 6800SOL     OW21850   7.441   1.050   6.608  0.6705  0.1169  0.0260
 6800SOL    HW121851   7.397   1.020   6.529  2.4947 -0.1010 -0.9650
 6800SOL    HW221852   7.370   1.068   6.670 -0.7353 -1.0775 -1.1602
 6801SOL     OW21853   4.014   3.855   0.603 -0.4222  0.2036  0.3339
 6801SOL    HW121854   3.995   3.810   0.521 -0.8263  0.2161  0.4204
 6801SOL    HW221855   3.929   3.882   0.636 -0.5298 -1.9910  2.0344
 6802SOL     OW21856   2.751   6.323   1.792  0.2938  0.5351  0.6655
 6802SOL    HW121857   2.736   6.232   1.816  2.3505 -0.2117 -0.6053
 6802SOL    HW221858   2.771   6.367   1.875 -2.2421  0.2725  1.5205
 6803SOL     OW21859   8.801   2.408   6.651 -0.6116  0.1614 -0.0559
 6803SOL    HW121860   8.779   2.344   6.719  0.1896  0.1901  0.2380
 6803SOL    HW221861   8.798   2.492   6.696  0.4390  0.1369  0.0902
 6804SOL     OW21862   5.729   2.369   3.539  0.3670 -0.2228 -0.0914
 6804SOL    HW121863   5.801   2.421   3.573  0.3168 -0.3661  0.2376
 6804SOL    HW221864   5.759   2.339   3.453  0.3986  0.3363 -0.2805
 6805SOL     OW21865   7.920   8.258   0.736  0.2228  0.2752  0.6301
 6805SOL    HW121866   7.978   8.333   0.724  0.1344  0.1802 -0.5599
 6805SOL    HW221867   7.876   8.274   0.819  0.8852  1.0691  0.8387
 6806SOL     OW21868   7.433   6.458   8.304 -0.1596 -0.1728  0.1359
 6806SOL    HW121869   7.502   6.523   8.314 -0.5558  0.2886 -0.0666
 6806SOL    HW221870   7.406   6.437   8.393 -0.5877  0.5547  0.1821
 6807SOL     OW21871   4.881   4.649   5.530 -0.0551  0.2482  0.4217
 6807SOL    HW121872   4.856   4.558   5.511 -0.5537  0.1984  1.2661
 6807SOL    HW221873   4.858   4.661   5.622  0.2337  1.1618  0.3799
 6808SOL     OW21874   8.997   3.295   5.169  0.2669 -0.2621 -0.1387
 6808SOL    HW121875   9.058   3.340   5.227  0.5038 -1.5195  0.6209
 6808SOL    HW221876   8.945   3.365   5.130  1.0311  0.7048  0.5294
 6809SOL     OW21877   8.424   2.415   1.239  0.4767  0.1191  0.0286
 6809SOL    HW121878   8.352   2.364   1.203 -0.3721  0.9862  0.4609
 6809SOL    HW221879   8.503   2.372   1.206 -0.2369 -0.6930 -0.6549
 6810SOL     OW21880   0.303   6.291   6.394 -0.1400  0.2059 -0.1715
 6810SOL    HW121881   0.225   6.249   6.358  0.4466 -0.1817 -1.0235
 6810SOL    HW221882   0.278   6.315   6.483  0.1781 -4.0622  1.2990
 6811SOL     OW21883   5.060   6.193   7.835 -0.5596  0.1942  0.0377
 6811SOL    HW121884   5.103   6.111   7.810 -1.9992 -0.4200 -0.5539
 6811SOL    HW221885   5.118   6.261   7.802  3.3670 -0.3110  4.8724
 6812SOL     OW21886   1.820   4.322   5.193 -0.2498  0.1220  0.4268
 6812SOL    HW121887   1.742   4.373   5.170  0.1086 -0.0035 -1.2350
 6812SOL    HW221888   1.893   4.376   5.164  0.1611 -0.9524 -0.6433
 6813SOL     OW21889   0.368   5.894   7.402  0.2348 -0.0044  0.1226
 6813SOL    HW121890   0.402   5.929   7.319 -0.5440  0.8587  0.1597
 6813SOL    HW221891   0.446   5.874   7.453  0.7293 -0.5276 -0.8085
 6814SOL     OW21892   8.862   5.706   3.499  0.4344 -0.0271  0.2658
 6814SOL    HW121893   8.930   5.678   3.439 -0.5318  0.3438 -1.0420
 6814SOL    HW221894   8.806   5.763   3.447  0.0720  1.0464  1.7732
 6815SOL     OW21895   1.888   6.958   6.096  0.3889  0.4129  0.2626
 6815SOL    HW121896   1.874   6.998   6.181 -2.3000 -0.3073  0.2715
 6815SOL    HW221897   1.821   6.997   6.040  1.2439 -0.0932 -1.1774
 6816SOL     OW21898   2.553   0.630   1.038 -0.2644  0.3404 -0.7547
 6816SOL    HW121899   2.592   0.700   0.986  1.2062 -0.2922 -0.5719
 6816SOL    HW221900   2.558   0.553   0.981 -0.1788  0.0007 -0.2900
 6817SOL     OW21901   0.886   2.069   3.049  0.5751  0.3864 -0.6800
 6817SOL    HW121902   0.970   2.101   3.014  1.9345 -1.5093  0.6121
 6817SOL    HW221903   0.877   2.114   3.133  0.5157  0.2746 -0.6263
 6818SOL     OW21904   5.139   1.187   8.686 -0.1779  0.2327 -0.2143
 6818SOL    HW121905   5.136   1.092   8.676 -2.3384  0.2035  0.1664
 6818SOL    HW221906   5.056   1.217   8.650  0.2471  1.9327  0.1512
 6819SOL     OW21907   5.353   5.800   5.861  0.0386  0.3768  0.7060
 6819SOL    HW121908   5.413   5.739   5.820 -0.0678  0.3945  0.5236
 6819SOL    HW221909   5.322   5.856   5.790 -0.1799  0.3790  0.7991
 6820SOL     OW21910   0.677   4.842   3.625  0.2527  0.0894 -0.1991
 6820SOL    HW121911   0.628   4.773   3.669  1.5462 -0.6150  0.1997
 6820SOL    HW221912   0.741   4.871   3.690 -0.2277  1.6535 -0.3705
 6821SOL     OW21913   6.693   8.412   3.655 -0.0150 -0.4710 -0.3117
 6821SOL    HW121914   6.775   8.386   3.698 -0.5931  0.2946  1.3294
 6821SOL    HW221915   6.642   8.455   3.724 -0.5398  1.8345 -2.0152
 6822SOL     OW21916   9.214   4.085   5.654 -1.2042 -0.2011  0.2261
 6822SOL    HW121917   9.232   4.096   5.747  0.6005 -0.0146 -0.1197
 6822SOL    HW221918   9.222   4.172   5.617  1.2829 -0.7011 -0.5853
 6823SOL     OW21919   8.036   6.137   3.836 -0.0271 -0.2754 -0.0627
 6823SOL    HW121920   8.016   6.130   3.742  0.5139 -0.2714 -0.1827
 6823SOL    HW221921   8.006   6.225   3.860  1.0725  0.2597 -0.5589
 6824SOL     OW21922   4.566   0.323   0.786 -0.3302 -0.0087  0.3811
 6824SOL    HW121923   4.531   0.245   0.828  0.4324 -0.2677  0.5554
 6824SOL    HW221924   4.654   0.333   0.824 -1.5140  2.7342  2.7929
 6825SOL     OW21925   8.352   9.100   0.848 -0.5164  0.5441 -0.3689
 6825SOL    HW121926   8.406   9.175   0.826  0.3220 -0.2203 -0.9666
 6825SOL    HW221927   8.299   9.085   0.770  1.1082 -0.9945 -1.2545
 6826SOL     OW21928   1.284   2.392   4.451 -0.0368  0.4122  0.0969
 6826SOL    HW121929   1.281   2.343   4.369 -0.9633 -0.8327  0.8330
 6826SOL    HW221930   1.373   2.377   4.484 -0.5516 -1.5538  0.7254
 6827SOL     OW21931   1.893   1.442   3.606  0.3321 -0.3309 -0.5358
 6827SOL    HW121932   1.845   1.524   3.596  0.8037 -0.2392 -2.3167
 6827SOL    HW221933   1.853   1.401   3.683 -0.4332  1.1976 -0.0697
 6828SOL     OW21934   2.804   4.166   4.151 -0.1048  0.0716 -0.4427
 6828SOL    HW121935   2.721   4.192   4.192 -1.1801 -1.4423 -1.5577
 6828SOL    HW221936   2.868   4.172   4.222 -0.8477  2.5382  0.1339
 6829SOL     OW21937   1.686   2.129   2.195  0.0980 -0.0813 -0.2408
 6829SOL    HW121938   1.636   2.201   2.235  0.6436  1.6156 -2.4096
 6829SOL    HW221939   1.767   2.171   2.164  0.0999 -1.4551 -2.2532
 6830SOL     OW21940   8.399   2.848   5.085 -0.5884 -0.1356  0.1515
 6830SOL    HW121941   8.324   2.864   5.028 -0.2184 -2.5021 -1.0921
 6830SOL    HW221942   8.470   2.899   5.046 -1.3120  1.6440  1.0030
 6831SOL     OW21943   0.117   6.038   3.933  0.7926  0.2205 -0.0501
 6831SOL    HW121944   0.104   5.981   3.857 -0.7880 -0.0523  0.3862
 6831SOL    HW221945   0.147   6.121   3.896  0.2604  0.0218 -0.9496
 6832SOL     OW21946   8.591   8.368   5.161 -0.2156 -0.4606  0.2395
 6832SOL    HW121947   8.602   8.455   5.121  1.6845  0.0362  1.6983
 6832SOL    HW221948   8.511   8.376   5.214 -0.2427  0.3075  0.0954
 6833SOL     OW21949   4.319   4.229   8.552 -0.1026 -0.2044 -0.2148
 6833SOL    HW121950   4.361   4.160   8.603 -0.1558 -0.6553 -0.7619
 6833SOL    HW221951   4.229   4.199   8.539 -0.6399  0.8014  1.0205
 6834SOL     OW21952   6.702   5.038   7.177  0.4573  0.1581  0.7507
 6834SOL    HW121953   6.614   5.043   7.214 -0.1981  0.2851 -0.7599
 6834SOL    HW221954   6.749   5.110   7.220 -1.1447  2.2680 -0.7822
 6835SOL     OW21955   0.490   9.232   7.430  0.1875 -0.1955  0.2527
 6835SOL    HW121956   0.465   9.325   7.437  1.3804  0.0399  2.0187
 6835SOL    HW221957   0.579   9.229   7.463 -0.1563 -2.1310  1.1026
 6836SOL     OW21958   9.259   0.643   4.133 -0.6776 -0.7411  0.0642
 6836SOL    HW121959   9.255   0.717   4.072  1.1063 -1.1338 -0.5842
 6836SOL    HW221960   9.286   0.681   4.216  3.4523 -0.9056 -0.9924
 6837SOL     OW21961   9.235   1.966   3.663 -0.3345  0.2068 -0.0858
 6837SOL    HW121962   9.220   2.038   3.602  0.5214  0.5092  0.0545
 6837SOL    HW221963   9.147   1.932   3.681 -0.5826  0.0073 -1.5903
 6838SOL     OW21964   7.591   1.339   3.357  0.5756 -0.3281  0.0807
 6838SOL    HW121965   7.548   1.308   3.278 -0.9651 -0.2662  0.8437
 6838SOL    HW221966   7.676   1.373   3.328  0.3311 -0.9458 -1.4185
 6839SOL     OW21967   0.920   5.562   5.730  0.4487  0.2798 -0.3748
 6839SOL    HW121968   0.866   5.626   5.777  0.1663 -0.2014 -0.0341
 6839SOL    HW221969   1.005   5.566   5.773  1.2215  2.2085 -1.9433
 6840SOL     OW21970   2.648   3.394   4.513  0.2430 -0.1748 -0.3674
 6840SOL    HW121971   2.578   3.339   4.477  0.3548 -0.4696 -0.1371
 6840SOL    HW221972   2.726   3.368   4.464  0.4012 -0.5967  0.1050
 6841SOL     OW21973   0.659   4.841   0.458 -0.5936 -0.2724  0.2513
 6841SOL    HW121974   0.703   4.802   0.533 -1.4194 -0.9328  0.4067
 6841SOL    HW221975   0.728   4.856   0.394  0.0078 -0.3385  0.8759
 6842SOL     OW21976   1.523   3.949   0.169  0.4558 -0.3046 -0.0708
 6842SOL    HW121977   1.441   3.965   0.123 -1.0940  0.0191  2.5636
 6842SOL    HW221978   1.555   3.866   0.134 -0.2386  0.2277 -2.1142
 6843SOL     OW21979   4.995   3.608   0.128 -0.2315  0.0242 -0.2322
 6843SOL    HW121980   4.904   3.621   0.103  0.5472  0.0522 -3.7037
 6843SOL    HW221981   5.036   3.572   0.049  2.5834 -0.8708  1.4911
 6844SOL     OW21982   7.471   9.037   7.416 -0.0909  0.4577  0.3540
 6844SOL    HW121983   7.560   9.030   7.451  0.5967  0.7924 -1.2557
 6844SOL    HW221984   7.457   9.130   7.401 -1.0134  0.4928  1.2461
 6845SOL     OW21985   8.706   1.866   7.588 -0.1646  0.1693 -0.0889
 6845SOL    HW121986   8.681   1.780   7.555 -3.7297 -0.2037  2.8749
 6845SOL    HW221987   8.780   1.849   7.647  0.9821 -0.3189 -1.6039
 6846SOL     OW21988   1.274   8.023   3.102  0.1505  0.2921  0.2452
 6846SOL    HW121989   1.342   7.964   3.068  1.6971  2.0277  0.1642
 6846SOL    HW221990   1.320   8.077   3.167 -1.2293  1.3018  0.4174
 6847SOL     OW21991   4.824   3.601   6.276  0.5394 -0.6069 -0.8262
 6847SOL    HW121992   4.802   3.678   6.329  1.3033  0.6309 -2.2305
 6847SOL    HW221993   4.749   3.591   6.217  0.7242 -0.5337 -1.0747
 6848SOL     OW21994   5.160   2.325   8.348  0.2061  0.1132  0.0350
 6848SOL    HW121995   5.194   2.401   8.302 -0.4041  0.0550 -0.5276
 6848SOL    HW221996   5.071   2.351   8.373 -0.6226 -1.0092 -1.6262
 6849SOL     OW21997   5.162   9.061   2.965 -0.2270 -0.2461  0.4201
 6849SOL    HW121998   5.100   9.004   2.919  0.0016 -0.3592  0.2528
 6849SOL    HW221999   5.247   9.043   2.925 -0.2363  0.6197 -0.0204
 6850SOL     OW22000   0.575   0.928   8.997  0.2498 -0.0833 -0.3091
 6850SOL    HW122001   0.523   0.911   8.919 -0.1157 -1.6555  0.2541
 6850SOL    HW222002   0.666   0.922   8.966  0.1119 -0.9632 -0.5739
 6851SOL     OW22003   1.912   5.928   5.228 -0.1415  0.9901  0.2375
 6851SOL    HW122004   1.960   5.917   5.146 -0.3565  1.4214  0.0508
 6851SOL    HW222005   1.823   5.900   5.207  0.2390 -0.8248  0.8568
 6852SOL     OW22006   2.009   5.674   1.199  0.4183 -0.4166  0.0739
 6852SOL    HW122007   2.064   5.752   1.197  0.2936 -0.2902  0.9648
 6852SOL    HW222008   2.033   5.624   1.121  0.7863  0.3187 -0.2817
 6853SOL     OW22009   4.337   5.377   2.367 -0.0346  0.0116 -0.2961
 6853SOL    HW122010   4.302   5.305   2.419 -0.6662 -0.3009 -1.1334
 6853SOL    HW222011   4.261   5.418   2.328  0.3357  1.0282  0.0100
 6854SOL     OW22012   7.974   1.212   4.227 -0.3339 -0.5807 -1.1119
 6854SOL    HW122013   7.888   1.185   4.194 -1.2947 -0.5256  1.1599
 6854SOL    HW222014   7.979   1.174   4.315  1.6762  0.0149 -0.9202
 6855SOL     OW22015   8.208   7.116   7.364 -0.2213  0.2358  0.2466
 6855SOL    HW122016   8.158   7.067   7.430 -0.5527 -0.8532 -0.7945
 6855SOL    HW222017   8.279   7.058   7.339  0.4692  1.0288  0.3145
 6856SOL     OW22018   3.655   4.153   1.298  0.1804  0.6747  0.0487
 6856SOL    HW122019   3.648   4.064   1.333 -1.6901  0.5620 -0.5074
 6856SOL    HW222020   3.628   4.210   1.371  0.7201  0.7573  0.1905
 6857SOL     OW22021   5.386   5.618   2.618 -0.5429  0.3859  0.2910
 6857SOL    HW122022   5.377   5.627   2.713 -2.4078  2.4906  0.0045
 6857SOL    HW222023   5.307   5.571   2.590 -0.2763  0.2657 -0.2800
 6858SOL     OW22024   1.449   6.858   6.558 -0.1845  0.1717 -0.0489
 6858SOL    HW122025   1.517   6.887   6.498 -0.3094 -0.6928 -0.6210
 6858SOL    HW222026   1.462   6.912   6.637  0.2048  1.0557 -0.7028
 6859SOL     OW22027   5.710   5.034   9.166 -0.4778  0.2539 -0.0294
 6859SOL    HW122028   5.619   5.059   9.184 -0.8938  0.2947 -1.9232
 6859SOL    HW222029   5.752   5.116   9.138 -0.2309 -0.0003 -0.4165
 6860SOL     OW22030   9.053   3.036   6.908 -0.2094  0.4690 -0.5208
 6860SOL    HW122031   9.143   3.057   6.934 -0.2689  1.1917 -0.8576
 6860SOL    HW222032   9.063   2.978   6.833 -0.0287  0.1007 -0.2153
 6861SOL     OW22033   5.258   5.320   7.706 -0.5893  0.2263  0.0794
 6861SOL    HW122034   5.278   5.339   7.798  1.3881 -1.7879  0.1626
 6861SOL    HW222035   5.329   5.362   7.657 -0.4021 -0.5535 -0.3285
 6862SOL     OW22036   6.775   8.283   1.389  0.8760 -0.0836 -0.1724
 6862SOL    HW122037   6.821   8.241   1.462  1.9638  1.7167  0.2262
 6862SOL    HW222038   6.694   8.316   1.428 -0.0133 -1.7376 -0.4981
 6863SOL     OW22039   4.691   3.265   5.498 -0.4651 -0.1070  0.2320
 6863SOL    HW122040   4.689   3.340   5.557 -0.0572 -0.6062  0.9130
 6863SOL    HW222041   4.606   3.223   5.509 -0.3879 -0.2012  0.4722
 6864SOL     OW22042   5.271   5.387   3.963 -0.2808  0.1552  0.1108
 6864SOL    HW122043   5.269   5.466   3.908 -0.1401 -0.4860 -0.8471
 6864SOL    HW222044   5.193   5.338   3.937  0.2039 -0.5277 -0.0900
 6865SOL     OW22045   6.043   1.748   3.513  0.1771 -0.5467 -0.4198
 6865SOL    HW122046   5.975   1.684   3.534  0.8948 -1.7841 -1.6706
 6865SOL    HW222047   5.997   1.820   3.472 -0.5246 -0.7821 -0.0573
 6866SOL     OW22048   7.715   7.955   6.313 -0.5773  0.0186 -0.1225
 6866SOL    HW122049   7.793   7.971   6.366  0.2493 -1.5413 -0.8060
 6866SOL    HW222050   7.680   7.873   6.347 -3.0265  1.5410  1.3816
 6867SOL     OW22051   0.668   7.365   2.320  0.1037 -0.1924 -0.3681
 6867SOL    HW122052   0.625   7.301   2.377  1.0670 -1.6516 -1.1936
 6867SOL    HW222053   0.756   7.374   2.356  0.2680 -0.0393 -0.7982
 6868SOL     OW22054   0.710   3.641   8.777 -0.0020 -0.1333  0.0429
 6868SOL    HW122055   0.709   3.732   8.809 -0.3623  0.0156 -0.3789
 6868SOL    HW222056   0.780   3.599   8.827  0.5202  0.5144 -0.1227
 6869SOL     OW22057   2.464   2.829   2.993  0.2642  0.3417 -0.4593
 6869SOL    HW122058   2.443   2.880   3.071  1.0838  1.0736 -0.6968
 6869SOL    HW222059   2.380   2.793   2.965 -0.2008  0.8794  0.1989
 6870SOL     OW22060   5.065   5.935   2.898 -0.4223  0.1453  0.0888
 6870SOL    HW122061   5.022   6.021   2.893 -0.3164  0.1564 -0.9495
 6870SOL    HW222062   4.994   5.872   2.885 -0.0997  0.1805 -2.4651
 6871SOL     OW22063   1.094   8.521   5.026 -0.6640  0.3045  0.3482
 6871SOL    HW122064   1.158   8.564   5.083  1.1289 -0.1158 -1.2322
 6871SOL    HW222065   1.106   8.427   5.043 -2.4566  0.2548  1.6120
 6872SOL     OW22066   2.775   5.824   0.256  0.2056  0.1694 -0.3920
 6872SOL    HW122067   2.820   5.764   0.316 -0.6028 -1.1031 -1.0241
 6872SOL    HW222068   2.798   5.912   0.288  1.9823 -0.4506  0.1403
 6873SOL     OW22069   2.051   2.510   0.594  0.4090  0.6106  0.4527
 6873SOL    HW122070   2.135   2.487   0.635  1.1452  1.3446 -0.5995
 6873SOL    HW222071   1.993   2.528   0.668  1.7440  2.0795  1.2019
 6874SOL     OW22072   5.354   5.802   8.291  0.6630 -0.0331 -0.7825
 6874SOL    HW122073   5.422   5.865   8.316  1.6734 -1.4627  0.2697
 6874SOL    HW222074   5.279   5.825   8.345  1.1845 -0.0190 -0.0551
 6875SOL     OW22075   1.875   5.167   8.341  0.0399 -0.3943  0.6306
 6875SOL    HW122076   1.889   5.193   8.432 -0.3205 -1.4384  1.0027
 6875SOL    HW222077   1.780   5.156   8.334  0.0966 -0.6350  0.2218
 6876SOL     OW22078   7.187   2.967   0.581  0.3992 -0.8108  0.2513
 6876SOL    HW122079   7.232   2.898   0.629  1.2013 -1.1533 -0.9557
 6876SOL    HW222080   7.255   3.029   0.557  0.1850 -1.1029 -1.1988
 6877SOL     OW22081   0.568   0.925   1.726 -0.6231 -0.4786 -0.3448
 6877SOL    HW122082   0.561   0.878   1.643 -1.3252 -0.2048 -0.4451
 6877SOL    HW222083   0.527   1.010   1.709  0.2344  0.0097 -0.0429
 6878SOL     OW22084   0.471   2.848   7.839 -0.6437  0.2984  0.3136
 6878SOL    HW122085   0.433   2.934   7.821 -0.2997  0.4332  0.2299
 6878SOL    HW222086   0.562   2.855   7.810 -0.6743 -0.1638  0.1016
 6879SOL     OW22087   6.758   8.313   2.335  0.0900  0.2618  0.2637
 6879SOL    HW122088   6.708   8.284   2.259  0.5920 -0.1839  0.0994
 6879SOL    HW222089   6.828   8.248   2.345 -0.4913 -0.1897  1.6458
 6880SOL     OW22090   5.644   1.190   1.306 -0.4159  0.3937 -0.7090
 6880SOL    HW122091   5.695   1.113   1.333 -0.7535  0.2772 -0.3935
 6880SOL    HW222092   5.663   1.255   1.374 -1.5716 -0.0273  0.0531
 6881SOL     OW22093   1.710   4.282   5.487  0.4783  0.4172  0.0108
 6881SOL    HW122094   1.696   4.296   5.393  2.0874 -2.3453 -0.7486
 6881SOL    HW222095   1.724   4.370   5.523  1.7622  1.4255 -2.6962
 6882SOL     OW22096   1.247   6.835   1.788  0.2837  0.4786 -0.2888
 6882SOL    HW122097   1.232   6.865   1.698 -0.3343  0.2799 -0.2551
 6882SOL    HW222098   1.273   6.744   1.779 -1.1071  0.0512 -0.1966
 6883SOL     OW22099   4.013   3.776   4.436 -0.3515  0.6644 -0.5567
 6883SOL    HW122100   4.087   3.837   4.438  0.0089  0.2272 -0.0417
 6883SOL    HW222101   4.043   3.704   4.380 -0.5248  0.6494 -0.6309
 6884SOL     OW22102   8.337   8.366   5.913  0.2348 -0.3131 -0.1451
 6884SOL    HW122103   8.392   8.345   5.837 -2.0779  0.7183 -2.2591
 6884SOL    HW222104   8.280   8.289   5.922  0.8890 -0.6836  0.9799
 6885SOL     OW22105   5.207   2.225   4.374  0.7245  0.2436  0.4991
 6885SOL    HW122106   5.204   2.275   4.456  1.8834  0.7379  0.2575
 6885SOL    HW222107   5.253   2.283   4.313 -0.5688  0.0900 -0.6610
 6886SOL     OW22108   8.492   1.822   8.109 -0.1621  0.3289 -0.4812
 6886SOL    HW122109   8.557   1.892   8.110  0.2296 -0.0176  1.0926
 6886SOL    HW222110   8.482   1.797   8.201 -0.7974 -1.2166 -0.9317
 6887SOL     OW22111   5.927   5.353   8.274 -0.7260 -0.1300 -0.1892
 6887SOL    HW122112   5.846   5.404   8.265 -1.3804 -1.1161 -0.0160
 6887SOL    HW222113   5.900   5.262   8.261  0.2438 -0.5357  0.5084
 6888SOL     OW22114   3.556   7.954   5.919  0.3093 -0.9611  0.0955
 6888SOL    HW122115   3.555   7.922   6.009 -1.5374 -1.2076  0.0121
 6888SOL    HW222116   3.504   8.034   5.920  3.5133  1.3328 -0.0310
 6889SOL     OW22117   3.399   3.384   6.889  0.1709  0.1999 -0.3477
 6889SOL    HW122118   3.451   3.348   6.961  0.3507  0.1213 -0.5149
 6889SOL    HW222119   3.429   3.475   6.881  0.3835  0.1144 -0.5347
 6890SOL     OW22120   7.330   5.424   5.282  0.4844  0.9977  0.3788
 6890SOL    HW122121   7.398   5.404   5.218  1.4048 -1.0564  1.8979
 6890SOL    HW222122   7.358   5.506   5.323  2.2623  0.0489  1.1625
 6891SOL     OW22123   9.042   0.754   4.533  0.0296  0.0119  0.9041
 6891SOL    HW122124   9.118   0.809   4.515 -1.2238  1.4699 -0.1601
 6891SOL    HW222125   9.076   0.665   4.527  1.5824  0.6067  0.1543
 6892SOL     OW22126   1.717   2.259   4.657 -0.0553  0.5149 -0.3247
 6892SOL    HW122127   1.800   2.305   4.669 -0.9190  2.3222 -0.8814
 6892SOL    HW222128   1.719   2.230   4.565  0.9584 -1.6562  0.3128
 6893SOL     OW22129   8.563   0.842   1.306  0.8330 -0.1334 -0.6442
 6893SOL    HW122130   8.625   0.776   1.337 -0.0149 -2.3465 -3.2425
 6893SOL    HW222131   8.477   0.802   1.319  0.1848  1.1080 -0.9251
 6894SOL     OW22132   4.613   6.929   2.989 -0.4162  0.3104  0.0204
 6894SOL    HW122133   4.530   6.918   3.035  0.1785  0.6429  1.2258
 6894SOL    HW222134   4.589   6.935   2.897 -1.8734  1.7547  0.4393
 6895SOL     OW22135   8.585   6.145   2.788  0.2532 -0.2524 -0.1258
 6895SOL    HW122136   8.556   6.127   2.699 -1.6300 -0.3227  0.4577
 6895SOL    HW222137   8.544   6.229   2.810  1.6055  0.3207  0.3043
 6896SOL     OW22138   5.878   9.005   0.241  0.0154 -0.5080 -0.0294
 6896SOL    HW122139   5.892   9.007   0.146  1.3734 -0.0992  0.1495
 6896SOL    HW222140   5.841   8.919   0.258 -0.1412 -0.6295 -0.9106
 6897SOL     OW22141   5.684   7.743   6.624 -0.5626 -0.0542 -0.2238
 6897SOL    HW122142   5.690   7.833   6.656 -0.1943 -0.4826  0.9580
 6897SOL    HW222143   5.635   7.696   6.692  1.3119 -1.2724  0.3719
 6898SOL     OW22144   6.873   2.234   2.812 -0.6295  0.6883  0.8637
 6898SOL    HW122145   6.887   2.316   2.861  0.5006  0.9084  0.2232
 6898SOL    HW222146   6.834   2.262   2.730 -0.9366  0.5045  0.9481
 6899SOL     OW22147   6.024   7.327   6.711  0.6085 -0.2223 -0.1070
 6899SOL    HW122148   5.977   7.244   6.717 -0.1249  0.2297  0.6628
 6899SOL    HW222149   5.974   7.378   6.647 -0.7699  0.7395  1.6464
 6900SOL     OW22150   6.301   9.150   2.458  0.0123 -0.1085 -0.6747
 6900SOL    HW122151   6.290   9.226   2.515  0.4075 -1.3221  1.1081
 6900SOL    HW222152   6.394   9.128   2.467 -0.1915 -1.0507 -0.8475
 6901SOL     OW22153   1.290   3.060   8.249 -0.2944 -0.0047  0.0813
 6901SOL    HW122154   1.226   3.021   8.188  1.2776 -2.0443 -0.3787
 6901SOL    HW222155   1.257   3.037   8.336 -1.1544  0.6233 -0.0623
 6902SOL     OW22156   6.163   2.313   0.374  0.1758  0.1338 -0.5995
 6902SOL    HW122157   6.130   2.232   0.335  0.3653 -0.1109 -0.2535
 6902SOL    HW222158   6.085   2.355   0.411  0.3240 -0.7783  0.8197
 6903SOL     OW22159   7.066   7.915   2.941  0.5218 -0.2493 -0.4696
 6903SOL    HW122160   7.122   7.855   2.891  2.6605  0.4224  0.9813
 6903SOL    HW222161   7.070   7.883   3.031 -2.0365 -0.5440 -0.3755
 6904SOL     OW22162   5.443   5.208   4.125  0.3877 -0.4319  0.0150
 6904SOL    HW122163   5.384   5.165   4.187 -0.2086 -0.7809 -0.7800
 6904SOL    HW222164   5.404   5.294   4.111 -1.9044 -1.7939 -3.0620
 6905SOL     OW22165   5.170   7.950   3.487 -0.3152  0.3806  0.0788
 6905SOL    HW122166   5.149   8.029   3.437 -1.1990  0.0422 -0.0980
 6905SOL    HW222167   5.149   7.878   3.428 -0.4961 -0.0087  0.6089
 6906SOL     OW22168   1.788   6.925   3.883  0.3974 -0.2387  0.0962
 6906SOL    HW122169   1.765   6.896   3.971  0.0569 -0.8760 -0.2010
 6906SOL    HW222170   1.729   6.878   3.825  0.9721 -0.2293 -0.5170
 6907SOL     OW22171   0.140   8.929   3.693 -0.5112  0.1547 -0.5079
 6907SOL    HW122172   0.088   8.852   3.715  0.3250 -0.3139 -0.1372
 6907SOL    HW222173   0.229   8.896   3.681 -0.4499  0.7951 -2.0925
 6908SOL     OW22174   7.721   8.492   5.440  0.4342 -0.3552 -0.1704
 6908SOL    HW122175   7.658   8.522   5.505  0.4390 -0.4638 -0.1163
 6908SOL    HW222176   7.678   8.506   5.356  0.6372  0.2914 -0.1703
 6909SOL     OW22177   2.161   1.846   0.555  0.3053 -0.1072 -0.1239
 6909SOL    HW122178   2.140   1.818   0.644  1.2580  1.7206  0.7344
 6909SOL    HW222179   2.158   1.942   0.558 -0.1912 -0.0019 -2.2200
 6910SOL     OW22180   6.216   7.367   0.489 -0.1743  0.5845 -1.1623
 6910SOL    HW122181   6.264   7.425   0.430  0.1757  1.4251 -0.0884
 6910SOL    HW222182   6.277   7.350   0.561 -0.7362 -0.0852 -0.8232
 6911SOL     OW22183   0.863   4.877   8.986  0.4888  0.0796  0.2364
 6911SOL    HW122184   0.796   4.944   8.981  1.4246  0.9876 -2.2500
 6911SOL    HW222185   0.827   4.809   9.042 -2.7844  0.2234 -1.4889
 6912SOL     OW22186   7.409   4.682   1.834 -0.1940 -0.6629  0.3604
 6912SOL    HW122187   7.392   4.770   1.868 -0.6788 -0.4659 -0.3908
 6912SOL    HW222188   7.382   4.685   1.743  0.8032 -1.2892  0.0307
 6913SOL     OW22189   8.985   6.776   0.138  0.2905 -0.5658 -0.1172
 6913SOL    HW122190   8.941   6.703   0.181 -2.2279  0.0991 -1.3140
 6913SOL    HW222191   8.945   6.854   0.176  1.9808  0.1789  0.2048
 6914SOL     OW22192   1.615   7.386   7.147 -0.1078  0.2874  0.4523
 6914SOL    HW122193   1.654   7.473   7.157 -0.2401  0.6847 -1.8943
 6914SOL    HW222194   1.563   7.392   7.067 -3.5041 -0.8146  2.3852
 6915SOL     OW22195   2.147   2.022   8.276  0.3562  0.1083 -0.1231
 6915SOL    HW122196   2.189   1.972   8.207  0.2463 -0.6527  0.3576
 6915SOL    HW222197   2.068   1.973   8.297 -0.0289  0.7565 -0.0037
 6916SOL     OW22198   9.228   7.633   5.812  0.0982  0.0894  0.2877
 6916SOL    HW122199   9.318   7.629   5.846  0.3139  1.4285 -0.0905
 6916SOL    HW222200   9.239   7.650   5.718 -0.5456  1.6757  0.4750
 6917SOL     OW22201   2.079   8.751   4.152 -0.2263  0.5127  0.5220
 6917SOL    HW122202   2.144   8.703   4.204  0.8961  0.2864 -1.0000
 6917SOL    HW222203   2.108   8.842   4.154  0.6704  0.2934 -0.8205
 6918SOL     OW22204   5.334   4.054   8.632 -0.0450  0.2953  0.7522
 6918SOL    HW122205   5.410   4.045   8.575 -0.7709 -1.4524  0.0026
 6918SOL    HW222206   5.275   4.113   8.584 -0.2532 -0.4248  0.1013
 6919SOL     OW22207   8.284   6.801   1.284  0.3814  0.5081 -0.0100
 6919SOL    HW122208   8.258   6.711   1.303 -0.0238  1.0958  2.6711
 6919SOL    HW222209   8.213   6.836   1.232 -0.5059 -0.1287  0.7393
 6920SOL     OW22210   1.682   4.801   1.062  0.2659  0.8002 -0.2985
 6920SOL    HW122211   1.718   4.713   1.072 -0.2017  0.4721 -1.3229
 6920SOL    HW222212   1.655   4.827   1.150 -2.9081 -1.5318 -0.4122
 6921SOL     OW22213   1.379   8.906   3.365  0.2454  0.4472  0.2318
 6921SOL    HW122214   1.373   8.814   3.338 -0.7260  0.4885  0.2677
 6921SOL    HW222215   1.317   8.913   3.437  0.7914  0.9928  0.6602
 6922SOL     OW22216   7.475   1.935   5.672  0.1297  0.1921 -0.1242
 6922SOL    HW122217   7.459   2.028   5.683 -1.1415 -0.1593  1.3840
 6922SOL    HW222218   7.424   1.893   5.742  0.7237 -1.6256 -0.7129
 6923SOL     OW22219   0.255   4.577   1.124 -0.0476 -0.7732  0.2366
 6923SOL    HW122220   0.262   4.600   1.032  2.0865 -1.2694  0.2121
 6923SOL    HW222221   0.165   4.546   1.135 -0.5389 -0.0883 -1.5016
 6924SOL     OW22222   4.094   6.851   6.422  0.2559 -0.6608 -0.5030
 6924SOL    HW122223   4.103   6.779   6.360 -0.4476 -0.6948 -0.5644
 6924SOL    HW222224   4.034   6.912   6.380  1.0123  0.0773 -0.5490
 6925SOL     OW22225   6.336   5.845   8.460 -0.6949  0.5522 -0.1659
 6925SOL    HW122226   6.364   5.929   8.423  1.8752 -0.3029 -0.3706
 6925SOL    HW222227   6.414   5.789   8.455 -1.7476 -1.2453  1.7582
 6926SOL     OW22228   4.277   7.530   4.867  0.0520 -0.3955  0.5247
 6926SOL    HW122229   4.279   7.452   4.924  0.9407  0.4530  1.7006
 6926SOL    HW222230   4.201   7.516   4.810  0.2452 -2.1613  0.6424
 6927SOL     OW22231   5.110   6.499   2.979  0.1893  0.1846 -0.0824
 6927SOL    HW122232   5.064   6.423   2.944  0.8483 -1.0485  1.6355
 6927SOL    HW222233   5.040   6.557   3.010 -0.3237  0.4432 -1.6128
 6928SOL     OW22234   1.442   3.749   2.696  0.5494 -0.9980  0.3772
 6928SOL    HW122235   1.530   3.783   2.681 -0.4043  1.0165 -1.1385
 6928SOL    HW222236   1.417   3.709   2.613 -1.3568  2.0593 -0.7338
 6929SOL     OW22237   7.100   2.568   0.413 -0.6476 -0.2075 -0.4416
 6929SOL    HW122238   7.087   2.484   0.369 -1.3030 -0.1963 -0.2846
 6929SOL    HW222239   7.155   2.547   0.488  1.0745 -0.1069 -1.6238
 6930SOL     OW22240   7.667   5.371   1.945 -0.2080  0.5834 -0.1185
 6930SOL    HW122241   7.754   5.355   1.982 -0.7075 -4.6211 -0.5009
 6930SOL    HW222242   7.681   5.368   1.850 -0.7889 -0.8072 -0.1809
 6931SOL     OW22243   1.013   1.392   1.632  0.7247 -0.0402 -0.3911
 6931SOL    HW122244   1.053   1.468   1.674 -1.0353  0.5478  0.3258
 6931SOL    HW222245   1.006   1.416   1.540 -0.9009  1.2361  0.0077
 6932SOL     OW22246   2.771   5.377   3.986  0.0484 -0.3355 -0.3148
 6932SOL    HW122247   2.721   5.382   3.904 -0.7809 -0.1795  0.1846
 6932SOL    HW222248   2.851   5.331   3.963  0.6519  1.2610 -1.6128
 6933SOL     OW22249   8.879   2.873   5.169  0.3715  0.4268 -0.2922
 6933SOL    HW122250   8.837   2.949   5.209  1.3838  0.4782  0.7061
 6933SOL    HW222251   8.927   2.909   5.095  1.1360  0.8272  0.3863
 6934SOL     OW22252   0.587   5.848   1.535  0.1517  0.2405  0.3276
 6934SOL    HW122253   0.656   5.818   1.476 -0.2581  0.2835 -0.1843
 6934SOL    HW222254   0.533   5.771   1.551  0.5977  0.0808  1.1424
 6935SOL     OW22255   3.664   5.215   0.029  0.4478  0.4940 -0.1244
 6935SOL    HW122256   3.648   5.261   0.111  0.8103 -0.7366  0.6625
 6935SOL    HW222257   3.757   5.190   0.034  0.1772 -0.5823 -0.3892
 6936SOL     OW22258   6.865   1.716   2.134  0.1522 -1.0974 -0.5048
 6936SOL    HW122259   6.921   1.668   2.196  0.0864 -0.7717 -0.1848
 6936SOL    HW222260   6.807   1.768   2.190 -0.9332 -1.9332 -0.8236
 6937SOL     OW22261   3.299   3.390   7.438  0.2554 -0.4594 -0.3649
 6937SOL    HW122262   3.212   3.415   7.407 -0.4704 -1.4963  0.7563
 6937SOL    HW222263   3.331   3.468   7.484 -0.5430 -0.4184  0.1429
 6938SOL     OW22264   7.716   4.020   4.677 -0.4941  0.3075 -0.7916
 6938SOL    HW122265   7.781   4.068   4.626  1.5493  0.6751  1.9626
 6938SOL    HW222266   7.676   4.087   4.734  0.1505 -0.6499  0.8568
 6939SOL     OW22267   3.060   1.089   2.752  0.3300 -0.1087  0.3989
 6939SOL    HW122268   2.994   1.100   2.683  0.3221 -2.1613  0.0178
 6939SOL    HW222269   3.143   1.091   2.706  0.3720 -0.5679  0.4522
 6940SOL     OW22270   6.007   7.486   0.103 -0.4532  0.1645  0.1416
 6940SOL    HW122271   5.935   7.427   0.127  0.7911 -0.7118  2.0126
 6940SOL    HW222272   6.080   7.429   0.084 -0.3380  1.0223 -2.3938
 6941SOL     OW22273   7.028   5.489   8.199  0.1455  0.0200 -0.1610
 6941SOL    HW122274   6.956   5.550   8.181  0.7579  1.7201  2.5385
 6941SOL    HW222275   7.085   5.497   8.123 -2.0055 -0.7244 -1.9679
 6942SOL     OW22276   7.682   6.205   1.554 -0.3506 -0.1864 -0.6271
 6942SOL    HW122277   7.704   6.276   1.493  1.5600 -0.1148  0.0917
 6942SOL    HW222278   7.766   6.163   1.574 -1.1768 -1.3578  0.5652
 6943SOL     OW22279   6.013   4.130   8.379 -0.1493  0.0275  0.1500
 6943SOL    HW122280   6.052   4.212   8.350  0.3119  0.2023  1.2072
 6943SOL    HW222281   6.019   4.133   8.475 -2.5352 -0.0627  0.3677
 6944SOL     OW22282   8.955   5.344   7.655  0.1166 -0.7047 -0.4855
 6944SOL    HW122283   8.934   5.303   7.739 -0.9022 -1.0314 -0.8737
 6944SOL    HW222284   8.975   5.434   7.677 -1.6114 -0.3886 -0.0032
 6945SOL     OW22285   7.909   0.083   4.507  0.0363  0.2033 -0.1760
 6945SOL    HW122286   7.858   0.163   4.493  1.0674  1.0460  0.6965
 6945SOL    HW222287   7.955   0.069   4.425 -1.0818 -0.2071 -0.7543
 6946SOL     OW22288   0.750   9.173   2.215  0.1443 -0.5458 -0.2032
 6946SOL    HW122289   0.836   9.215   2.219 -0.3987  0.5239  1.3224
 6946SOL    HW222290   0.730   9.150   2.306 -1.9715  0.9704 -0.2049
 6947SOL     OW22291   7.799   7.447   4.813 -0.5525 -0.4758 -0.1901
 6947SOL    HW122292   7.808   7.351   4.813  1.5733 -0.3347 -1.5431
 6947SOL    HW222293   7.871   7.477   4.869 -0.5080  0.3685 -0.6963
 6948SOL     OW22294   5.169   0.634   6.979  0.1367 -0.2184  0.1484
 6948SOL    HW122295   5.203   0.686   7.052 -0.9872 -1.2861  1.4862
 6948SOL    HW222296   5.242   0.630   6.917  1.0833  0.8501  1.1362
 6949SOL     OW22297   2.310   7.507   2.396 -0.0255 -0.3279 -0.5568
 6949SOL    HW122298   2.305   7.434   2.457 -0.4261  0.1978  0.0452
 6949SOL    HW222299   2.400   7.539   2.405 -0.3077  0.2480  0.3584
 6950SOL     OW22300   5.677   8.425   6.997  0.1590 -0.1493 -0.0583
 6950SOL    HW122301   5.718   8.339   6.990  2.3764  0.9418 -1.6531
 6950SOL    HW222302   5.600   8.419   6.941  0.0402 -1.2000  0.1906
 6951SOL     OW22303   0.849   0.996   8.577  0.1408  0.0680  0.8224
 6951SOL    HW122304   0.823   0.971   8.489 -1.0285  2.7389  0.2932
 6951SOL    HW222305   0.944   0.989   8.578  0.3204  1.4660 -1.2123
 6952SOL     OW22306   8.723   2.493   8.670  0.3397 -0.3824 -0.3646
 6952SOL    HW122307   8.733   2.400   8.692  1.0834 -0.1977  0.0866
 6952SOL    HW222308   8.803   2.516   8.624 -0.2008 -0.1656 -1.2229
 6953SOL     OW22309   0.971   6.698   4.032  0.4111 -0.1291  0.1091
 6953SOL    HW122310   0.978   6.615   4.080 -0.5392 -0.1486  0.2372
 6953SOL    HW222311   1.057   6.711   3.993  0.9266 -0.5922  1.0475
 6954SOL     OW22312   2.673   3.259   1.872 -0.5982  0.0240 -0.5851
 6954SOL    HW122313   2.640   3.296   1.791 -0.7277  0.6203 -0.2632
 6954SOL    HW222314   2.629   3.308   1.941 -0.8857 -0.8252 -0.1502
 6955SOL     OW22315   4.947   8.571   5.367  0.6267 -0.1153 -0.3347
 6955SOL    HW122316   4.937   8.518   5.446 -1.4052 -0.5399 -0.8026
 6955SOL    HW222317   4.945   8.661   5.398  0.2455 -0.2842  0.1439
 6956SOL     OW22318   0.661   8.751   2.573 -0.0741 -0.1180  0.1945
 6956SOL    HW122319   0.713   8.724   2.649 -1.2086  0.6707  1.3054
 6956SOL    HW222320   0.688   8.841   2.556  0.0723 -0.2449 -0.2595
 6957SOL     OW22321   6.213   0.565   4.861 -0.3634 -0.0607 -0.4367
 6957SOL    HW122322   6.244   0.475   4.858 -0.5563 -0.1624  0.4651
 6957SOL    HW222323   6.159   0.575   4.782 -2.2006 -1.4199  0.6041
 6958SOL     OW22324   6.437   4.751   0.497 -0.0084  0.1000  0.2945
 6958SOL    HW122325   6.505   4.781   0.558 -0.2253  0.6490  0.2702
 6958SOL    HW222326   6.409   4.830   0.451 -0.2958 -0.2086 -0.0691
 6959SOL     OW22327   1.317   6.020   4.437 -0.4922  0.0169 -0.2252
 6959SOL    HW122328   1.354   5.931   4.436 -0.5881 -0.0941  1.6396
 6959SOL    HW222329   1.362   6.065   4.365  2.1989 -0.5637  0.9455
 6960SOL     OW22330   3.159   5.825   5.072  0.1656 -0.1199 -0.2663
 6960SOL    HW122331   3.237   5.771   5.064  0.1229 -0.0965 -0.8917
 6960SOL    HW222332   3.090   5.775   5.028  0.2941  0.7582 -1.5379
 6961SOL     OW22333   1.528   2.076   4.233  0.0932 -0.4211  0.1916
 6961SOL    HW122334   1.510   1.995   4.186  0.3631 -1.7640  2.2770
 6961SOL    HW222335   1.444   2.122   4.235  0.1871 -0.0713 -1.9631
 6962SOL     OW22336   4.534   5.644   6.005  0.5908  0.2224  0.2009
 6962SOL    HW122337   4.508   5.699   5.931 -0.9905 -0.7852 -0.0504
 6962SOL    HW222338   4.506   5.693   6.082  1.9593  1.1310  0.1578
 6963SOL     OW22339   0.822   4.507   8.565 -0.0698 -0.3154 -0.2006
 6963SOL    HW122340   0.789   4.544   8.482  1.8029  0.3955 -0.6797
 6963SOL    HW222341   0.838   4.415   8.545 -0.4397 -0.3509 -0.3596
 6964SOL     OW22342   4.169   1.474   0.026 -0.2814  0.3365 -0.2212
 6964SOL    HW122343   4.141   1.384   0.006 -1.2287  0.8985 -1.5275
 6964SOL    HW222344   4.143   1.487   0.117  0.8342 -1.0561  0.3520
 6965SOL     OW22345   1.787   8.904   7.081 -0.1842  0.0032  0.3508
 6965SOL    HW122346   1.786   8.890   6.986 -0.0351  0.2517  0.3119
 6965SOL    HW222347   1.778   8.999   7.091  1.1804  0.1251  0.5435
 6966SOL     OW22348   5.063   2.364   7.455 -0.3064 -0.0965 -0.1945
 6966SOL    HW122349   5.013   2.419   7.394 -2.0262 -1.1236  0.2014
 6966SOL    HW222350   5.060   2.277   7.416 -0.1797 -0.4755  0.6326
 6967SOL     OW22351   6.865   0.210   9.076  0.2238  0.2980 -0.2583
 6967SOL    HW122352   6.844   0.139   9.016 -0.9680  0.4160 -0.0106
 6967SOL    HW222353   6.898   0.280   9.020 -0.6753  0.3315 -0.7654
 6968SOL     OW22354   4.718   6.895   5.319 -0.2822  0.0861 -0.1757
 6968SOL    HW122355   4.737   6.920   5.229 -0.1915 -2.0583 -0.8189
 6968SOL    HW222356   4.631   6.930   5.337  0.5376  2.3359 -0.3245
 6969SOL     OW22357   3.821   7.970   6.734 -0.3388 -0.0454 -0.8437
 6969SOL    HW122358   3.748   7.996   6.790  0.0494 -1.5070  0.3827
 6969SOL    HW222359   3.793   7.888   6.694  1.1616 -1.4161  0.7773
 6970SOL     OW22360   3.112   4.985   1.982 -0.1064  0.0546  0.2565
 6970SOL    HW122361   3.110   4.965   1.889  1.0078 -0.8398  0.4013
 6970SOL    HW222362   3.028   4.954   2.016 -0.9674  1.3380 -0.6038
 6971SOL     OW22363   1.112   5.786   1.084  0.0089  0.0332 -0.0494
 6971SOL    HW122364   1.186   5.785   1.144 -0.5770  0.4669  0.6960
 6971SOL    HW222365   1.041   5.827   1.133 -0.6579 -0.1400 -0.8353
 6972SOL     OW22366   4.122   1.499   7.321 -0.4975  0.3025 -0.1257
 6972SOL    HW122367   4.125   1.587   7.358 -3.0956  0.7215 -0.6797
 6972SOL    HW222368   4.133   1.441   7.396 -0.4091  1.1092  0.4994
 6973SOL     OW22369   2.302   5.286   8.937  0.3109  0.0015  0.4424
 6973SOL    HW122370   2.209   5.264   8.945  0.2048  0.9244  2.0440
 6973SOL    HW222371   2.337   5.279   9.026  1.8954 -0.7578 -0.1889
 6974SOL     OW22372   5.338   5.094   5.303  0.1336  0.4221 -0.3775
 6974SOL    HW122373   5.413   5.051   5.263 -0.3858 -0.0780 -0.8244
 6974SOL    HW222374   5.364   5.109   5.394 -0.2119 -2.2564  0.2652
 6975SOL     OW22375   2.425   0.296   5.815  0.2547 -0.0229  0.3904
 6975SOL    HW122376   2.451   0.345   5.738  2.0353 -1.6517 -0.1126
 6975SOL    HW222377   2.395   0.211   5.781 -2.3078  0.4283  1.2677
 6976SOL     OW22378   7.156   7.106   9.076 -0.2374  0.5002  0.6167
 6976SOL    HW122379   7.147   7.076   8.985 -0.1161  0.3694  0.6476
 6976SOL    HW222380   7.112   7.191   9.077  2.0179  1.7487 -0.2195
 6977SOL     OW22381   2.431   0.601   3.863  0.1477 -0.1467 -0.3626
 6977SOL    HW122382   2.431   0.696   3.855  2.0710 -0.0744  0.0244
 6977SOL    HW222383   2.348   0.573   3.822  0.3317  1.5534 -2.0422
 6978SOL     OW22384   5.586   3.805   4.462 -0.0395  0.3197  0.3467
 6978SOL    HW122385   5.531   3.755   4.522 -0.1476 -0.9523 -0.7679
 6978SOL    HW222386   5.653   3.845   4.518 -0.1151 -0.8566  1.3019
 6979SOL     OW22387   2.993   5.825   3.737  0.2154 -0.0071  0.4499
 6979SOL    HW122388   2.943   5.844   3.817  1.4539  0.1994  1.1920
 6979SOL    HW222389   2.963   5.738   3.711 -2.1323  0.9601 -0.3721
 6980SOL     OW22390   6.962   7.179   7.691  0.2920 -0.1396  0.0017
 6980SOL    HW122391   6.866   7.187   7.687  0.4238  2.6489 -0.0903
 6980SOL    HW222392   6.980   7.148   7.780 -0.6880 -0.7492  0.0015
 6981SOL     OW22393   1.386   7.849   6.520  0.0767 -0.2685  0.6880
 6981SOL    HW122394   1.345   7.936   6.513  0.0574 -0.1604  1.9728
 6981SOL    HW222395   1.312   7.789   6.526  0.0987 -0.2617  1.0185
 6982SOL     OW22396   7.210   8.853   4.696  0.1251 -0.2763 -0.5684
 6982SOL    HW122397   7.246   8.817   4.615 -1.8140 -1.2093 -1.0697
 6982SOL    HW222398   7.206   8.778   4.755  0.9899  0.2819  0.2410
 6983SOL     OW22399   9.018   8.887   7.504  0.0057  0.3258  0.6663
 6983SOL    HW122400   9.006   8.804   7.458 -1.1014  0.5454  0.5248
 6983SOL    HW222401   9.020   8.953   7.435  1.8006  0.3558  0.7107
 6984SOL     OW22402   2.075   0.048   0.657  0.6093  0.1880 -0.3819
 6984SOL    HW122403   2.040   0.126   0.700  1.7302  1.4062 -1.5926
 6984SOL    HW222404   2.167   0.047   0.681  0.7964 -0.2596 -1.1006
 6985SOL     OW22405   0.723   2.363   3.586  0.4908  0.2143 -0.3037
 6985SOL    HW122406   0.742   2.271   3.600  0.4228  0.3220  0.5616
 6985SOL    HW222407   0.809   2.406   3.586  0.5814  0.0513 -1.5442
 6986SOL     OW22408   6.073   7.734   0.293  0.5687  0.0867  0.4293
 6986SOL    HW122409   6.122   7.664   0.249  0.5695 -0.0651  0.6701
 6986SOL    HW222410   6.014   7.689   0.353 -0.8209  0.2071 -0.7912
 6987SOL     OW22411   2.102   7.272   3.739  0.1211 -0.6291 -0.5461
 6987SOL    HW122412   2.053   7.221   3.803  0.5885  0.5961  0.8413
 6987SOL    HW222413   2.159   7.329   3.792 -1.3617  2.3533 -1.9194
 6988SOL     OW22414   7.842   2.242   7.368  0.2047 -0.4351  0.3221
 6988SOL    HW122415   7.919   2.195   7.399  0.3068 -0.7941 -0.4599
 6988SOL    HW222416   7.859   2.334   7.389  0.0756 -0.6955  1.7137
 6989SOL     OW22417   8.739   5.619   8.269 -0.0889 -0.0853 -0.2356
 6989SOL    HW122418   8.729   5.620   8.365 -0.0890  0.4256 -0.2336
 6989SOL    HW222419   8.771   5.532   8.249  1.0608  0.1834  0.3600
 6990SOL     OW22420   4.690   6.637   7.054  0.2479 -0.0006  0.2870
 6990SOL    HW122421   4.701   6.641   6.959 -1.3105  1.0439  0.1142
 6990SOL    HW222422   4.770   6.676   7.089 -0.2482  2.0477 -0.6986
 6991SOL     OW22423   6.915   0.582   4.565 -0.6207  0.4627  0.4687
 6991SOL    HW122424   6.886   0.493   4.589 -2.6012  0.6410 -0.9961
 6991SOL    HW222425   6.939   0.622   4.649  1.6785 -1.8486  1.0342
 6992SOL     OW22426   6.715   5.529   1.596  0.6840  0.6038  0.3478
 6992SOL    HW122427   6.721   5.597   1.663  0.9106  0.8213  0.1048
 6992SOL    HW222428   6.701   5.448   1.646  1.4735  0.6766  0.6897
 6993SOL     OW22429   8.200   1.939   1.542  0.3411  0.1306  0.0562
 6993SOL    HW122430   8.111   1.973   1.540 -0.0951 -0.9586  0.0535
 6993SOL    HW222431   8.196   1.857   1.493  1.4609  0.3188 -0.3928
 6994SOL     OW22432   1.334   1.738   0.127  0.0833  0.0870 -0.1937
 6994SOL    HW122433   1.264   1.789   0.087  0.4678  0.1843 -0.7551
 6994SOL    HW222434   1.375   1.798   0.189 -0.1274  0.1320 -0.1001
 6995SOL     OW22435   4.416   1.602   0.009 -0.3939  0.5385 -0.1891
 6995SOL    HW122436   4.333   1.556   0.002  0.2069 -1.0583  1.9271
 6995SOL    HW222437   4.468   1.570  -0.064 -1.0878  0.3330 -0.5976
 6996SOL     OW22438   5.254   6.842   7.571  0.7760  0.0876  0.6739
 6996SOL    HW122439   5.164   6.810   7.566  1.0001 -0.3814 -0.6285
 6996SOL    HW222440   5.251   6.911   7.637 -0.8424  1.0690 -0.3528
 6997SOL     OW22441   3.053   1.727   5.956  0.1122 -0.5132  0.2103
 6997SOL    HW122442   3.022   1.636   5.953  0.4991 -0.6497  0.3170
 6997SOL    HW222443   2.996   1.774   5.896 -0.1663 -0.8060  0.2433
 6998SOL     OW22444   3.186   4.804   7.990  0.4540 -0.0799 -0.3963
 6998SOL    HW122445   3.119   4.777   7.928  2.5792 -1.0779 -2.4145
 6998SOL    HW222446   3.221   4.886   7.954  0.4787  0.3446  0.5393
 6999SOL     OW22447   8.102   7.135   2.632 -0.3105 -0.5128 -0.5441
 6999SOL    HW122448   8.149   7.053   2.647 -2.2478 -1.5913 -0.1044
 6999SOL    HW222449   8.109   7.151   2.538 -0.3253 -1.4389 -0.7039
 7000SOL     OW22450   8.175   8.646   8.468  0.1369 -0.4581 -0.0327
 7000SOL    HW122451   8.266   8.652   8.496  1.0286  0.3812 -2.8450
 7000SOL    HW222452   8.178   8.600   8.384 -1.9561  0.0650 -0.4559
 7001SOL     OW22453   6.512   8.662   6.705  0.4191  0.5245  0.2060
 7001SOL    HW122454   6.478   8.658   6.794  0.5583  2.0566  0.3480
 7001SOL    HW222455   6.514   8.571   6.676 -0.3160  0.0752  1.5012
 7002SOL     OW22456   3.319   5.914   7.700 -0.3239  0.7561 -0.2496
 7002SOL    HW122457   3.275   5.925   7.783  1.8644 -2.5469  1.5615
 7002SOL    HW222458   3.371   5.994   7.689 -0.9762  1.4147  1.3419
 7003SOL     OW22459   0.377   0.427   4.016  0.3976 -0.2098 -0.2001
 7003SOL    HW122460   0.372   0.333   3.996 -0.9623 -0.1580 -0.1757
 7003SOL    HW222461   0.470   0.444   4.026  0.5964 -1.8826  1.3246
 7004SOL     OW22462   1.840   8.727   6.219  0.0581  0.2148 -0.0376
 7004SOL    HW122463   1.888   8.648   6.194 -0.4690  0.0892 -0.6667
 7004SOL    HW222464   1.889   8.799   6.178  0.3802  0.1970  0.3083
 7005SOL     OW22465   5.627   4.576   0.194 -0.4114 -0.0139  0.7856
 7005SOL    HW122466   5.571   4.651   0.175 -0.6247 -0.7812 -2.0903
 7005SOL    HW222467   5.567   4.503   0.206 -0.1414 -0.0582  2.0420
 7006SOL     OW22468   7.364   1.903   8.601 -0.2566 -0.3127  0.0825
 7006SOL    HW122469   7.273   1.888   8.575 -0.2893 -0.2246  0.1465
 7006SOL    HW222470   7.415   1.882   8.522 -0.4661  1.4323 -0.5656
 7007SOL     OW22471   6.320   2.675   7.988 -0.4623 -0.3356 -0.0116
 7007SOL    HW122472   6.328   2.580   7.987 -0.4018 -0.3578  1.3176
 7007SOL    HW222473   6.259   2.695   7.917  2.0702 -1.0777 -2.6442
 7008SOL     OW22474   3.275   7.014   3.676 -0.1775  0.2208  1.1387
 7008SOL    HW122475   3.196   7.059   3.645 -0.6591  0.6853  2.9638
 7008SOL    HW222476   3.344   7.080   3.673  0.1991 -0.1949 -0.4906
 7009SOL     OW22477   2.705   5.660   6.372 -0.3465  0.2085  0.2871
 7009SOL    HW122478   2.737   5.750   6.369  0.1933 -0.0037 -0.6882
 7009SOL    HW222479   2.688   5.637   6.281 -0.0535 -0.8276  0.4773
 7010SOL     OW22480   1.237   5.617   5.033 -0.2813  0.0028 -0.4464
 7010SOL    HW122481   1.214   5.617   5.126 -1.9621  0.4759 -0.8349
 7010SOL    HW222482   1.302   5.548   5.025 -0.7965 -0.6881  0.9191
 7011SOL     OW22483   2.296   4.667   4.954 -0.0529 -0.0985 -0.2943
 7011SOL    HW122484   2.298   4.652   4.859 -1.0864  1.1397 -0.5420
 7011SOL    HW222485   2.221   4.725   4.967  2.5525  3.4182  0.6736
 7012SOL     OW22486   1.921   1.460   5.617 -0.3482  0.5621  0.3124
 7012SOL    HW122487   1.993   1.402   5.643 -0.9616 -0.2387  0.2952
 7012SOL    HW222488   1.963   1.541   5.591  0.3679  1.3359  3.4394
 7013SOL     OW22489   5.474   8.814   7.576  0.5630 -0.0362 -0.0812
 7013SOL    HW122490   5.536   8.875   7.536  0.8860 -0.1640  0.2185
 7013SOL    HW222491   5.415   8.788   7.505  1.8654 -1.2026 -0.7786
 7014SOL     OW22492   1.628   2.210   0.458  0.6739  0.1716  0.0568
 7014SOL    HW122493   1.644   2.149   0.386 -0.9391  1.3263 -1.3802
 7014SOL    HW222494   1.694   2.278   0.445  1.0134 -0.1183  0.2645
 7015SOL     OW22495   0.904   1.499   5.500  0.2695 -0.2785 -0.3269
 7015SOL    HW122496   0.895   1.409   5.468  0.0614  0.1289 -1.4691
 7015SOL    HW222497   0.817   1.537   5.488  0.3258  0.0478  0.2611
 7016SOL     OW22498   8.648   0.138   2.017  0.0085 -0.2683 -0.4042
 7016SOL    HW122499   8.570   0.083   2.011 -0.7455  0.2453  2.9542
 7016SOL    HW222500   8.623   0.211   2.073  2.9946 -0.3361  1.2589
 7017SOL     OW22501   5.390   0.594   5.953 -0.8147  0.0413 -0.6091
 7017SOL    HW122502   5.304   0.627   5.978 -0.2665  1.5102 -0.5712
 7017SOL    HW222503   5.372   0.508   5.916 -2.2156  0.0223  0.0362
 7018SOL     OW22504   7.593   7.505   3.762  0.0586  0.2200  0.7602
 7018SOL    HW122505   7.668   7.546   3.804  0.9159  1.1429 -1.4766
 7018SOL    HW222506   7.533   7.577   3.743  0.3764  0.0973 -0.8559
 7019SOL     OW22507   3.970   0.436   2.336  0.5644 -0.1022  0.6140
 7019SOL    HW122508   3.947   0.349   2.368  0.6594 -0.3432  0.0427
 7019SOL    HW222509   3.891   0.488   2.348  0.5320 -0.2451  1.0321
 7020SOL     OW22510   6.418   7.530   2.769 -0.1084 -0.0849  0.3096
 7020SOL    HW122511   6.381   7.474   2.837 -0.2921  0.6761  0.8474
 7020SOL    HW222512   6.343   7.573   2.729 -0.0555 -0.9870 -0.8092
 7021SOL     OW22513   5.824   6.753   7.642  0.1208 -0.1698 -0.0308
 7021SOL    HW122514   5.770   6.735   7.720  1.2591 -1.7913  0.4319
 7021SOL    HW222515   5.796   6.687   7.578  0.2093  0.2212 -0.4710
 7022SOL     OW22516   2.405   2.684   3.841  0.3916  0.0014  0.6070
 7022SOL    HW122517   2.311   2.703   3.844  0.2628 -0.7015  1.6356
 7022SOL    HW222518   2.424   2.671   3.748 -1.0823 -2.3821  0.5480
 7023SOL     OW22519   1.920   0.056   1.392 -0.2878 -0.1008 -0.0872
 7023SOL    HW122520   1.914   0.060   1.297  3.4758  2.6800 -0.4243
 7023SOL    HW222521   1.851   0.115   1.423 -1.2943 -0.7332 -1.0272
 7024SOL     OW22522   2.887   1.929   3.092  0.0436  0.0280  0.3800
 7024SOL    HW122523   2.922   1.891   3.012  1.6357  1.7041  0.2116
 7024SOL    HW222524   2.841   2.008   3.063  1.7766  1.3763  1.1965
 7025SOL     OW22525   0.127   3.478   0.359  0.0719  0.6399 -0.2094
 7025SOL    HW122526   0.058   3.474   0.292 -0.4585  1.7194  0.2410
 7025SOL    HW222527   0.103   3.554   0.413  0.4053 -0.2985  1.3052
 7026SOL     OW22528   3.930   2.202   6.597  0.5387  0.7249  0.2796
 7026SOL    HW122529   3.964   2.153   6.672  1.5476  0.4494 -0.3443
 7026SOL    HW222530   3.838   2.176   6.591  0.1604  1.4942  2.0077
 7027SOL     OW22531   2.584   5.915   6.702  0.2365  0.1424 -0.0544
 7027SOL    HW122532   2.671   5.875   6.709  1.3800  2.2670 -1.0454
 7027SOL    HW222533   2.525   5.850   6.741  2.3030 -1.1569  1.1572
 7028SOL     OW22534   4.498   1.337   1.269 -0.1417 -0.1282  0.1779
 7028SOL    HW122535   4.459   1.371   1.188  1.1044  0.8829 -0.0227
 7028SOL    HW222536   4.545   1.258   1.241  0.8457  0.5864 -0.2344
 7029SOL     OW22537   4.465   6.147   2.967 -0.6241 -0.8184  0.2305
 7029SOL    HW122538   4.503   6.063   2.994  2.2771 -0.2039 -1.4459
 7029SOL    HW222539   4.524   6.213   3.004 -2.7870  0.5343  1.4339
 7030SOL     OW22540   7.824   6.821   2.923  0.1507  0.0416  0.2758
 7030SOL    HW122541   7.901   6.797   2.872 -1.2258 -0.7182 -1.5752
 7030SOL    HW222542   7.797   6.906   2.888 -0.6310 -0.3469 -0.0955
 7031SOL     OW22543   7.508   7.424   4.983 -0.0536  0.0086  0.4606
 7031SOL    HW122544   7.490   7.432   5.077  0.6964  0.8791  0.5510
 7031SOL    HW222545   7.593   7.382   4.978 -0.1456 -0.1481  0.1567
 7032SOL     OW22546   2.335   7.088   4.333  0.0725 -0.2470  0.2116
 7032SOL    HW122547   2.266   7.078   4.399 -0.8656 -1.1000 -0.8601
 7032SOL    HW222548   2.313   7.170   4.288  1.7020  1.2865  2.0260
 7033SOL     OW22549   9.133   0.123   1.701 -0.6911 -0.0156  0.1580
 7033SOL    HW122550   9.089   0.142   1.784 -0.0963  0.3570  0.4003
 7033SOL    HW222551   9.191   0.198   1.688  1.3293 -1.3641  0.8501
 7034SOL     OW22552   2.590   4.564   3.913 -0.8914 -0.2793 -0.2288
 7034SOL    HW122553   2.541   4.603   3.986 -1.7881 -0.5375 -0.6811
 7034SOL    HW222554   2.645   4.497   3.954  2.5286  2.9079  0.9584
 7035SOL     OW22555   4.515   9.017   0.463  0.2783 -0.1167  0.1600
 7035SOL    HW122556   4.526   9.111   0.454  0.1167 -0.1917 -0.9400
 7035SOL    HW222557   4.583   8.979   0.408 -0.7274 -0.6130 -0.7979
 7036SOL     OW22558   1.920   2.878   0.725  0.2533 -0.2323  0.1418
 7036SOL    HW122559   1.904   2.791   0.762  0.1681 -0.0002  0.6576
 7036SOL    HW222560   1.897   2.869   0.633 -0.7112 -0.5003  0.3909
 7037SOL     OW22561   5.317   6.482   1.510 -0.1605 -0.0531  0.2669
 7037SOL    HW122562   5.331   6.388   1.524 -0.9763 -0.1261  0.6535
 7037SOL    HW222563   5.356   6.523   1.588  0.9495 -0.0002 -0.3009
 7038SOL     OW22564   7.453   7.510   0.494 -0.2392  0.2181  0.0720
 7038SOL    HW122565   7.478   7.462   0.416 -0.3937 -0.3964  0.3982
 7038SOL    HW222566   7.393   7.452   0.541  0.1709  0.4104  0.8594
 7039SOL     OW22567   0.313   2.013   3.590  0.4789 -0.2276  0.3853
 7039SOL    HW122568   0.357   1.931   3.610 -0.1365 -0.3799  1.1625
 7039SOL    HW222569   0.275   2.041   3.674  0.3221  0.6251  0.0372
 7040SOL     OW22570   1.045   5.941   4.507  0.0299  0.3422 -0.1984
 7040SOL    HW122571   1.062   5.950   4.600  1.4140 -2.5760 -0.0541
 7040SOL    HW222572   1.121   5.981   4.464 -0.5891  1.6498 -0.1078
 7041SOL     OW22573   6.392   6.079   9.263  0.1794  0.3822 -0.1086
 7041SOL    HW122574   6.469   6.034   9.297  0.1487  1.1718  1.0640
 7041SOL    HW222575   6.382   6.156   9.320 -0.3010  1.3727 -1.4667
 7042SOL     OW22576   6.150   0.617   0.622 -0.1334 -0.3538 -0.1243
 7042SOL    HW122577   6.082   0.682   0.639 -0.2035 -0.5100  0.2007
 7042SOL    HW222578   6.104   0.543   0.583  0.1488  0.3455 -1.8800
 7043SOL     OW22579   5.057   6.873   6.011 -0.2670  0.5173 -0.1622
 7043SOL    HW122580   5.049   6.808   6.080 -0.2449  0.2658 -0.3923
 7043SOL    HW222581   5.085   6.953   6.055  0.4863  0.1589  0.0202
 7044SOL     OW22582   4.164   0.687   9.139 -0.2755 -0.5696  0.7256
 7044SOL    HW122583   4.133   0.607   9.182 -1.6297  0.6810  2.1855
 7044SOL    HW222584   4.105   0.755   9.170  2.6168  1.5722  1.9196
 7045SOL     OW22585   0.300   5.837   4.073 -0.4581  0.3126  0.2384
 7045SOL    HW122586   0.213   5.871   4.051 -0.9430 -1.0519 -0.0554
 7045SOL    HW222587   0.285   5.746   4.098  0.9388 -0.0836 -0.2512
 7046SOL     OW22588   2.498   4.249   4.029 -0.0874  0.0758 -0.2247
 7046SOL    HW122589   2.466   4.339   4.038  0.7049  0.4543 -1.1007
 7046SOL    HW222590   2.550   4.235   4.109  1.1581  0.9960 -0.8287
 7047SOL     OW22591   5.258   3.905   9.055  0.6423 -0.3036 -0.3882
 7047SOL    HW122592   5.246   3.995   9.086 -0.2457 -0.2152 -0.9399
 7047SOL    HW222593   5.352   3.890   9.062  0.8019  0.6457 -0.2319
 7048SOL     OW22594   6.082   8.107   5.880 -0.2833  0.3076 -0.0692
 7048SOL    HW122595   6.121   8.062   5.806  0.0438  0.7651 -0.1817
 7048SOL    HW222596   6.000   8.143   5.845 -0.2340  0.3382 -0.1546
 7049SOL     OW22597   0.731   5.193   1.083 -0.4872  0.1032 -0.0125
 7049SOL    HW122598   0.760   5.189   1.174  0.1120  1.9983 -0.0820
 7049SOL    HW222599   0.643   5.156   1.085 -1.3574  2.0696  1.7703
 7050SOL     OW22600   1.618   8.183   8.244 -0.4444  0.4442  0.5390
 7050SOL    HW122601   1.675   8.246   8.201  0.3716  0.2287  1.2907
 7050SOL    HW222602   1.663   8.099   8.235 -0.9639  0.1598  0.5511
 7051SOL     OW22603   0.787   4.708   3.017 -0.4544 -0.4682 -0.4402
 7051SOL    HW122604   0.707   4.761   3.023 -0.3579 -0.1883 -1.4422
 7051SOL    HW222605   0.755   4.618   3.016 -0.9957 -0.3330 -3.3307
 7052SOL     OW22606   5.111   7.163   8.817  0.1465  0.1028  0.0954
 7052SOL    HW122607   5.018   7.185   8.804  0.1881 -1.0726 -3.1292
 7052SOL    HW222608   5.158   7.243   8.790  0.0902  0.3462  0.7158
 7053SOL     OW22609   1.653   0.286   8.326 -0.3001  0.1588  0.3415
 7053SOL    HW122610   1.686   0.218   8.267 -2.1094 -0.3299 -0.1732
 7053SOL    HW222611   1.695   0.267   8.410  1.1843 -0.0202 -0.4013
 7054SOL     OW22612   5.366   9.022   8.037 -0.3770  0.1894 -0.3959
 7054SOL    HW122613   5.409   9.099   8.000 -1.0939  0.5411 -0.5184
 7054SOL    HW222614   5.309   8.991   7.966 -0.7749  0.0910 -0.0371
 7055SOL     OW22615   3.456   0.064   7.980  0.4642 -0.2776 -0.1414
 7055SOL    HW122616   3.395   0.137   7.971 -0.6739 -1.1531  0.1584
 7055SOL    HW222617   3.432   0.004   7.909  1.1032 -0.5465 -0.1334
 7056SOL     OW22618   5.954   2.441   2.990  0.3721  0.6335  0.2296
 7056SOL    HW122619   5.924   2.357   3.025  0.6802 -0.3940 -1.8024
 7056SOL    HW222620   5.885   2.467   2.929  0.5037  1.6255  0.4918
 7057SOL     OW22621   4.978   0.375   6.188 -0.5426 -0.5053 -0.5916
 7057SOL    HW122622   5.071   0.357   6.175  0.0828 -0.0506  2.3705
 7057SOL    HW222623   4.950   0.308   6.251 -1.5485  0.8357  0.4371
 7058SOL     OW22624   7.170   2.178   4.334 -0.0738  0.7693  0.1308
 7058SOL    HW122625   7.229   2.102   4.336 -1.5601 -0.4123  1.2651
 7058SOL    HW222626   7.197   2.227   4.256  0.0675 -1.6197 -1.4156
 7059SOL     OW22627   6.650   6.041   3.905  0.7124  0.6107 -0.1734
 7059SOL    HW122628   6.562   6.037   3.942  0.8142 -0.6390 -0.0319
 7059SOL    HW222629   6.709   6.035   3.981  0.9321  1.3065 -0.2782
 7060SOL     OW22630   4.507   5.535   8.115  0.0214 -0.2023 -0.0517
 7060SOL    HW122631   4.576   5.579   8.066  1.2114 -0.4986  1.2900
 7060SOL    HW222632   4.553   5.487   8.184 -1.4466 -1.2712  0.2480
 7061SOL     OW22633   8.972   2.104   5.610  0.2354 -0.2805  0.0922
 7061SOL    HW122634   8.984   2.014   5.579 -2.4719 -1.1328  1.2946
 7061SOL    HW222635   8.969   2.097   5.705  0.9510  1.2688  0.2720
 7062SOL     OW22636   1.183   2.615   8.718  0.0077  0.1902  0.5334
 7062SOL    HW122637   1.191   2.692   8.663  1.8837  0.3643  1.0067
 7062SOL    HW222638   1.268   2.605   8.759 -0.3334 -1.8689  0.8548
 7063SOL     OW22639   1.707   8.352   2.364  0.4690  0.3431  0.0588
 7063SOL    HW122640   1.774   8.286   2.345 -1.6153 -1.6571 -0.7974
 7063SOL    HW222641   1.680   8.385   2.279 -0.5331  0.1548  0.2909
 7064SOL     OW22642   4.118   4.433   2.299  0.5094  0.2750 -0.5917
 7064SOL    HW122643   4.038   4.400   2.340  0.4377 -1.1454 -1.7639
 7064SOL    HW222644   4.135   4.516   2.343 -1.5946  0.6095 -0.2850
 7065SOL     OW22645   7.021   5.429   0.056 -0.6940 -1.4264 -0.3113
 7065SOL    HW122646   7.006   5.366   0.127  0.5017 -2.8506 -1.2650
 7065SOL    HW222647   7.108   5.465   0.073 -0.3904 -1.7904 -1.0383
 7066SOL     OW22648   8.282   5.793   4.311 -0.2259  0.0130 -0.0932
 7066SOL    HW122649   8.201   5.793   4.362  0.7716  1.6395  1.6377
 7066SOL    HW222650   8.336   5.725   4.351 -0.7529 -1.1892 -1.3555
 7067SOL     OW22651   3.661   8.280   5.668  0.1016 -0.8412  0.0215
 7067SOL    HW122652   3.647   8.351   5.606 -1.1091  0.3113  1.5474
 7067SOL    HW222653   3.641   8.200   5.619 -2.6874  0.1455 -0.5881
 7068SOL     OW22654   6.051   6.041   1.779  0.4644 -0.2284  0.3004
 7068SOL    HW122655   6.075   6.079   1.695 -0.7129  0.7888  0.3990
 7068SOL    HW222656   6.135   6.026   1.823  1.0119  1.3893 -0.1211
 7069SOL     OW22657   3.512   3.632   4.492  0.0090  0.0361  0.2679
 7069SOL    HW122658   3.588   3.690   4.495  0.6626 -0.7526 -0.4024
 7069SOL    HW222659   3.510   3.600   4.401 -0.8906 -0.2612  0.3793
 7070SOL     OW22660   7.139   7.810   6.769  0.6427 -0.2461  0.6599
 7070SOL    HW122661   7.165   7.786   6.857 -0.2489 -1.2863  0.6632
 7070SOL    HW222662   7.191   7.754   6.712  1.0578  0.2662  0.5347
 7071SOL     OW22663   8.931   2.410   2.951 -0.0463  0.1243 -0.3557
 7071SOL    HW122664   8.965   2.323   2.928 -2.8036 -0.8173 -1.2079
 7071SOL    HW222665   8.849   2.392   2.997 -0.4220  2.2951 -0.1010
 7072SOL     OW22666   6.752   1.485   4.321 -0.2450  0.3954  0.1660
 7072SOL    HW122667   6.792   1.408   4.279 -3.6868 -0.2527 -2.3070
 7072SOL    HW222668   6.716   1.451   4.403  1.3438  0.2916  0.8684
 7073SOL     OW22669   7.541   5.436   6.689 -0.2189 -0.3328  0.0642
 7073SOL    HW122670   7.475   5.425   6.621  0.4682 -1.1101 -0.4893
 7073SOL    HW222671   7.622   5.456   6.642  0.4657 -1.7547  0.5518
 7074SOL     OW22672   5.958   7.598   6.781 -0.4057  0.1141  0.7535
 7074SOL    HW122673   6.016   7.650   6.836 -0.4183  0.8687  0.0835
 7074SOL    HW222674   5.972   7.632   6.693 -1.5218 -0.0042  0.5143
 7075SOL     OW22675   8.750   0.993   0.694  0.1889 -0.3482  0.8932
 7075SOL    HW122676   8.693   0.925   0.659 -2.4349  1.3482  1.5639
 7075SOL    HW222677   8.742   0.985   0.789 -0.0787  0.7709  0.9844
 7076SOL     OW22678   1.538   8.626   1.384 -0.0102  0.2270 -0.3803
 7076SOL    HW122679   1.619   8.575   1.387 -0.7700 -1.0211  0.6417
 7076SOL    HW222680   1.534   8.668   1.470 -0.7091 -0.1862 -0.2042
 7077SOL     OW22681   6.038   5.674   3.596  0.4724 -0.2017  0.5296
 7077SOL    HW122682   6.058   5.743   3.533 -2.9043 -0.4552 -1.0713
 7077SOL    HW222683   6.043   5.593   3.544  0.4410 -0.7410  1.3511
 7078SOL     OW22684   6.341   8.545   8.172  0.3061 -0.0614  0.5805
 7078SOL    HW122685   6.306   8.514   8.255  0.3894  1.7831  1.3399
 7078SOL    HW222686   6.297   8.491   8.106  0.0033 -1.3318  1.7814
 7079SOL     OW22687   7.123   7.709   3.781 -0.0739 -0.1120 -0.3519
 7079SOL    HW122688   7.121   7.710   3.877 -0.7076  1.6131 -0.3434
 7079SOL    HW222689   7.102   7.799   3.756  2.0032 -0.0379 -2.0898
 7080SOL     OW22690   6.129   1.061   3.657 -0.7860  0.7438 -0.3168
 7080SOL    HW122691   6.219   1.094   3.649 -0.1210 -0.6259  0.9496
 7080SOL    HW222692   6.087   1.122   3.718  0.2573 -0.2697  1.5461
 7081SOL     OW22693   1.004   1.532   7.344 -0.4129 -0.4803  0.2369
 7081SOL    HW122694   1.079   1.534   7.404  0.6218 -2.8276 -0.8446
 7081SOL    HW222695   1.010   1.614   7.295  1.4876 -0.5962  0.1850
 7082SOL     OW22696   8.637   6.808   0.318 -0.4369 -0.2890 -0.0576
 7082SOL    HW122697   8.543   6.794   0.327 -0.7179  1.7969  0.6826
 7082SOL    HW222698   8.652   6.896   0.351  1.4444  0.3512 -2.2970
 7083SOL     OW22699   4.618   1.835   7.601  0.0294 -0.1784  0.1043
 7083SOL    HW122700   4.627   1.913   7.656  0.2835 -1.2098  1.5761
 7083SOL    HW222701   4.533   1.846   7.558 -0.8489 -0.0044  1.8168
 7084SOL     OW22702   5.883   7.572   9.032  0.1071  0.3875  0.4526
 7084SOL    HW122703   5.823   7.639   9.001  0.3166  0.8123  0.9404
 7084SOL    HW222704   5.835   7.527   9.102 -0.2244 -0.3184 -0.2149
 7085SOL     OW22705   8.734   7.479   8.395  0.0401  0.6546 -0.3195
 7085SOL    HW122706   8.682   7.424   8.335 -1.1912  1.8572 -0.4130
 7085SOL    HW222707   8.805   7.422   8.423  0.4321 -0.0924 -2.5937
 7086SOL     OW22708   6.463   2.567   3.343 -0.3268 -0.4049  0.3349
 7086SOL    HW122709   6.417   2.483   3.348 -0.2543 -0.3851  2.0558
 7086SOL    HW222710   6.514   2.571   3.424  2.0436 -0.0129 -1.0674
 7087SOL     OW22711   3.832   6.958   5.810 -0.1638  0.1346 -0.2403
 7087SOL    HW122712   3.909   7.000   5.850 -0.0367  0.8008 -1.1730
 7087SOL    HW222713   3.834   6.868   5.845  3.1616 -1.0654 -2.9724
 7088SOL     OW22714   9.191   7.589   1.609  0.2041 -0.3744  0.2421
 7088SOL    HW122715   9.158   7.604   1.697 -0.6597 -1.2625  0.0872
 7088SOL    HW222716   9.282   7.619   1.611 -0.0385  0.3105  1.2170
 7089SOL     OW22717   4.730   2.721   5.665 -0.3596  0.6481  0.2116
 7089SOL    HW122718   4.797   2.781   5.696 -0.3974  1.1187 -0.5894
 7089SOL    HW222719   4.745   2.715   5.571 -1.7354  1.1436 -0.0660
 7090SOL     OW22720   2.688   6.462   3.993  0.0674  0.2990  0.0194
 7090SOL    HW122721   2.725   6.509   3.918 -0.2642 -1.9119 -1.6504
 7090SOL    HW222722   2.603   6.430   3.962  1.1598 -3.1598  0.1850
 7091SOL     OW22723   4.185   8.975   5.807  0.3458 -0.5131  0.1135
 7091SOL    HW122724   4.140   8.955   5.725 -1.2401 -0.3937  0.9143
 7091SOL    HW222725   4.237   8.896   5.825 -0.8002 -1.3394 -0.0494
 7092SOL     OW22726   2.951   7.568   5.114  0.0191 -0.3083 -0.1858
 7092SOL    HW122727   2.867   7.606   5.139  0.3947  0.0157  0.6467
 7092SOL    HW222728   2.946   7.559   5.019 -0.7581  0.1833 -0.2047
 7093SOL     OW22729   3.108   8.592   5.917  0.0845 -0.2073  0.0983
 7093SOL    HW122730   3.171   8.621   5.851  0.3973  0.0328  0.4954
 7093SOL    HW222731   3.036   8.654   5.908  0.3003  0.0708  0.2470
 7094SOL     OW22732   4.029   6.239   1.935 -0.2884 -0.4020  0.2982
 7094SOL    HW122733   4.077   6.198   2.007 -0.6252 -0.8639  0.2638
 7094SOL    HW222734   4.090   6.239   1.862 -0.6640 -1.9218 -0.0441
 7095SOL     OW22735   0.179   2.979   8.667  0.6934 -0.5759  0.0172
 7095SOL    HW122736   0.142   3.006   8.751  0.0474 -1.1790 -0.0650
 7095SOL    HW222737   0.209   3.061   8.627 -0.5665 -0.0615  0.0763
 7096SOL     OW22738   6.364   3.897   0.412  0.4974 -0.0279  0.9401
 7096SOL    HW122739   6.412   3.974   0.443  0.5100  0.3309  0.0686
 7096SOL    HW222740   6.298   3.933   0.352 -0.7848 -0.5310  2.0083
 7097SOL     OW22741   3.887   4.746   4.887  0.0130 -0.8970  0.0460
 7097SOL    HW122742   3.844   4.810   4.830  0.4433  0.1805  0.8934
 7097SOL    HW222743   3.965   4.790   4.919  0.8442 -2.2071 -0.0864
 7098SOL     OW22744   7.697   4.492   7.738 -0.0241 -0.3250  0.0349
 7098SOL    HW122745   7.738   4.411   7.766 -0.1610 -1.2577 -2.3237
 7098SOL    HW222746   7.604   4.471   7.729  0.2815 -0.7353 -3.1168
 7099SOL     OW22747   0.227   5.549   8.213 -0.6339 -0.3804  0.0724
 7099SOL    HW122748   0.180   5.533   8.131 -0.4280  1.9471 -0.5801
 7099SOL    HW222749   0.158   5.564   8.278 -0.7930 -1.9577  0.3134
 7100SOL     OW22750   2.959   3.628   1.436  0.3386 -0.4896  0.1170
 7100SOL    HW122751   2.898   3.695   1.403  3.5101  1.5423 -2.1330
 7100SOL    HW222752   3.042   3.674   1.447  1.9668 -3.4670  1.5055
 7101SOL     OW22753   6.742   3.645   6.383 -0.0509  0.3630 -0.5878
 7101SOL    HW122754   6.653   3.635   6.350 -0.1100  0.8096 -0.5681
 7101SOL    HW222755   6.798   3.617   6.311 -0.2206 -1.1499 -0.1700
 7102SOL     OW22756   0.699   9.009   4.927  0.2046  0.0673 -0.3765
 7102SOL    HW122757   0.642   9.020   5.003 -0.1025 -2.0923 -0.2388
 7102SOL    HW222758   0.768   9.075   4.939  0.5488 -0.6229  2.1435
 7103SOL     OW22759   2.561   8.135   5.025  0.5251 -0.2262  0.0800
 7103SOL    HW122760   2.595   8.220   4.996  0.8398 -0.1505  0.6432
 7103SOL    HW222761   2.487   8.157   5.082  0.6734 -0.3177  0.3126
 7104SOL     OW22762   3.035   2.850   0.759  0.3005  0.1552  0.3423
 7104SOL    HW122763   3.032   2.756   0.774 -0.5852  0.0853 -0.1791
 7104SOL    HW222764   3.096   2.861   0.685 -0.2901 -0.1018 -0.1902
 7105SOL     OW22765   3.233   8.496   2.616 -0.0592 -0.2263 -0.0065
 7105SOL    HW122766   3.264   8.419   2.569 -0.6817 -0.3679 -0.1971
 7105SOL    HW222767   3.296   8.565   2.593  2.0556 -1.2732  2.2347
 7106SOL     OW22768   3.912   5.562   7.384 -0.3845  0.0833 -0.5047
 7106SOL    HW122769   3.905   5.630   7.317  1.0966 -0.5334 -1.3491
 7106SOL    HW222770   3.894   5.481   7.337  2.7926 -0.6054 -0.8061
 7107SOL     OW22771   1.138   8.427   6.293 -0.3306  0.1956  0.4477
 7107SOL    HW122772   1.125   8.442   6.200 -2.5566  1.9203  0.9491
 7107SOL    HW222773   1.166   8.511   6.328  2.5339 -0.9177  1.1186
 7108SOL     OW22774   5.860   0.603   8.802 -0.0242  0.0357  0.0227
 7108SOL    HW122775   5.829   0.578   8.889  1.2572  1.6123  0.9862
 7108SOL    HW222776   5.936   0.658   8.818 -0.5902  1.5702 -2.0512
 7109SOL     OW22777   4.657   0.373   5.965  0.4915  0.0038 -0.0514
 7109SOL    HW122778   4.685   0.463   5.948  0.2650 -0.0198 -0.5585
 7109SOL    HW222779   4.706   0.320   5.901 -0.2935 -0.0948 -0.5875
 7110SOL     OW22780   3.196   3.030   6.349  0.4756 -0.2906  0.2392
 7110SOL    HW122781   3.237   3.112   6.378 -0.7599  0.5568 -0.3226
 7110SOL    HW222782   3.114   3.058   6.307 -0.7982 -1.9248  1.5052
 7111SOL     OW22783   1.146   1.093   8.243 -0.1886 -0.3329  0.4379
 7111SOL    HW122784   1.230   1.046   8.247 -1.0032 -1.7894  1.8736
 7111SOL    HW222785   1.087   1.032   8.198 -0.4647  0.7355 -0.6869
 7112SOL     OW22786   0.693   6.336   0.280 -0.4927  0.4019  0.1719
 7112SOL    HW122787   0.693   6.265   0.215 -0.5182  0.4000  0.1740
 7112SOL    HW222788   0.609   6.380   0.268 -0.6381  0.1946  0.4277
 7113SOL     OW22789   7.215   3.504   1.727 -0.4175 -0.4398  0.3383
 7113SOL    HW122790   7.176   3.573   1.780 -1.4406 -1.0863  0.4565
 7113SOL    HW222791   7.150   3.434   1.726  0.5248 -1.3512  0.0943
 7114SOL     OW22792   0.390   0.594   4.425  0.3532  0.1116  0.0997
 7114SOL    HW122793   0.335   0.661   4.466 -0.9571 -1.0295  0.2604
 7114SOL    HW222794   0.387   0.613   4.332  1.8043  1.5766  0.3034
 7115SOL     OW22795   6.069   2.626   3.857 -0.2899  0.2077  0.5602
 7115SOL    HW122796   6.154   2.614   3.900 -0.0885  0.9711  0.4008
 7115SOL    HW222797   6.037   2.710   3.890 -0.5231  0.3957 -0.1178
 7116SOL     OW22798   2.099   4.839   3.642  0.0068  0.0093  0.0219
 7116SOL    HW122799   2.131   4.782   3.712 -0.9906  0.3635  0.8026
 7116SOL    HW222800   2.123   4.927   3.670  0.3517  0.0874 -0.5105
 7117SOL     OW22801   5.613   4.619   3.991  0.5735 -0.3609  0.6309
 7117SOL    HW122802   5.683   4.670   3.950 -1.2270  1.0450 -0.8831
 7117SOL    HW222803   5.643   4.528   3.986  0.6647 -0.2831 -3.6502
 7118SOL     OW22804   6.224   2.480   2.912 -0.1438  0.0374 -0.6137
 7118SOL    HW122805   6.132   2.477   2.937  0.4013  0.1676  1.5810
 7118SOL    HW222806   6.245   2.390   2.886 -0.1816 -0.7343  1.8046
 7119SOL     OW22807   8.804   4.070   6.598  0.3496  0.0777 -0.6550
 7119SOL    HW122808   8.791   4.162   6.623  1.2641 -0.5110  2.3297
 7119SOL    HW222809   8.895   4.066   6.568  0.9561 -0.1341  1.0789
 7120SOL     OW22810   2.375   1.767   2.068  0.5724 -0.0513  0.5651
 7120SOL    HW122811   2.468   1.783   2.048  1.1284  0.4499  3.2310
 7120SOL    HW222812   2.375   1.688   2.121 -0.2622  1.0331  2.2665
 7121SOL     OW22813   4.815   6.476   3.966 -0.5154  0.4165  0.0098
 7121SOL    HW122814   4.889   6.537   3.957  0.6603 -0.8738  0.4952
 7121SOL    HW222815   4.773   6.477   3.880 -0.7276  2.1352  0.1021
 7122SOL     OW22816   4.744   0.197   1.603  0.0183 -0.4841  0.0206
 7122SOL    HW122817   4.687   0.127   1.635  0.9518 -1.2521  0.0388
 7122SOL    HW222818   4.793   0.224   1.681 -1.9251  1.8209  0.5763
 7123SOL     OW22819   3.133   4.147   6.750 -0.3703 -0.6170  0.2879
 7123SOL    HW122820   3.129   4.078   6.816 -0.4144 -1.9957 -1.0948
 7123SOL    HW222821   3.041   4.174   6.737 -0.9654 -3.3763 -2.1913
 7124SOL     OW22822   6.598   7.712   5.591  0.1388  0.8568  0.2215
 7124SOL    HW122823   6.691   7.703   5.570 -0.2721 -1.1052 -1.1001
 7124SOL    HW222824   6.556   7.728   5.506 -0.9219 -0.5936  0.4262
 7125SOL     OW22825   5.348   0.372   5.815 -0.1874 -0.1562 -0.0094
 7125SOL    HW122826   5.401   0.343   5.741 -0.6701  2.0146 -1.2973
 7125SOL    HW222827   5.257   0.366   5.784 -0.4412  0.1137  0.6531
 7126SOL     OW22828   0.805   4.150   5.640 -0.3242 -0.2592 -0.0622
 7126SOL    HW122829   0.847   4.179   5.559 -0.3565 -1.9297 -0.7267
 7126SOL    HW222830   0.725   4.105   5.611 -0.4354 -0.7247  0.8994
 7127SOL     OW22831   6.424   5.253   0.761  0.2020  0.4447 -0.1517
 7127SOL    HW122832   6.414   5.342   0.794 -1.1819 -0.2818  1.5545
 7127SOL    HW222833   6.426   5.262   0.666 -0.1130  2.2701 -0.0086
 7128SOL     OW22834   3.787   7.824   6.325 -0.0558  0.2317 -0.2285
 7128SOL    HW122835   3.751   7.799   6.410  1.6171  0.4264  0.5827
 7128SOL    HW222836   3.750   7.911   6.308  0.3549  0.6446  0.8242
 7129SOL     OW22837   4.831   1.710   6.502  0.2824 -0.2178 -0.4672
 7129SOL    HW122838   4.765   1.742   6.441  1.9258  0.0553 -2.1896
 7129SOL    HW222839   4.890   1.785   6.515  2.5125 -1.5388 -2.2224
 7130SOL     OW22840   8.138   8.342   4.784  0.1207  0.0156 -0.0170
 7130SOL    HW122841   8.140   8.250   4.755  2.1731  0.2775 -0.8930
 7130SOL    HW222842   8.049   8.371   4.765  0.3716 -0.8308 -3.0281
 7131SOL     OW22843   0.563   4.818   4.837 -0.0796  0.3221  0.3759
 7131SOL    HW122844   0.485   4.868   4.861 -0.7455 -1.0132  1.1282
 7131SOL    HW222845   0.582   4.765   4.914  0.9279 -0.1862 -0.1991
 7132SOL     OW22846   7.564   6.608   0.981  0.5189  0.3949 -0.6995
 7132SOL    HW122847   7.585   6.675   0.917 -0.2792  2.5335  1.1677
 7132SOL    HW222848   7.643   6.554   0.985  0.5574  0.1008 -3.4747
 7133SOL     OW22849   6.002   5.120   7.612 -0.1674 -0.2106 -0.4389
 7133SOL    HW122850   5.981   5.071   7.692 -0.8810 -0.4864 -0.7890
 7133SOL    HW222851   6.080   5.076   7.578 -0.0225 -0.2670 -0.0457
 7134SOL     OW22852   9.052   2.235   8.781 -0.0322 -0.1834  0.0984
 7134SOL    HW122853   9.139   2.254   8.746 -0.8016  0.5386 -1.5723
 7134SOL    HW222854   9.021   2.319   8.814 -0.0086 -0.4889  0.9102
 7135SOL     OW22855   6.749   3.085   8.196 -0.7272  0.0702  0.2193
 7135SOL    HW122856   6.730   3.037   8.116  4.4524 -0.3704 -1.1025
 7135SOL    HW222857   6.726   3.176   8.175 -1.6966 -0.3883 -0.8035
 7136SOL     OW22858   3.585   4.414   0.423 -0.0504  0.0951  0.3392
 7136SOL    HW122859   3.654   4.422   0.357 -0.8306 -1.9273 -0.8065
 7136SOL    HW222860   3.595   4.326   0.458 -1.3199  0.1943  0.9973
 7137SOL     OW22861   8.607   9.220   7.784  0.5243 -0.8002 -0.0602
 7137SOL    HW122862   8.604   9.190   7.875  0.7252 -0.4984  0.0463
 7137SOL    HW222863   8.660   9.300   7.786  2.4275 -1.9542 -0.7404
 7138SOL     OW22864   8.160   1.386   0.009 -0.1433  0.2320 -0.0796
 7138SOL    HW122865   8.118   1.469  -0.013  0.3761  0.2139 -1.1585
 7138SOL    HW222866   8.232   1.378  -0.052  0.6148 -0.4032  0.8673
 7139SOL     OW22867   2.410   2.627   4.468 -0.3679  0.6380 -0.1744
 7139SOL    HW122868   2.440   2.542   4.435 -0.0733  0.5981  0.1810
 7139SOL    HW222869   2.435   2.689   4.400 -0.0221  0.5188 -0.1631
 7140SOL     OW22870   3.307   9.063   8.562 -0.3028 -0.2259 -0.0312
 7140SOL    HW122871   3.311   9.027   8.473  1.6331  0.0106 -0.0771
 7140SOL    HW222872   3.304   9.158   8.550 -0.2219 -0.1982  0.1605
 7141SOL     OW22873   7.819   0.340   8.162  0.4847 -0.6206 -0.7664
 7141SOL    HW122874   7.862   0.255   8.170 -2.3827 -1.9954  1.6126
 7141SOL    HW222875   7.834   0.383   8.246  0.0170  0.2738 -1.1237
 7142SOL     OW22876   0.253   3.898   0.408 -1.2936 -0.9565  0.2101
 7142SOL    HW122877   0.278   3.989   0.395  1.4372 -1.6246  0.2443
 7142SOL    HW222878   0.218   3.870   0.324 -1.7685 -0.0087  0.0832
 7143SOL     OW22879   1.783   2.114   8.029  0.1301  0.3855 -0.3385
 7143SOL    HW122880   1.812   2.024   8.044  1.7753  0.6267 -1.7720
 7143SOL    HW222881   1.709   2.105   7.969  0.9759 -0.0115 -1.3690
 7144SOL     OW22882   0.526   3.158   5.219  0.1488 -0.1233  0.0872
 7144SOL    HW122883   0.544   3.233   5.277 -0.8038  1.0190 -1.0446
 7144SOL    HW222884   0.552   3.082   5.271  0.6383  0.9448  1.4911
 7145SOL     OW22885   5.120   1.624   1.281 -0.2145 -0.6289  0.0544
 7145SOL    HW122886   5.031   1.589   1.276 -0.7958  0.7293  0.2855
 7145SOL    HW222887   5.158   1.605   1.196 -0.4568 -1.8948  0.2173
 7146SOL     OW22888   9.191   7.340   3.651  0.1018 -0.0574 -0.4328
 7146SOL    HW122889   9.144   7.422   3.668  1.2882  0.1432  2.3824
 7146SOL    HW222890   9.145   7.275   3.703  2.2426 -0.0488  1.6090
 7147SOL     OW22891   8.295   6.598   7.774 -0.0681 -0.0304  0.8379
 7147SOL    HW122892   8.383   6.613   7.810  1.1121  1.0199 -2.1724
 7147SOL    HW222893   8.289   6.504   7.763  1.0765 -0.0461  0.2189
 7148SOL     OW22894   5.811   5.372   6.595  0.0539  0.3292  0.0595
 7148SOL    HW122895   5.861   5.313   6.652  0.6657  0.9775  0.2075
 7148SOL    HW222896   5.866   5.382   6.517 -0.0850  0.6412  0.0029
 7149SOL     OW22897   8.039   1.026   1.978  0.2773 -0.2722  0.1967
 7149SOL    HW122898   8.080   0.967   2.041  0.5598  1.4457  1.6725
 7149SOL    HW222899   8.093   1.105   1.979 -0.0706  0.0606 -1.7668
 7150SOL     OW22900   3.976   3.135   6.883  0.1709 -0.6371  0.4407
 7150SOL    HW122901   4.026   3.055   6.866 -0.4301 -0.8890 -0.2280
 7150SOL    HW222902   3.884   3.108   6.876 -0.0380  0.2045 -0.2930
 7151SOL     OW22903   9.028   0.845   8.504  0.2517 -0.2069 -0.0576
 7151SOL    HW122904   9.106   0.873   8.457 -0.9803  2.4512 -0.7056
 7151SOL    HW222905   9.003   0.762   8.463  1.3515  0.1330 -1.4751
 7152SOL     OW22906   0.735   5.489   6.687  0.2145 -0.2405 -0.1582
 7152SOL    HW122907   0.818   5.462   6.726  0.9800  2.4468  0.3201
 7152SOL    HW222908   0.754   5.499   6.594  0.5910  0.7483  0.0074
 7153SOL     OW22909   3.143   6.257   2.879 -0.9343  0.9464 -0.0309
 7153SOL    HW122910   3.171   6.202   2.953 -0.4242 -1.6688 -2.0119
 7153SOL    HW222911   3.213   6.322   2.870  1.2229 -1.3047 -0.7086
 7154SOL     OW22912   4.232   2.315   2.066 -0.0656 -0.0063 -0.7289
 7154SOL    HW122913   4.224   2.390   2.007 -1.6785  1.6354  1.4390
 7154SOL    HW222914   4.142   2.286   2.080  0.4163 -1.2628 -0.1609
 7155SOL     OW22915   7.606   5.957   5.283 -0.4598 -0.0589  0.5134
 7155SOL    HW122916   7.513   5.979   5.278 -0.6912 -1.2005 -1.5001
 7155SOL    HW222917   7.615   5.906   5.363 -1.6483 -0.2214  0.5588
 7156SOL     OW22918   6.125   9.028   0.356  0.0492  0.2823  0.5069
 7156SOL    HW122919   6.034   9.025   0.325 -0.2023 -0.1657  1.2593
 7156SOL    HW222920   6.164   9.100   0.308 -0.9416  1.0363  0.7879
 7157SOL     OW22921   3.537   8.708   8.118 -0.2935  0.1488  0.0778
 7157SOL    HW122922   3.468   8.674   8.175  0.8771 -1.6280  0.5046
 7157SOL    HW222923   3.614   8.714   8.175  0.8053 -1.3004 -1.1905
 7158SOL     OW22924   8.301   1.490   0.841 -0.0861  0.0760  0.3399
 7158SOL    HW122925   8.276   1.455   0.756  1.4473  2.0139 -1.0326
 7158SOL    HW222926   8.245   1.567   0.852  1.2432  1.1468 -0.0705
 7159SOL     OW22927   0.401   6.236   5.862  0.6756 -0.0527  0.6066
 7159SOL    HW122928   0.339   6.308   5.871  1.1014  0.8634 -2.5729
 7159SOL    HW222929   0.347   6.161   5.837  0.7029  0.7458 -2.1690
 7160SOL     OW22930   0.882   0.658   8.904 -0.0797 -0.2916  0.4244
 7160SOL    HW122931   0.972   0.638   8.876 -0.0249 -0.5405  0.7624
 7160SOL    HW222932   0.876   0.753   8.898  0.5745 -0.1595  1.4357
 7161SOL     OW22933   7.215   5.494   0.754  0.0124 -0.7735 -0.0028
 7161SOL    HW122934   7.147   5.444   0.797 -1.3255 -0.4029 -1.6026
 7161SOL    HW222935   7.289   5.433   0.746 -0.0890 -1.1829  1.7070
 7162SOL     OW22936   2.682   1.807   4.128 -0.1782  0.4859 -0.3643
 7162SOL    HW122937   2.744   1.735   4.138  0.0336  0.7696  0.4770
 7162SOL    HW222938   2.737   1.886   4.129 -0.6286  0.8524  2.0784
 7163SOL     OW22939   0.283   8.269   8.584 -0.2460  0.0185 -0.5627
 7163SOL    HW122940   0.273   8.326   8.508 -0.3195 -0.4594 -0.9172
 7163SOL    HW222941   0.235   8.313   8.654 -1.0650 -0.0603 -1.0733
 7164SOL     OW22942   6.977   1.926   3.130  0.3483 -0.3040 -0.3699
 7164SOL    HW122943   6.912   1.981   3.086  0.6060 -0.3514 -0.8249
 7164SOL    HW222944   7.012   1.980   3.200  0.7244  0.1823 -0.9193
 7165SOL     OW22945   2.994   4.099   7.106 -0.1039 -0.6038 -0.1253
 7165SOL    HW122946   2.908   4.136   7.087  0.6179  2.3872  1.7535
 7165SOL    HW222947   3.027   4.071   7.021 -2.1015  0.0032 -1.1760
 7166SOL     OW22948   5.443   2.120   5.528  0.7911  0.1516 -0.0987
 7166SOL    HW122949   5.385   2.098   5.455 -0.3767  0.8535  0.5868
 7166SOL    HW222950   5.384   2.145   5.599  1.9211  0.1200  0.8844
 7167SOL     OW22951   1.483   5.002   8.493 -0.5862 -0.1931 -0.3858
 7167SOL    HW122952   1.529   5.064   8.437  0.3882 -1.7772 -1.4144
 7167SOL    HW222953   1.518   5.018   8.580 -0.2094  0.5635 -0.6648
 7168SOL     OW22954   5.929   6.000   6.214 -0.3024  0.2317  0.1210
 7168SOL    HW122955   6.008   5.963   6.251 -1.1528 -0.3127  1.4684
 7168SOL    HW222956   5.926   5.968   6.124  0.7434 -0.1343  0.2158
 7169SOL     OW22957   7.581   3.560   6.611 -0.1846 -0.0084  0.1874
 7169SOL    HW122958   7.603   3.529   6.698 -3.2886 -2.8888  0.1332
 7169SOL    HW222959   7.505   3.618   6.624 -0.1865  0.1703 -0.5345
 7170SOL     OW22960   0.050   4.345   3.778 -0.4671 -0.2033  0.1366
 7170SOL    HW122961   0.058   4.388   3.863  1.0999 -2.0437  0.9878
 7170SOL    HW222962  -0.031   4.296   3.784 -0.5199 -0.0835  0.4542
 7171SOL     OW22963   7.022   3.337   2.818 -0.2731  0.6927  0.5959
 7171SOL    HW122964   7.008   3.396   2.743 -1.9174  0.1223  0.4084
 7171SOL    HW222965   7.058   3.394   2.886 -1.7718  1.9516  0.4104
 7172SOL     OW22966   4.144   2.174   3.389  0.4429  0.0017  0.3573
 7172SOL    HW122967   4.237   2.173   3.366  1.0387 -1.4861  2.5037
 7172SOL    HW222968   4.141   2.139   3.478 -2.0349  1.6023  0.9946
 7173SOL     OW22969   0.881   1.785   5.516 -1.0913  0.1621  0.4328
 7173SOL    HW122970   0.853   1.774   5.607  0.9109 -1.4546  0.9369
 7173SOL    HW222971   0.896   1.696   5.484  0.9873  0.7744 -0.5143
 7174SOL     OW22972   8.512   6.789   7.959  0.2181 -0.6462 -0.1045
 7174SOL    HW122973   8.528   6.721   8.025  1.4237 -0.5231 -0.2397
 7174SOL    HW222974   8.571   6.766   7.887 -1.2565 -0.9125 -1.2547
 7175SOL     OW22975   6.364   3.216   8.655  0.6674  0.3830  0.0288
 7175SOL    HW122976   6.347   3.163   8.733 -1.8561  2.4334  1.0250
 7175SOL    HW222977   6.307   3.177   8.588 -1.0591  1.5744  0.7151
 7176SOL     OW22978   6.820   3.315   7.080  0.1327 -0.1647  0.3127
 7176SOL    HW122979   6.767   3.327   7.001 -0.5627  0.0936  0.8102
 7176SOL    HW222980   6.818   3.221   7.097  1.6257 -0.4492 -0.8764
 7177SOL     OW22981   7.527   5.320   0.422 -0.9936 -0.5612  0.4054
 7177SOL    HW122982   7.453   5.308   0.482 -0.7999  0.2682  0.8259
 7177SOL    HW222983   7.547   5.414   0.427 -0.2570 -0.6829 -0.1136
 7178SOL     OW22984   5.767   1.327   6.491  0.2201  0.4515 -0.2677
 7178SOL    HW122985   5.727   1.366   6.413  1.8547  0.0338 -1.3598
 7178SOL    HW222986   5.860   1.348   6.484  0.8980 -2.0582  0.0089
 7179SOL     OW22987   3.785   5.285   2.474  0.2398 -0.4410 -0.3671
 7179SOL    HW122988   3.796   5.253   2.385  0.0335 -2.8253  0.3882
 7179SOL    HW222989   3.871   5.318   2.499  0.4705 -0.3894 -1.2048
 7180SOL     OW22990   7.647   8.107   6.617  0.2148  0.1878  1.0037
 7180SOL    HW122991   7.646   8.168   6.692  1.5782 -1.1975  2.2182
 7180SOL    HW222992   7.726   8.130   6.569 -0.8422  1.3098 -0.2845
 7181SOL     OW22993   2.440   0.069   2.990  0.3182  0.3080 -0.2037
 7181SOL    HW122994   2.444   0.111   2.904  0.2895  0.3428 -0.1883
 7181SOL    HW222995   2.528   0.080   3.026  0.2652  0.5001 -0.1318
 7182SOL     OW22996   8.393   6.091   3.258 -0.3148  0.6679  0.5985
 7182SOL    HW122997   8.439   6.076   3.340 -1.2041 -1.6043  0.7432
 7182SOL    HW222998   8.337   6.166   3.275  0.8422  1.3731  1.4546
 7183SOL     OW22999   6.649   2.611   2.513 -0.4023 -0.1946  0.7660
 7183SOL    HW123000   6.697   2.641   2.591  0.9950  0.4537 -0.3066
 7183SOL    HW223001   6.715   2.604   2.445 -1.5354 -1.1482 -0.2878
 7184SOL     OW23002   8.645   8.423   3.226 -0.2623  0.6411  0.2857
 7184SOL    HW123003   8.652   8.374   3.308  0.7372 -0.5371 -0.4698
 7184SOL    HW223004   8.564   8.390   3.186 -0.7828  1.2599  0.8025
 7185SOL     OW23005   6.784   2.742   7.053 -0.1355  0.3468 -0.1619
 7185SOL    HW123006   6.792   2.666   6.996 -0.2577  0.4283 -0.2870
 7185SOL    HW223007   6.776   2.705   7.141  0.8272  0.2352 -0.1072
 7186SOL     OW23008   1.982   1.602   0.899 -0.0519 -0.6547  0.2553
 7186SOL    HW123009   1.943   1.689   0.904 -1.6629 -1.3188 -0.2533
 7186SOL    HW223010   1.929   1.548   0.956 -0.4195 -1.7703 -1.0758
 7187SOL     OW23011   0.395   8.152   9.227  0.1269 -0.0963 -0.1911
 7187SOL    HW123012   0.373   8.064   9.254 -0.9228  0.9758  2.8123
 7187SOL    HW223013   0.311   8.197   9.218  0.6290  0.6069 -1.8077
 7188SOL     OW23014   2.254   4.583   6.026 -0.0839 -0.7046  0.2896
 7188SOL    HW123015   2.302   4.582   5.943 -0.2593 -1.0148  0.1929
 7188SOL    HW223016   2.170   4.541   6.006 -1.1883  1.4972 -0.0347
 7189SOL     OW23017   5.917   7.169   0.980 -0.0360  0.0310  0.1372
 7189SOL    HW123018   5.825   7.155   0.962 -0.1810  1.0858 -0.0446
 7189SOL    HW223019   5.921   7.192   1.073 -0.1450  1.3126 -0.1514
 7190SOL     OW23020   3.204   0.382   1.859  0.3211 -0.0143  0.3920
 7190SOL    HW123021   3.126   0.348   1.902 -0.7014 -0.4663 -1.6874
 7190SOL    HW223022   3.224   0.463   1.905 -0.7679 -0.4064  1.5967
 7191SOL     OW23023   7.292   1.326   2.209  0.1055  0.1401  0.0935
 7191SOL    HW123024   7.318   1.392   2.144 -1.7559  1.6687  0.8119
 7191SOL    HW223025   7.314   1.366   2.293 -0.2553 -0.5216  0.5075
 7192SOL     OW23026   4.926   4.275   6.023  0.2964 -0.3282  0.1795
 7192SOL    HW123027   4.991   4.211   6.051  0.4448  0.6088  2.1124
 7192SOL    HW223028   4.964   4.360   6.045  0.0028  0.4821 -2.1248
 7193SOL     OW23029   7.821   6.762   0.183  0.1379  0.6261  0.2013
 7193SOL    HW123030   7.839   6.753   0.089  1.3031  1.1077  0.3527
 7193SOL    HW223031   7.753   6.829   0.188  0.7585  1.3248 -0.2817
 7194SOL     OW23032   5.879   7.411   3.912  0.1174  0.3794  0.2644
 7194SOL    HW123033   5.799   7.455   3.883 -0.5357  0.5198  2.1135
 7194SOL    HW223034   5.946   7.436   3.848 -1.1621  0.7792 -0.9508
 7195SOL     OW23035   3.560   4.869   1.891  0.6079  0.0769  0.1483
 7195SOL    HW123036   3.530   4.878   1.982 -0.3902  0.3861 -0.2042
 7195SOL    HW223037   3.524   4.945   1.846 -1.3989 -1.5250 -1.1553
 7196SOL     OW23038   4.535   4.338   3.836 -0.0134  0.2069 -0.0865
 7196SOL    HW123039   4.611   4.361   3.889  0.2021  1.5235 -0.9543
 7196SOL    HW223040   4.556   4.251   3.801  0.6540  0.1453  0.4380
 7197SOL     OW23041   6.346   2.166   3.834 -0.4267 -0.0981  0.0347
 7197SOL    HW123042   6.325   2.246   3.785  0.3335 -1.3632 -2.5400
 7197SOL    HW223043   6.417   2.192   3.892  0.1610  1.0012 -1.1133
 7198SOL     OW23044   1.273   4.086   3.426 -0.1333  0.1147 -0.2753
 7198SOL    HW123045   1.346   4.131   3.468  0.8819 -1.5091 -0.2115
 7198SOL    HW223046   1.297   4.084   3.333  0.1716 -0.9097 -0.1753
 7199SOL     OW23047   6.227   7.208   2.328 -0.4322 -0.2443 -0.0444
 7199SOL    HW123048   6.272   7.204   2.412 -0.6815  0.1618  0.1112
 7199SOL    HW223049   6.291   7.174   2.265 -0.8653 -2.2282  0.5393
 7200SOL     OW23050   5.860   8.370   5.106 -0.2872  1.0258 -0.2870
 7200SOL    HW123051   5.830   8.303   5.044  0.7271  1.9253 -1.8242
 7200SOL    HW223052   5.806   8.446   5.087 -0.7707  0.9677  0.7849
 7201SOL     OW23053   3.556   4.326   1.496  0.2099  1.0706  0.6135
 7201SOL    HW123054   3.564   4.420   1.478 -1.9567  1.0389 -0.8000
 7201SOL    HW223055   3.493   4.321   1.567 -0.6981  0.6457 -0.2114
 7202SOL     OW23056   2.711   1.684   2.585  0.4988  0.2770  0.5967
 7202SOL    HW123057   2.774   1.736   2.535 -0.4824  0.8036 -0.1223
 7202SOL    HW223058   2.626   1.707   2.548  0.0441 -2.0850 -0.0026
 7203SOL     OW23059   4.204   2.132   9.058 -0.3782  0.0016 -0.1250
 7203SOL    HW123060   4.259   2.208   9.040  0.4851 -0.2407  1.3193
 7203SOL    HW223061   4.225   2.070   8.988 -0.3648  0.6908 -0.7530
 7204SOL     OW23062   9.274   8.506   0.012  0.4321  0.2243  0.3511
 7204SOL    HW123063   9.245   8.471  -0.072  1.2015  0.3321  0.0326
 7204SOL    HW223064   9.246   8.598   0.010 -0.0724  0.0716  0.4609
 7205SOL     OW23065   9.136   6.084   5.488  0.2847 -0.2108  0.2717
 7205SOL    HW123066   9.096   6.027   5.554 -0.0798  1.2391  1.3470
 7205SOL    HW223067   9.192   6.143   5.538  0.6513  0.3912 -0.8115
 7206SOL     OW23068   5.069   7.087   5.234 -0.0927 -0.8780 -0.5200
 7206SOL    HW123069   5.089   7.086   5.140  0.0958  1.3123 -0.5494
 7206SOL    HW223070   5.141   7.136   5.273 -1.7165  0.9489  0.3301
 7207SOL     OW23071   2.324   8.412   7.209  0.0238 -0.1154  0.3721
 7207SOL    HW123072   2.298   8.497   7.246 -0.2342 -0.1723  0.3265
 7207SOL    HW223073   2.400   8.432   7.155 -0.8117  0.3097 -0.6691
 7208SOL     OW23074   8.996   3.725   1.146 -0.1043  0.1864 -0.1165
 7208SOL    HW123075   9.043   3.800   1.110  3.0651 -0.7747  1.6250
 7208SOL    HW223076   8.964   3.756   1.231  1.7609 -0.5300  0.8897
 7209SOL     OW23077   0.012   5.763   3.442 -0.3722  0.1045  0.1128
 7209SOL    HW123078  -0.036   5.707   3.380 -0.8020 -0.4886  0.9666
 7209SOL    HW223079  -0.048   5.776   3.515  0.5400 -0.1535  0.9371
 7210SOL     OW23080   0.143   1.261   0.549  0.4775  0.4363 -0.8190
 7210SOL    HW123081   0.186   1.195   0.494  0.3751 -0.2445 -0.1000
 7210SOL    HW223082   0.200   1.270   0.625  0.1337  0.6632 -0.5838
 7211SOL     OW23083   2.567   4.341   5.648  0.1132  0.0668  0.1941
 7211SOL    HW123084   2.641   4.353   5.589 -0.0821  2.0158  0.2831
 7211SOL    HW223085   2.502   4.292   5.597  0.0202  1.5562 -1.1664
 7212SOL     OW23086   7.623   6.655   4.595  0.5982 -0.4330  1.4954
 7212SOL    HW123087   7.707   6.612   4.606  0.7267 -0.6597 -0.1327
 7212SOL    HW223088   7.561   6.599   4.641  0.9340 -1.8166  0.3386
 7213SOL     OW23089   5.436   9.272   1.983  0.0690  0.7529 -0.0522
 7213SOL    HW123090   5.349   9.240   2.007  1.3357 -1.8445  1.5022
 7213SOL    HW223091   5.453   9.233   1.897  0.1483  0.2002  0.2051
 7214SOL     OW23092   2.582   7.076   3.876 -0.2047 -0.2690  0.7127
 7214SOL    HW123093   2.621   6.991   3.897  2.9685  0.7186 -0.4843
 7214SOL    HW223094   2.522   7.058   3.804 -0.1133 -1.5899  0.9429
 7215SOL     OW23095   1.204   6.903   8.693 -0.0313  0.3433  0.9404
 7215SOL    HW123096   1.284   6.921   8.644 -0.1670  0.4066  0.7419
 7215SOL    HW223097   1.235   6.876   8.780  0.3134 -2.1926  0.0988
 7216SOL     OW23098   0.034   5.374   8.568 -0.4183 -0.5911 -0.3176
 7216SOL    HW123099  -0.053   5.351   8.535 -0.2063 -0.6870 -0.8075
 7216SOL    HW223100   0.022   5.377   8.663 -0.9048 -0.8245 -0.3651
 7217SOL     OW23101   0.561   0.366   7.837 -0.0356  0.5927 -0.5392
 7217SOL    HW123102   0.568   0.403   7.925 -0.0323  0.1063 -0.3309
 7217SOL    HW223103   0.530   0.276   7.851 -1.5302  0.9875 -1.1265
 7218SOL     OW23104   2.002   4.750   6.038  0.0749 -0.3176  0.6993
 7218SOL    HW123105   1.990   4.845   6.046 -0.3592 -0.3237  0.1466
 7218SOL    HW223106   2.002   4.734   5.944 -0.5316 -0.9512  0.8033
 7219SOL     OW23107   7.548   1.104   1.371  0.2577  0.3674  0.6072
 7219SOL    HW123108   7.603   1.101   1.449  0.2078 -1.5236  0.6066
 7219SOL    HW223109   7.482   1.036   1.385 -0.2368  0.5440 -0.7274
 7220SOL     OW23110   1.690   6.561   2.969 -0.3167 -0.1779  0.3564
 7220SOL    HW123111   1.728   6.481   3.004 -0.0065 -0.3718 -0.4095
 7220SOL    HW223112   1.765   6.614   2.943 -0.5371 -0.0260  0.0225
 7221SOL     OW23113   7.942   3.252   1.930  0.4401  0.2148 -0.6172
 7221SOL    HW123114   7.854   3.288   1.936  0.4261  0.0175  0.6471
 7221SOL    HW223115   7.972   3.276   1.843 -1.0396 -0.1186 -1.2458
 7222SOL     OW23116   2.878   1.329   4.559 -0.6633  0.2196  0.3415
 7222SOL    HW123117   2.793   1.289   4.543 -0.3330 -0.2025 -0.4207
 7222SOL    HW223118   2.921   1.271   4.622 -1.0339  0.5779  0.9349
 7223SOL     OW23119   8.538   5.379   0.002 -0.5525  0.3751 -0.3571
 7223SOL    HW123120   8.467   5.412  -0.053  0.0109 -2.3957 -2.9712
 7223SOL    HW223121   8.618   5.399  -0.047  0.4000  1.4689  1.4965
 7224SOL     OW23122   5.408   8.933   7.119 -0.3954 -0.5061  0.3308
 7224SOL    HW123123   5.386   8.916   7.028 -1.3931 -1.3630  0.7073
 7224SOL    HW223124   5.478   8.871   7.139  0.0800 -0.0613  0.0423
 7225SOL     OW23125   6.288   2.079   4.476 -0.0454 -0.0928 -0.1316
 7225SOL    HW123126   6.251   2.162   4.506  0.1109  0.0919 -0.4398
 7225SOL    HW223127   6.349   2.054   4.546  0.8435  0.6921 -0.6011
 7226SOL     OW23128   5.173   7.790   1.795  0.0572  0.2120 -0.0429
 7226SOL    HW123129   5.235   7.850   1.755 -0.3760  1.4048  0.9900
 7226SOL    HW223130   5.200   7.703   1.765  1.4324  0.8108 -0.6210
 7227SOL     OW23131   2.205   2.752   2.929 -0.1540 -0.1490  0.3569
 7227SOL    HW123132   2.137   2.802   2.883  0.1731  1.4156  1.5244
 7227SOL    HW223133   2.163   2.669   2.949 -2.0146  1.0406  1.6865
 7228SOL     OW23134   4.491   3.967   8.668 -0.2637  0.1933  0.3914
 7228SOL    HW123135   4.444   3.884   8.662 -0.9300  0.3603  2.3990
 7228SOL    HW223136   4.508   3.992   8.578 -5.6499  0.9617 -0.7819
 7229SOL     OW23137   1.346   2.247   7.893 -0.0001 -0.5764 -0.1675
 7229SOL    HW123138   1.333   2.286   7.979  1.4651 -0.9555  0.2516
 7229SOL    HW223139   1.261   2.255   7.850 -0.0190  2.3682  0.1668
 7230SOL     OW23140   5.115   7.728   6.314  0.3753  0.4193 -0.4280
 7230SOL    HW123141   5.021   7.731   6.332  0.2611  0.8424 -1.0724
 7230SOL    HW223142   5.132   7.637   6.288  0.1755  0.3039 -0.1562
 7231SOL     OW23143   4.731   1.941   7.309  1.1989  0.1392 -0.0505
 7231SOL    HW123144   4.777   1.912   7.388  0.0659  0.8368  0.9070
 7231SOL    HW223145   4.638   1.938   7.333  0.8741  1.1643 -1.0735
 7232SOL     OW23146   3.859   1.259   8.751 -0.2302 -0.1948  0.4294
 7232SOL    HW123147   3.859   1.185   8.812 -0.4058 -0.0152  0.6451
 7232SOL    HW223148   3.767   1.285   8.745 -0.0603  0.5427  0.9960
 7233SOL     OW23149   3.845   5.468   4.398  0.5023  0.4624 -0.0672
 7233SOL    HW123150   3.884   5.533   4.340 -0.2481  0.5130 -0.5336
 7233SOL    HW223151   3.760   5.505   4.422  0.3515 -0.0471  0.2061
 7234SOL     OW23152   4.466   7.942   7.810  0.7833  0.3842 -0.0009
 7234SOL    HW123153   4.527   8.013   7.789  1.5509 -0.0973  0.5523
 7234SOL    HW223154   4.515   7.884   7.868  0.1311 -0.5441 -0.3418
 7235SOL     OW23155   3.096   0.781   1.448 -0.2969 -0.3445  0.1127
 7235SOL    HW123156   3.011   0.798   1.409 -0.7742  0.3710  1.3966
 7235SOL    HW223157   3.130   0.706   1.399 -0.8180  0.5222 -1.6501
 7236SOL     OW23158   5.642   6.787   8.961  0.2652  0.2135  0.2217
 7236SOL    HW123159   5.697   6.732   9.016  0.1245 -0.7136 -0.5455
 7236SOL    HW223160   5.704   6.837   8.908  0.3978  0.9933  1.0851
 7237SOL     OW23161   0.610   8.981   1.765  0.8629  0.6194  0.0178
 7237SOL    HW123162   0.594   9.018   1.852  0.7608  1.0694 -0.1882
 7237SOL    HW223163   0.619   8.887   1.780  1.1320  0.7269  0.5532
 7238SOL     OW23164   2.976   8.428   3.818  0.5378  0.0325 -0.2176
 7238SOL    HW123165   2.889   8.452   3.851  0.8107  2.1121 -0.8452
 7238SOL    HW223166   2.995   8.344   3.859 -2.4539 -1.3414 -1.3136
 7239SOL     OW23167   6.542   2.321   1.051  0.4418  0.6368 -0.4205
 7239SOL    HW123168   6.628   2.281   1.065 -1.1377 -2.4744  1.3570
 7239SOL    HW223169   6.515   2.350   1.138 -1.0380 -0.1298 -0.5954
 7240SOL     OW23170   1.540   6.776   3.528  0.6475  0.0957 -0.1090
 7240SOL    HW123171   1.593   6.855   3.515  2.1343  0.2978  4.9037
 7240SOL    HW223172   1.454   6.809   3.553  0.3287  0.0062 -1.0766
 7241SOL     OW23173   4.561   7.847   1.316  0.3457  0.3222  0.1329
 7241SOL    HW123174   4.609   7.780   1.365  0.6902  0.6219  0.2099
 7241SOL    HW223175   4.603   7.929   1.341  0.2841  0.5131 -0.3887
 7242SOL     OW23176   4.443   0.171   8.632 -0.1086 -0.3154  0.1402
 7242SOL    HW123177   4.379   0.135   8.693 -1.5631 -0.5436 -1.4656
 7242SOL    HW223178   4.426   0.127   8.549  0.8963  0.9702 -0.8017
 7243SOL     OW23179   4.795   3.605   3.069 -0.4896 -0.1641 -0.0300
 7243SOL    HW123180   4.833   3.612   3.157  0.0945  0.8006 -0.3472
 7243SOL    HW223181   4.806   3.692   3.031  0.7575 -0.9816 -1.6539
 7244SOL     OW23182   7.638   6.193   6.351  0.1306  0.0116  0.3806
 7244SOL    HW123183   7.611   6.106   6.380 -0.2893 -0.5026 -1.4639
 7244SOL    HW223184   7.599   6.204   6.265  1.0996  1.5833  0.0877
 7245SOL     OW23185   8.722   7.575   5.589 -0.5438 -0.0926  0.9591
 7245SOL    HW123186   8.777   7.551   5.663  0.7815  1.9879  0.7421
 7245SOL    HW223187   8.691   7.663   5.610 -2.6573 -0.6410  0.3901
 7246SOL     OW23188   7.138   1.838   6.184  0.4932  0.0164 -0.1532
 7246SOL    HW123189   7.082   1.861   6.258 -0.5689 -0.9300 -0.6323
 7246SOL    HW223190   7.135   1.742   6.182  0.6322  0.0340 -1.3275
 7247SOL     OW23191   6.759   2.050   3.015 -0.4555  0.2770  0.3281
 7247SOL    HW123192   6.770   2.108   2.940 -0.4605 -0.8502 -0.5749
 7247SOL    HW223193   6.693   2.094   3.070  0.4269  1.6985  0.3031
 7248SOL     OW23194   5.311   5.565   0.238  0.4006 -0.1133  0.0791
 7248SOL    HW123195   5.332   5.511   0.314 -0.0505  2.0423  1.8574
 7248SOL    HW223196   5.286   5.503   0.170  3.0051 -2.2612  0.9278
 7249SOL     OW23197   1.623   5.218   4.442 -0.3298  0.1528 -0.1285
 7249SOL    HW123198   1.718   5.207   4.447 -0.4548 -1.6206 -0.9323
 7249SOL    HW223199   1.589   5.156   4.506 -0.9767 -0.6286 -1.1927
 7250SOL     OW23200   7.993   7.973   6.120  0.4926 -0.0534 -0.2251
 7250SOL    HW123201   7.989   7.948   6.212  1.3992 -0.6704 -0.3432
 7250SOL    HW223202   7.934   7.912   6.075  0.6630 -0.2600 -0.1644
 7251SOL     OW23203   4.602   1.994   5.741 -0.3958  0.5384 -0.1027
 7251SOL    HW123204   4.694   2.019   5.754 -0.3464  0.2109  0.1993
 7251SOL    HW223205   4.560   2.073   5.708  0.1472  0.4798 -0.9609
 7252SOL     OW23206   6.497   6.620   5.734 -0.0199 -0.2738 -0.0571
 7252SOL    HW123207   6.485   6.546   5.674  0.5578  0.4116 -1.0528
 7252SOL    HW223208   6.411   6.662   5.738  0.0279 -0.0868 -0.7530
 7253SOL     OW23209   3.825   9.189   5.413 -0.2764  0.4096  0.0471
 7253SOL    HW123210   3.809   9.171   5.321 -0.1377  0.9660 -0.0909
 7253SOL    HW223211   3.913   9.228   5.415  0.8993 -2.0878  0.7135
 7254SOL     OW23212   7.543   0.713   2.973 -0.3461 -0.6208 -0.0183
 7254SOL    HW123213   7.513   0.803   2.985 -0.5764 -0.7249  0.1910
 7254SOL    HW223214   7.465   0.660   2.985 -0.2359 -0.8419 -0.2714
 7255SOL     OW23215   9.202   4.849   3.719 -0.6085 -0.1368  0.1721
 7255SOL    HW123216   9.234   4.774   3.670 -0.1889 -0.5072  0.9903
 7255SOL    HW223217   9.170   4.910   3.652 -0.8284 -0.9786 -0.5041
 7256SOL     OW23218   3.739   6.515   0.265 -0.2419  0.2153 -0.3065
 7256SOL    HW123219   3.783   6.577   0.324  0.2257 -0.4710  0.0732
 7256SOL    HW223220   3.701   6.571   0.197  0.7868  0.8756 -0.3691
 7257SOL     OW23221   3.196   4.224   1.679  0.5470  0.7349 -0.3392
 7257SOL    HW123222   3.142   4.229   1.757  1.2242  0.2656  0.1789
 7257SOL    HW223223   3.155   4.155   1.626  0.1929  0.9228 -0.3106
 7258SOL     OW23224   4.313   2.789   9.116  0.2937  0.2472  0.3679
 7258SOL    HW123225   4.294   2.874   9.155 -0.4320 -0.2366  1.0654
 7258SOL    HW223226   4.261   2.726   9.166 -0.7172 -0.3838 -1.3890
 7259SOL     OW23227   2.427   8.136   7.126 -0.1584  0.6069 -0.2684
 7259SOL    HW123228   2.390   8.095   7.205 -2.1981  0.2032 -1.3712
 7259SOL    HW223229   2.352   8.180   7.085  0.7034  0.2480 -2.3189
 7260SOL     OW23230   2.253   3.145   0.634  0.1659 -0.3450  0.2124
 7260SOL    HW123231   2.319   3.172   0.698  0.7364 -1.4060  0.0982
 7260SOL    HW223232   2.170   3.168   0.675  0.5392 -0.6301  1.1670
 7261SOL     OW23233   3.108   3.263   7.082 -0.2322  0.3637  0.0022
 7261SOL    HW123234   3.066   3.183   7.051  0.5046  0.3334 -0.9678
 7261SOL    HW223235   3.108   3.321   7.006  1.1326  0.4909  0.0687
 7262SOL     OW23236   2.320   0.584   4.540  0.1506 -0.7427  0.1402
 7262SOL    HW123237   2.393   0.626   4.496 -0.0752  1.0164  1.3051
 7262SOL    HW223238   2.245   0.598   4.482  0.1953  0.0230  0.2516
 7263SOL     OW23239   4.493   0.857   1.520  0.5263  0.0949 -0.7872
 7263SOL    HW123240   4.475   0.834   1.611 -1.6697  0.2401 -1.1360
 7263SOL    HW223241   4.544   0.783   1.486  2.7128  0.7132  0.9044
 7264SOL     OW23242   7.572   0.896   9.154 -0.4725 -0.4667 -0.2676
 7264SOL    HW123243   7.537   0.959   9.091  0.9855  1.0209  0.3542
 7264SOL    HW223244   7.494   0.854   9.191 -1.4794  0.7804 -0.8809
 7265SOL     OW23245   5.772   8.144   6.896 -0.2548 -0.4285  0.3153
 7265SOL    HW123246   5.699   8.137   6.835 -0.0722 -0.2655  0.0787
 7265SOL    HW223247   5.755   8.076   6.962 -0.9209 -0.0217  0.5735
 7266SOL     OW23248   3.284   0.958   4.015 -0.2017  0.6476  0.4569
 7266SOL    HW123249   3.260   0.917   4.099 -0.1650  0.3672  0.3313
 7266SOL    HW223250   3.200   0.973   3.971 -0.1468 -0.6513 -0.1325
 7267SOL     OW23251   6.847   2.998   5.608  0.2952  0.1831 -0.0203
 7267SOL    HW123252   6.870   2.973   5.698 -0.6235  2.1118  0.8375
 7267SOL    HW223253   6.752   2.988   5.605  0.1102  1.7160 -0.1819
 7268SOL     OW23254   0.135   8.196   4.858  0.0549 -0.4043 -0.3118
 7268SOL    HW123255   0.211   8.204   4.915 -0.2935  1.9552 -0.0819
 7268SOL    HW223256   0.127   8.102   4.842  1.9650 -0.8615  1.0504
 7269SOL     OW23257   6.032   5.510   8.946  0.0432 -0.1636  0.1075
 7269SOL    HW123258   5.942   5.522   8.976 -0.0169 -0.7736  0.1811
 7269SOL    HW223259   6.079   5.479   9.023  0.5490  1.1129  0.3373
 7270SOL     OW23260   7.175   3.160   5.853 -0.7431  0.4290  0.0144
 7270SOL    HW123261   7.102   3.215   5.823 -1.5073  0.0842  1.1644
 7270SOL    HW223262   7.143   3.070   5.842 -0.9291  0.2907  1.5133
 7271SOL     OW23263   2.397   7.050   1.141  0.0689 -0.1662 -0.4131
 7271SOL    HW123264   2.453   7.036   1.064 -1.2726 -1.0333 -1.2710
 7271SOL    HW223265   2.374   7.143   1.137 -0.4285 -0.3164 -1.4034
 7272SOL     OW23266   1.484   2.242   5.104 -0.3981  0.3008 -0.4416
 7272SOL    HW123267   1.427   2.315   5.080  0.3369  0.8936 -0.4058
 7272SOL    HW223268   1.542   2.231   5.029  1.4573  1.7150  0.6978
 7273SOL     OW23269   4.489   2.368   8.871  0.2251 -0.5657  0.2435
 7273SOL    HW123270   4.547   2.443   8.885  0.7646 -0.3471 -2.5432
 7273SOL    HW223271   4.402   2.399   8.898  0.5874  0.8004 -0.0989
 7274SOL     OW23272   0.827   5.734   0.132 -0.2939  0.0148 -0.2409
 7274SOL    HW123273   0.796   5.778   0.053  0.4987  0.2269 -0.4430
 7274SOL    HW223274   0.908   5.690   0.105 -1.2297 -1.8718 -0.1324
 7275SOL     OW23275   3.332   2.371   8.373 -0.1845  0.0052  0.0806
 7275SOL    HW123276   3.409   2.318   8.351 -1.3841 -1.3717 -1.0215
 7275SOL    HW223277   3.363   2.461   8.368  1.7977 -0.5118  1.4664
 7276SOL     OW23278   2.326   8.065   0.116 -0.8938 -0.0662 -0.1121
 7276SOL    HW123279   2.252   8.123   0.100  0.6021  1.9809 -0.0856
 7276SOL    HW223280   2.294   7.977   0.093 -2.0918  1.2050 -4.2951
 7277SOL     OW23281   3.481   5.274   1.842 -0.2554 -0.3077 -0.2148
 7277SOL    HW123282   3.403   5.219   1.834 -0.1073 -0.4630 -0.6305
 7277SOL    HW223283   3.543   5.236   1.781 -0.8111  1.4666 -1.9864
 7278SOL     OW23284   3.397   2.265   6.269  0.4349  0.5586  0.1346
 7278SOL    HW123285   3.307   2.241   6.290 -0.0836  1.6965 -0.6813
 7278SOL    HW223286   3.426   2.198   6.208  0.1466  0.2023  0.3804
 7279SOL     OW23287   4.498   0.345   2.862  0.3415  0.0880  0.1447
 7279SOL    HW123288   4.512   0.377   2.773  0.8122 -0.6759 -0.0693
 7279SOL    HW223289   4.416   0.295   2.857  1.1262 -1.2289 -0.2432
 7280SOL     OW23290   4.599   3.096   3.738 -0.1076 -0.0948 -0.1521
 7280SOL    HW123291   4.561   3.035   3.674  0.4379  0.2465 -0.8125
 7280SOL    HW223292   4.625   3.172   3.686 -0.1051  0.3960  0.5585
 7281SOL     OW23293   5.296   4.320   6.739  0.0027  0.1715  0.5984
 7281SOL    HW123294   5.339   4.247   6.694  1.8635  1.0272  0.8865
 7281SOL    HW223295   5.208   4.288   6.758  0.7727 -2.0042  0.7442
 7282SOL     OW23296   9.257   7.680   7.061  0.1957 -0.8483 -0.5026
 7282SOL    HW123297   9.188   7.649   7.119 -2.4709  1.0804 -2.4042
 7282SOL    HW223298   9.257   7.618   6.988  0.9419 -1.1836 -0.2274
 7283SOL     OW23299   1.424   8.721   5.567 -0.3857  0.6829 -0.4823
 7283SOL    HW123300   1.410   8.738   5.660 -1.0015 -2.6891  0.1582
 7283SOL    HW223301   1.337   8.731   5.528 -1.1744 -2.4822  0.2418
 7284SOL     OW23302   2.016   3.887   8.787  0.5513  0.1166 -0.3570
 7284SOL    HW123303   2.039   3.804   8.829 -0.0488  0.1594  0.0739
 7284SOL    HW223304   1.921   3.888   8.788  0.3297 -1.2490 -4.4230
 7285SOL     OW23305   4.990   2.300   6.792 -0.4969  0.3043  0.3871
 7285SOL    HW123306   4.990   2.216   6.837 -1.7073 -0.2516 -0.6031
 7285SOL    HW223307   4.907   2.340   6.816 -1.7136 -0.5027 -2.1915
 7286SOL     OW23308   4.442   7.869   8.792 -0.2245  0.1274  0.3287
 7286SOL    HW123309   4.462   7.893   8.701 -2.1061 -0.4642 -0.2910
 7286SOL    HW223310   4.486   7.786   8.806  0.5858  0.5242  0.1725
 7287SOL     OW23311   5.153   1.507   0.445  0.1930  0.8043 -0.0601
 7287SOL    HW123312   5.103   1.569   0.497  0.2086  0.7850 -0.0214
 7287SOL    HW223313   5.090   1.438   0.423 -0.0494  1.2627 -0.8410
 7288SOL     OW23314   4.643   1.124   4.235  0.3663  0.0882  0.0027
 7288SOL    HW123315   4.584   1.054   4.262  1.2358 -0.9248 -0.6719
 7288SOL    HW223316   4.719   1.115   4.292 -0.1028  1.3923  0.8729
 7289SOL     OW23317   3.386   8.923   1.206 -0.2177 -0.4479 -0.2730
 7289SOL    HW123318   3.351   8.968   1.283  2.0605  1.2632 -0.1304
 7289SOL    HW223319   3.441   8.988   1.163  1.5787 -2.4706 -1.2596
 7290SOL     OW23320   1.227   6.649   0.728  0.1774 -0.1221  0.2221
 7290SOL    HW123321   1.142   6.692   0.710 -0.2272 -0.9893 -0.0001
 7290SOL    HW223322   1.262   6.631   0.641 -0.0734 -1.0330  0.3014
 7291SOL     OW23323   5.406   0.736   5.639  0.0419 -0.3359 -0.3349
 7291SOL    HW123324   5.457   0.767   5.714 -0.0812  1.9873 -1.1449
 7291SOL    HW223325   5.315   0.747   5.667 -0.0137  1.3631 -1.0906
 7292SOL     OW23326   2.262   2.111   3.772 -0.4344 -0.0371 -0.0375
 7292SOL    HW123327   2.337   2.128   3.714  1.4132 -2.1102  1.5687
 7292SOL    HW223328   2.196   2.071   3.715  0.9467 -1.1181 -0.9438
 7293SOL     OW23329   2.787   6.552   2.935  1.2608 -0.1964 -0.5904
 7293SOL    HW123330   2.839   6.475   2.958  0.4624 -0.8885 -1.0503
 7293SOL    HW223331   2.735   6.525   2.860  0.1176  0.4202 -0.0542
 7294SOL     OW23332   6.974   0.437   0.735 -0.0475 -0.1818  0.0473
 7294SOL    HW123333   7.059   0.402   0.710  0.1265  1.4045 -1.8043
 7294SOL    HW223334   6.989   0.529   0.752 -1.0243 -0.3215  1.8866
 7295SOL     OW23335   1.068   5.432   7.750 -0.0427  0.0422  0.0148
 7295SOL    HW123336   1.129   5.362   7.730 -3.0696 -2.6592 -0.6637
 7295SOL    HW223337   1.029   5.408   7.835 -0.8097  1.1610  0.0171
 7296SOL     OW23338   1.262   7.414   5.744 -0.0930  0.4663  0.1187
 7296SOL    HW123339   1.206   7.336   5.748 -1.5034  1.4716  2.2111
 7296SOL    HW223340   1.208   7.479   5.698  0.0560  0.9173  0.5712
 7297SOL     OW23341   2.935   3.600   7.716  0.4954  0.3256  0.7514
 7297SOL    HW123342   2.999   3.618   7.647  0.7639  0.9971  1.1614
 7297SOL    HW223343   2.857   3.571   7.669  0.4770  1.3514  0.1218
 7298SOL     OW23344   8.101   5.343   4.481  0.0415  0.1125 -0.5647
 7298SOL    HW123345   8.180   5.396   4.476  1.4469 -1.8569 -0.4064
 7298SOL    HW223346   8.076   5.346   4.574 -0.4540  1.2105 -0.7157
 7299SOL     OW23347   2.140   3.618   5.876  0.7633 -0.1280 -0.1402
 7299SOL    HW123348   2.087   3.640   5.800  0.9591 -0.1578 -0.2848
 7299SOL    HW223349   2.230   3.641   5.851  0.8097 -0.0049  0.1304
 7300SOL     OW23350   4.688   2.164   4.186  0.0973  0.0558 -0.0680
 7300SOL    HW123351   4.759   2.224   4.163 -0.1686  0.9381  1.2771
 7300SOL    HW223352   4.642   2.148   4.104  1.5578 -0.1607 -0.8710
 7301SOL     OW23353   3.006   7.129   1.266  0.0252 -0.2638 -0.0019
 7301SOL    HW123354   3.073   7.158   1.327  0.9592  0.5485 -1.3664
 7301SOL    HW223355   2.924   7.135   1.315  0.8312 -0.4435  1.4151
 7302SOL     OW23356   6.550   3.643   5.043 -0.0336  0.0813  0.4118
 7302SOL    HW123357   6.599   3.721   5.016  2.1645 -1.9699 -2.2030
 7302SOL    HW223358   6.595   3.571   4.999 -3.4527 -2.4214  0.6451
 7303SOL     OW23359   9.242   1.253   8.265  0.7061 -0.3083 -0.0237
 7303SOL    HW123360   9.317   1.297   8.226  1.5345 -0.7218  1.0736
 7303SOL    HW223361   9.199   1.320   8.319  0.6800 -0.2542 -0.1125
 7304SOL     OW23362   5.345   8.107   2.983 -0.2849 -0.4708  0.0339
 7304SOL    HW123363   5.313   8.032   3.032 -2.0005  1.2703  1.7619
 7304SOL    HW223364   5.440   8.097   2.983 -0.4600 -2.5656  0.2633
 7305SOL     OW23365   5.383   4.684   4.977  0.0135  0.5551  0.0554
 7305SOL    HW123366   5.304   4.732   5.001  0.7814  2.9193 -1.6859
 7305SOL    HW223367   5.352   4.597   4.951 -1.5247  0.1945  2.7038
 7306SOL     OW23368   7.165   6.985   6.692  0.2760  0.4711  0.2051
 7306SOL    HW123369   7.134   6.936   6.615  0.0167  1.2543 -0.2018
 7306SOL    HW223370   7.257   6.960   6.700  0.5482  1.0325 -0.9046
 7307SOL     OW23371   2.337   5.716   8.736  0.0927 -0.2450  0.4796
 7307SOL    HW123372   2.249   5.744   8.712  0.4677  2.2163  1.6520
 7307SOL    HW223373   2.364   5.657   8.666 -2.3713 -0.8765 -0.0212
 7308SOL     OW23374   6.997   4.734   8.711  0.1332 -0.0809 -0.5089
 7308SOL    HW123375   7.079   4.780   8.692  1.0759 -1.6996 -0.5557
 7308SOL    HW223376   6.931   4.803   8.711  1.3517  1.1598 -1.3416
 7309SOL     OW23377   6.539   3.514   4.765 -0.1731  0.2398 -0.6152
 7309SOL    HW123378   6.520   3.608   4.757 -1.1416 -0.0627 -2.3407
 7309SOL    HW223379   6.628   3.505   4.729  0.3072  0.6060  0.4429
 7310SOL     OW23380   7.059   0.154   5.158  0.0130  0.3647 -0.0594
 7310SOL    HW123381   6.963   0.149   5.161  0.0941 -1.1090  1.0204
 7310SOL    HW223382   7.083   0.204   5.236  0.1783 -0.6052  0.5236
 7311SOL     OW23383   8.385   5.432   3.471  0.0073 -0.6506  0.0595
 7311SOL    HW123384   8.398   5.477   3.554 -0.4541 -0.6678  0.1415
 7311SOL    HW223385   8.309   5.475   3.432  0.5769 -0.2418 -0.6313
 7312SOL     OW23386   8.700   4.580   2.723  0.3826 -0.4571  0.5290
 7312SOL    HW123387   8.720   4.671   2.744 -0.9829 -0.0942  0.3884
 7312SOL    HW223388   8.778   4.547   2.678  0.7714  0.7399  0.3020
 7313SOL     OW23389   4.037   4.850   8.825  0.1862  0.0307  0.4465
 7313SOL    HW123390   3.995   4.853   8.739 -0.1961  0.7710  0.6562
 7313SOL    HW223391   4.121   4.806   8.809  1.1500  2.1720 -0.7473
 7314SOL     OW23392   7.895   0.852   2.705 -0.9250  0.0409 -0.1641
 7314SOL    HW123393   7.924   0.796   2.632  1.2944 -0.1233  0.7683
 7314SOL    HW223394   7.875   0.790   2.776  4.3719  0.2392  1.8927
 7315SOL     OW23395   8.582   3.483   2.864  0.1410  0.4604 -0.2368
 7315SOL    HW123396   8.632   3.407   2.893 -1.3324 -0.9483 -1.1848
 7315SOL    HW223397   8.538   3.515   2.943  1.8494  1.2241  0.4418
 7316SOL     OW23398   7.068   8.058   2.573 -0.1634 -0.1477 -0.0941
 7316SOL    HW123399   7.023   8.101   2.646 -0.3416  0.4281 -0.5342
 7316SOL    HW223400   7.158   8.049   2.603 -0.8202 -2.7352  1.4389
 7317SOL     OW23401   1.019   3.464   5.078  0.1103 -0.3164 -0.3749
 7317SOL    HW123402   1.108   3.462   5.113  0.5607  0.3875 -1.4043
 7317SOL    HW223403   0.981   3.379   5.102 -0.2218  0.6944  3.1651
 7318SOL     OW23404   2.163   5.941   6.389 -0.2476  0.1078 -0.4863
 7318SOL    HW123405   2.180   6.007   6.457  1.1369  1.2620 -1.8749
 7318SOL    HW223406   2.220   5.868   6.412  0.9568  0.8888 -0.9209
 7319SOL     OW23407   7.003   0.627   3.068  0.0174  0.1455 -0.6378
 7319SOL    HW123408   6.984   0.573   2.992 -1.2975  2.6105 -2.2142
 7319SOL    HW223409   6.936   0.695   3.066 -0.8350 -0.3224  3.4811
 7320SOL     OW23410   4.306   3.997   0.459 -0.1853 -0.1385 -0.2182
 7320SOL    HW123411   4.222   3.952   0.450  0.2266 -1.1276  0.6506
 7320SOL    HW223412   4.325   4.032   0.372  0.2000 -2.9717 -1.3728
 7321SOL     OW23413   4.205   0.968   4.941 -0.1946  0.2122 -0.1848
 7321SOL    HW123414   4.116   0.997   4.959 -0.9286 -1.6066 -0.6876
 7321SOL    HW223415   4.235   0.927   5.022  0.1157  0.6126 -0.0909
 7322SOL     OW23416   1.106   1.765   5.937  0.0521  0.5250 -0.6977
 7322SOL    HW123417   1.144   1.790   5.853  0.9278 -0.7390 -0.7117
 7322SOL    HW223418   1.182   1.754   5.995 -0.3227 -1.0496 -0.4427
 7323SOL     OW23419   3.356   8.368   6.679  0.4207 -0.5204 -0.2975
 7323SOL    HW123420   3.322   8.293   6.631 -0.0984 -0.3157 -0.2584
 7323SOL    HW223421   3.309   8.368   6.762 -0.7525  0.7483 -0.9217
 7324SOL     OW23422   1.929   6.043   5.478  0.5149  0.2149 -0.4470
 7324SOL    HW123423   1.901   6.012   5.392  0.3051 -1.3919  0.1625
 7324SOL    HW223424   1.952   6.135   5.465  1.3640 -0.2372 -2.4159
 7325SOL     OW23425   2.472   6.905   3.094  0.3823 -0.9828  0.0786
 7325SOL    HW123426   2.482   6.870   3.183 -0.4650  2.6807  1.8092
 7325SOL    HW223427   2.382   6.884   3.070  0.0695 -0.5157  0.8237
 7326SOL     OW23428   7.516   5.958   4.615  0.0154 -0.2308 -0.2110
 7326SOL    HW123429   7.612   5.957   4.622  0.0634 -0.6907 -0.8763
 7326SOL    HW223430   7.496   5.890   4.551 -0.8677 -1.4356  1.2628
 7327SOL     OW23431   6.170   6.078   1.338 -0.2831  0.1506  0.1093
 7327SOL    HW123432   6.230   6.075   1.413 -1.0052  0.5298  0.7165
 7327SOL    HW223433   6.211   6.022   1.272 -0.9413 -2.4949  1.7844
 7328SOL     OW23434   6.426   0.271   6.261 -0.3612  0.2168  0.6574
 7328SOL    HW123435   6.403   0.201   6.199  2.0541 -2.1024  2.1893
 7328SOL    HW223436   6.348   0.327   6.263 -2.0245 -1.8023 -1.4567
 7329SOL     OW23437   5.789   4.800   6.927  0.6891 -0.4049  0.1505
 7329SOL    HW123438   5.710   4.746   6.927  0.1001  0.4075 -0.8898
 7329SOL    HW223439   5.771   4.866   6.995  0.5539 -0.3338  0.0470
 7330SOL     OW23440   7.441   3.986   8.978 -0.2684 -0.2145 -0.1915
 7330SOL    HW123441   7.458   4.072   9.017 -2.4479  0.1649  0.0716
 7330SOL    HW223442   7.524   3.940   8.983  1.1222  2.0674 -0.8355
 7331SOL     OW23443   3.372   6.356   0.095  0.2688  0.0591  0.1307
 7331SOL    HW123444   3.408   6.273   0.064 -1.9361 -1.0672  0.4234
 7331SOL    HW223445   3.304   6.378   0.031  0.9014  1.7630 -0.0321
 7332SOL     OW23446   4.058   1.792   2.539 -0.0112 -0.3814 -0.2140
 7332SOL    HW123447   4.067   1.756   2.627 -0.0909 -0.6799 -0.3283
 7332SOL    HW223448   4.118   1.741   2.485 -0.8544 -1.0128 -0.5728
 7333SOL     OW23449   2.137   6.636   8.514  0.1509  1.1870 -0.0023
 7333SOL    HW123450   2.196   6.576   8.468  0.4520  2.6123 -1.5455
 7333SOL    HW223451   2.178   6.648   8.600 -0.6487 -1.8498  0.9385
 7334SOL     OW23452   8.288   3.172   0.053  0.6379  0.1665 -0.3761
 7334SOL    HW123453   8.246   3.198  -0.029 -1.9136  0.0036  0.7865
 7334SOL    HW223454   8.287   3.077   0.052  0.9212  0.1615 -0.3014
 7335SOL     OW23455   2.946   1.543   1.580 -0.1710  0.3813  0.0092
 7335SOL    HW123456   2.977   1.633   1.573 -0.6757  0.6027  0.5220
 7335SOL    HW223457   3.014   1.497   1.629  0.0416  0.5053 -0.1677
 7336SOL     OW23458   3.451   0.126   8.275  0.1731  0.4521  0.5247
 7336SOL    HW123459   3.459   0.071   8.197  2.5959  1.1642  0.1812
 7336SOL    HW223460   3.436   0.214   8.242 -0.6563  0.4866  0.9596
 7337SOL     OW23461   6.809   2.473   7.002  0.3311 -0.2171  0.3543
 7337SOL    HW123462   6.731   2.430   7.036  0.8200 -0.8632  0.6892
 7337SOL    HW223463   6.881   2.417   7.029  0.9637  0.6333  0.4912
 7338SOL     OW23464   2.658   8.950   8.304  0.0561 -0.0914 -0.3240
 7338SOL    HW123465   2.689   8.865   8.273  0.3240 -0.3119  0.5272
 7338SOL    HW223466   2.586   8.929   8.363  1.1433  0.1716  1.1304
 7339SOL     OW23467   6.302   3.060   6.955  0.6602  0.0337 -0.7026
 7339SOL    HW123468   6.211   3.088   6.946  1.3981  2.1018 -3.0864
 7339SOL    HW223469   6.342   3.127   7.011  0.4655 -1.8013  1.8177
 7340SOL     OW23470   6.760   5.714   2.488 -0.0956  0.5637  0.4018
 7340SOL    HW123471   6.804   5.658   2.423 -0.1464  0.8000  0.1640
 7340SOL    HW223472   6.823   5.722   2.559  0.8260  2.0241 -0.5243
 7341SOL     OW23473   4.814   3.508   4.596  0.1486 -0.1353  0.6047
 7341SOL    HW123474   4.819   3.478   4.687 -1.2663  0.1205  0.7907
 7341SOL    HW223475   4.726   3.546   4.588  0.2068 -0.2484 -0.9029
 7342SOL     OW23476   6.919   8.032   9.159 -0.0179  0.2917 -0.3457
 7342SOL    HW123477   6.972   8.007   9.235  0.7850  0.4439 -0.8473
 7342SOL    HW223478   6.903   7.949   9.113  2.0543  0.5408 -1.6295
 7343SOL     OW23479   6.751   3.868   2.827 -0.0251 -0.2855 -0.0401
 7343SOL    HW123480   6.769   3.839   2.916 -1.1760  0.2943  0.3942
 7343SOL    HW223481   6.713   3.955   2.837  0.6577  0.1661 -1.1577
 7344SOL     OW23482   1.892   1.324   8.761 -0.2651  0.1070  0.1058
 7344SOL    HW123483   1.937   1.274   8.693  0.1069 -0.0687  0.4774
 7344SOL    HW223484   1.944   1.403   8.772 -0.9877  0.7008 -0.6543
 7345SOL     OW23485   0.368   4.138   5.651 -0.0958 -0.1745 -0.7933
 7345SOL    HW123486   0.340   4.054   5.615 -0.0282 -0.0396 -1.1760
 7345SOL    HW223487   0.462   4.142   5.629  0.3042 -0.7499  0.7250
 7346SOL     OW23488   9.271   9.047   6.896  0.1985 -0.2577  0.0438
 7346SOL    HW123489   9.360   9.012   6.887  0.2787 -0.2582  0.7866
 7346SOL    HW223490   9.282   9.132   6.937 -0.0456  0.4179 -1.2267
 7347SOL     OW23491   1.314   0.544   8.971  0.0925 -0.0800 -0.9847
 7347SOL    HW123492   1.324   0.594   9.052  1.3416  0.9625 -1.7502
 7347SOL    HW223493   1.353   0.458   8.991  0.7457  0.2997 -0.5953
 7348SOL     OW23494   3.579   5.754   7.669  0.5134  0.0066  0.0662
 7348SOL    HW123495   3.620   5.807   7.601 -3.5856 -0.8118 -3.4477
 7348SOL    HW223496   3.509   5.810   7.703 -0.1856 -1.0977  0.4900
 7349SOL     OW23497   9.272   4.101   2.953  0.2196 -0.3159 -0.2791
 7349SOL    HW123498   9.340   4.048   2.996 -1.7881 -2.2636  0.7048
 7349SOL    HW223499   9.246   4.164   3.019 -0.2824 -0.8776  0.0699
 7350SOL     OW23500   1.584   9.061   4.959 -0.1272  0.0204  0.1682
 7350SOL    HW123501   1.522   9.010   4.907  1.0036 -1.0537 -0.1582
 7350SOL    HW223502   1.532   9.092   5.034 -0.7808 -1.8937  0.5510
 7351SOL     OW23503   2.916   4.014   3.825  0.5660 -0.0855 -0.5473
 7351SOL    HW123504   2.911   4.006   3.920 -2.6086  0.3404 -0.5607
 7351SOL    HW223505   2.964   4.095   3.810 -2.0230  1.8687  0.8994
 7352SOL     OW23506   8.930   4.632   4.715  0.0010 -0.2220  0.3448
 7352SOL    HW123507   8.978   4.692   4.657 -1.3563 -0.3168 -0.9289
 7352SOL    HW223508   8.984   4.553   4.716 -0.1806 -0.3932 -1.2092
 7353SOL     OW23509   6.634   5.068   3.306 -0.2318 -0.2178 -0.3920
 7353SOL    HW123510   6.716   5.092   3.350 -0.9695  0.7173  0.5356
 7353SOL    HW223511   6.637   5.114   3.222  0.5935 -0.9485 -0.7833
 7354SOL     OW23512   5.695   8.887   6.294  0.0630 -0.5749 -0.2045
 7354SOL    HW123513   5.692   8.900   6.389 -2.5967 -1.1032 -0.1369
 7354SOL    HW223514   5.687   8.974   6.257 -1.3292 -0.5643  0.0956
 7355SOL     OW23515   1.814   0.894   3.073  0.4493 -0.0631 -0.3421
 7355SOL    HW123516   1.813   0.986   3.098  0.8470 -0.2937  0.5851
 7355SOL    HW223517   1.906   0.868   3.081  0.1753 -0.8160  0.5080
 7356SOL     OW23518   2.321   7.300   2.569  0.3158 -0.0706 -0.1468
 7356SOL    HW123519   2.380   7.236   2.528  0.1765 -1.5459  1.7939
 7356SOL    HW223520   2.251   7.247   2.606  1.3211  0.8641  3.4974
 7357SOL     OW23521   3.209   5.611   7.104 -0.0002 -0.2344 -0.0600
 7357SOL    HW123522   3.123   5.602   7.145  0.6593  1.7212  1.9497
 7357SOL    HW223523   3.243   5.522   7.101 -0.9443 -0.7201  1.8209
 7358SOL     OW23524   3.668   5.120   1.684  0.1200  0.3993 -0.4040
 7358SOL    HW123525   3.650   5.068   1.605 -0.7451 -0.5898  0.4226
 7358SOL    HW223526   3.762   5.136   1.682  0.0857  0.5677 -1.7367
 7359SOL     OW23527   8.795   7.219   4.511 -0.2633  0.0030 -0.3011
 7359SOL    HW123528   8.726   7.275   4.475  0.6942  1.6955  0.3957
 7359SOL    HW223529   8.870   7.277   4.523  0.4076 -1.1546  1.6286
 7360SOL     OW23530   2.275   1.996   8.721  0.1655  0.3772 -0.0527
 7360SOL    HW123531   2.189   1.958   8.705 -0.6929  2.6817 -1.2217
 7360SOL    HW223532   2.331   1.920   8.740 -1.8868 -1.2479 -0.1447
 7361SOL     OW23533   8.790   6.072   9.258 -0.3680  0.9034 -0.1125
 7361SOL    HW123534   8.809   6.118   9.340 -1.8538  2.3751 -0.5492
 7361SOL    HW223535   8.876   6.045   9.225  0.3275  1.1949  1.4004
 7362SOL     OW23536   4.989   5.815   4.439 -0.2079  0.4475  0.1164
 7362SOL    HW123537   5.043   5.789   4.513  0.3970  0.9095 -0.1580
 7362SOL    HW223538   4.899   5.811   4.473  0.0969  1.2794  1.0893
 7363SOL     OW23539   4.851   2.113   8.364  0.1898  0.2126 -0.4330
 7363SOL    HW123540   4.910   2.042   8.389  1.1842  0.7891 -1.0684
 7363SOL    HW223541   4.768   2.069   8.343 -0.4753 -0.3814  2.9279
 7364SOL     OW23542   7.330   2.618   3.762 -0.4818 -0.0963 -0.7923
 7364SOL    HW123543   7.254   2.676   3.768  0.3547  0.9841 -0.3475
 7364SOL    HW223544   7.368   2.619   3.850  0.0840 -0.5726 -1.0274
 7365SOL     OW23545   9.191   3.455   5.324 -1.3845 -0.0978 -0.1591
 7365SOL    HW123546   9.210   3.514   5.251 -3.0571  0.2821 -0.3310
 7365SOL    HW223547   9.196   3.510   5.402  0.3548 -0.4930  0.0383
 7366SOL     OW23548   7.587   5.547   3.570  0.0448  0.6360 -0.2506
 7366SOL    HW123549   7.560   5.525   3.660  0.2078 -1.4167 -0.6645
 7366SOL    HW223550   7.682   5.557   3.576  0.0379  0.6579 -0.1659
 7367SOL     OW23551   5.858   8.423   4.499 -0.3848  0.2477  0.5098
 7367SOL    HW123552   5.774   8.383   4.524 -0.9260  1.0315  0.0015
 7367SOL    HW223553   5.860   8.416   4.404 -0.1896  0.8347  0.4653
 7368SOL     OW23554   7.006   2.681   2.015 -0.6816 -0.6555  0.0532
 7368SOL    HW123555   6.983   2.598   1.975 -2.0529 -1.6578  2.6700
 7368SOL    HW223556   7.058   2.658   2.092  0.1582  1.0173  0.0460
 7369SOL     OW23557   2.989   8.740   5.363 -0.2471  0.4445  0.1752
 7369SOL    HW123558   2.905   8.778   5.390 -0.3996  0.7713 -0.6944
 7369SOL    HW223559   2.974   8.711   5.273  0.2880 -0.4191  0.3521
 7370SOL     OW23560   4.905   6.741   2.835  0.2159  0.1302  0.5703
 7370SOL    HW123561   4.946   6.725   2.750  3.1321  1.4341  1.6019
 7370SOL    HW223562   4.811   6.726   2.820  0.6288  0.2025 -2.8108
 7371SOL     OW23563   7.805   5.584   7.865  0.0774 -0.6495  0.3997
 7371SOL    HW123564   7.803   5.593   7.770  2.3742 -1.6075  0.1994
 7371SOL    HW223565   7.715   5.603   7.893 -0.3085  1.0680 -1.7922
 7372SOL     OW23566   5.506   4.801   8.021 -0.2291  0.5853  0.1427
 7372SOL    HW123567   5.539   4.721   7.982 -1.9713  1.2360 -3.0342
 7372SOL    HW223568   5.449   4.772   8.092  1.3166 -0.8033  0.8715
 7373SOL     OW23569   5.831   1.910   3.256  0.6140 -0.1250 -0.2206
 7373SOL    HW123570   5.822   1.942   3.346  0.6526 -0.3602 -0.1317
 7373SOL    HW223571   5.765   1.958   3.206  1.5611  1.0783 -0.3562
 7374SOL     OW23572   0.235   0.470   7.520 -0.4818  0.0389  0.1813
 7374SOL    HW123573   0.170   0.447   7.587  0.1280 -0.1960  0.7039
 7374SOL    HW223574   0.307   0.509   7.569  0.3975 -1.0185 -0.2069
 7375SOL     OW23575   8.119   6.660   5.495 -0.0800  0.6598 -0.2842
 7375SOL    HW123576   8.187   6.613   5.446 -1.1607  0.4180 -1.6034
 7375SOL    HW223577   8.038   6.639   5.449 -1.1988  0.2308  1.7515
 7376SOL     OW23578   2.044   1.088   0.417  0.7678 -0.4129  0.1400
 7376SOL    HW123579   2.074   1.039   0.340  2.4636 -0.3932  0.7394
 7376SOL    HW223580   2.094   1.050   0.489  1.3864  1.5180  0.7771
 7377SOL     OW23581   6.273   8.090   8.612 -0.7063 -0.5805  0.0958
 7377SOL    HW123582   6.223   8.171   8.610  2.1820  1.3699 -2.1198
 7377SOL    HW223583   6.343   8.106   8.675  0.0470 -1.2509 -0.5490
 7378SOL     OW23584   4.192   3.047   4.941  0.3046 -0.2401  0.2834
 7378SOL    HW123585   4.256   3.002   4.886 -0.3632  0.5687 -1.2061
 7378SOL    HW223586   4.224   3.033   5.030  1.9486 -0.7922 -0.3444
 7379SOL     OW23587   3.749   5.528   2.894  0.3540  0.0009 -0.6295
 7379SOL    HW123588   3.816   5.460   2.896 -0.2277 -0.5838 -0.4667
 7379SOL    HW223589   3.708   5.519   2.807  0.2550  0.1219 -0.5958
 7380SOL     OW23590   4.301   7.752   4.581 -0.2204 -0.0397 -0.2981
 7380SOL    HW123591   4.221   7.770   4.631 -0.1085 -0.6347  0.1098
 7380SOL    HW223592   4.361   7.822   4.606 -0.0577 -0.5004  0.6590
 7381SOL     OW23593   0.838   7.437   4.717  0.0228  0.0443  0.4517
 7381SOL    HW123594   0.858   7.430   4.623 -1.6337  0.3504  0.0310
 7381SOL    HW223595   0.843   7.531   4.735  1.0293 -0.0793  0.8529
 7382SOL     OW23596   5.954   8.550   1.297  0.0297 -0.2046 -0.1755
 7382SOL    HW123597   6.009   8.545   1.375  0.9869 -0.5582 -0.8581
 7382SOL    HW223598   6.014   8.536   1.224 -1.0776 -1.3945 -0.9120
 7383SOL     OW23599   8.015   1.705   0.622 -0.2655  0.2991 -0.2021
 7383SOL    HW123600   8.108   1.715   0.603 -0.7714  4.0096 -1.4683
 7383SOL    HW223601   7.975   1.682   0.537 -0.5894 -1.2070  0.3171
 7384SOL     OW23602   7.332   8.786   4.458  0.5455 -0.2296 -0.2267
 7384SOL    HW123603   7.423   8.811   4.442  0.3448 -0.4402 -1.9026
 7384SOL    HW223604   7.331   8.691   4.446  0.1830 -0.2888  0.2492
 7385SOL     OW23605   3.672   5.622   1.686  0.4631  0.2824 -0.8136
 7385SOL    HW123606   3.662   5.712   1.655  3.8517  1.0458 -0.1109
 7385SOL    HW223607   3.674   5.630   1.781  0.1482 -0.6520 -0.7202
 7386SOL     OW23608   6.706   0.946   8.597  0.0476  0.2635 -0.0552
 7386SOL    HW123609   6.715   1.026   8.545  2.5892 -0.8273 -1.4816
 7386SOL    HW223610   6.681   0.879   8.534  1.0514 -0.6545  0.4761
 7387SOL     OW23611   4.848   3.463   7.411  0.1828  0.0068 -0.3400
 7387SOL    HW123612   4.928   3.510   7.435  0.5442 -0.3036 -0.9333
 7387SOL    HW223613   4.859   3.377   7.451  0.2762 -0.1349 -0.6757
 7388SOL     OW23614   5.553   6.118   3.784 -0.1814  0.1769 -0.0140
 7388SOL    HW123615   5.504   6.144   3.862  0.2057 -1.3266  0.7777
 7388SOL    HW223616   5.524   6.028   3.767  2.5007 -0.9275  0.7245
 7389SOL     OW23617   8.541   0.936   1.690 -1.1088 -0.0031  0.3680
 7389SOL    HW123618   8.579   1.013   1.733 -0.3106 -0.7265  0.9785
 7389SOL    HW223619   8.582   0.861   1.733 -1.3053 -0.7753 -0.7435
 7390SOL     OW23620   8.031   3.928   7.393  0.0621  0.1111 -0.0639
 7390SOL    HW123621   8.117   3.966   7.412 -0.3903  1.2960 -0.3049
 7390SOL    HW223622   8.021   3.939   7.298  0.3442 -1.5561 -0.3157
 7391SOL     OW23623   0.172   1.045   8.089 -0.5639  0.0565 -0.0779
 7391SOL    HW123624   0.202   1.111   8.152  0.4384 -0.4676  0.0128
 7391SOL    HW223625   0.175   0.962   8.137 -2.7807  0.0342  0.1218
 7392SOL     OW23626   4.173   0.686   1.830  0.0910 -0.0150 -0.8616
 7392SOL    HW123627   4.118   0.641   1.895  0.4789  0.1891 -0.3864
 7392SOL    HW223628   4.232   0.619   1.798  1.7065  0.4461  0.9619
 7393SOL     OW23629   7.173   8.337   2.284 -0.1222  0.7002  0.2604
 7393SOL    HW123630   7.221   8.307   2.361  0.3480 -0.8929 -0.6049
 7393SOL    HW223631   7.086   8.298   2.293 -0.0840  0.5571  0.0201
 7394SOL     OW23632   6.861   9.241   7.618 -0.4806  0.7502 -0.2608
 7394SOL    HW123633   6.852   9.215   7.710 -1.3334  0.2257 -0.4781
 7394SOL    HW223634   6.781   9.209   7.577  1.0342 -1.3571 -1.7334
 7395SOL     OW23635   4.410   0.748   0.057  0.2388 -0.1294 -0.1018
 7395SOL    HW123636   4.314   0.739   0.056 -0.2020  2.9446 -3.0694
 7395SOL    HW223637   4.426   0.825   0.111  1.2375 -1.2196  1.2389
 7396SOL     OW23638   4.050   6.864   0.219 -0.1749 -0.5010  0.0786
 7396SOL    HW123639   4.021   6.927   0.153  2.1813  1.9935  1.1960
 7396SOL    HW223640   4.138   6.838   0.191 -0.1875 -1.4840  0.8807
 7397SOL     OW23641   1.109   6.088   1.732  0.1016 -0.1595 -0.0360
 7397SOL    HW123642   1.046   6.096   1.804  0.5315  0.3770  0.2865
 7397SOL    HW223643   1.141   5.998   1.739 -0.1600 -0.2361  0.1932
 7398SOL     OW23644   8.463   6.522   2.467 -0.2446  0.5761 -0.3700
 7398SOL    HW123645   8.395   6.588   2.484  0.0005  0.9615 -0.8685
 7398SOL    HW223646   8.471   6.475   2.549 -1.4229  0.2464 -0.4197
 7399SOL     OW23647   0.062   4.801   2.304  0.4547 -0.2142  0.3722
 7399SOL    HW123648   0.010   4.776   2.228 -0.6321  1.2508  0.6038
 7399SOL    HW223649   0.139   4.844   2.268 -1.0363  2.3585  0.0703
 7400SOL     OW23650   2.750   2.806   3.341  0.1334 -0.0632 -0.1050
 7400SOL    HW123651   2.679   2.744   3.358 -0.3226  0.5560  0.2999
 7400SOL    HW223652   2.824   2.771   3.391  0.0701 -0.6202 -0.3915
 7401SOL     OW23653   3.744   8.871   4.383  0.4381 -0.2396  0.4711
 7401SOL    HW123654   3.672   8.825   4.340  1.1193 -0.9498  0.0751
 7401SOL    HW223655   3.823   8.837   4.341  0.9495  1.7066 -0.2181
 7402SOL     OW23656   7.279   7.784   1.837  0.0325 -0.2302  0.3262
 7402SOL    HW123657   7.264   7.838   1.915  0.2099  2.0626 -1.1333
 7402SOL    HW223658   7.368   7.804   1.810 -0.9762  1.4829 -2.1555
 7403SOL     OW23659   6.036   9.210   3.769  0.1736 -0.4975 -0.0783
 7403SOL    HW123660   6.014   9.290   3.816  0.9434  0.1038 -0.7110
 7403SOL    HW223661   6.052   9.145   3.837  0.5430  0.1632  0.4763
 7404SOL     OW23662   6.078   7.467   3.383 -0.1966  0.4159 -0.2363
 7404SOL    HW123663   6.164   7.424   3.379 -0.9341 -1.2625  0.7050
 7404SOL    HW223664   6.049   7.470   3.292  0.0110 -0.8662 -0.3676
 7405SOL     OW23665   7.288   9.223   6.288  0.3289 -0.0150 -0.3635
 7405SOL    HW123666   7.250   9.156   6.345 -0.7076  1.2098  0.4413
 7405SOL    HW223667   7.361   9.178   6.244 -0.6429 -1.8141 -0.2596
 7406SOL     OW23668   1.712   5.178   1.006  0.2776 -0.1837 -0.0507
 7406SOL    HW123669   1.691   5.270   1.018 -1.7488  0.1061 -4.0695
 7406SOL    HW223670   1.782   5.178   0.940 -1.3126 -1.4393 -1.8380
 7407SOL     OW23671   2.549   3.700   0.757  0.5089  0.5341  0.3792
 7407SOL    HW123672   2.485   3.658   0.814  0.6319  0.3516  0.3860
 7407SOL    HW223673   2.540   3.656   0.673 -0.3676  1.4826 -0.0416
 7408SOL     OW23674   2.745   4.535   1.738 -0.0770 -0.7574 -0.5426
 7408SOL    HW123675   2.812   4.545   1.805  0.5675 -3.4709 -0.6681
 7408SOL    HW223676   2.715   4.624   1.721  1.8181  0.3058  1.1980
 7409SOL     OW23677   6.276   2.607   0.041  0.3417  0.4705 -0.1585
 7409SOL    HW123678   6.363   2.639   0.016  0.2622  0.6816 -0.1691
 7409SOL    HW223679   6.245   2.670   0.105  0.7372 -0.3309  0.8402
 7410SOL     OW23680   4.282   4.324   5.311 -0.4909  0.6000 -0.0329
 7410SOL    HW123681   4.375   4.345   5.320 -0.4898  1.8796 -2.2230
 7410SOL    HW223682   4.277   4.229   5.326  1.2068  0.4600 -0.1573
 7411SOL     OW23683   4.818   8.651   1.213  0.1496 -0.0516  0.3339
 7411SOL    HW123684   4.770   8.575   1.246 -0.1772  0.4671  1.1003
 7411SOL    HW223685   4.887   8.665   1.279  2.3540 -1.6919 -1.4858
 7412SOL     OW23686   9.137   1.654   1.944 -0.2237  0.0371 -0.2813
 7412SOL    HW123687   9.111   1.679   2.033  1.8413 -0.7067  0.5882
 7412SOL    HW223688   9.119   1.561   1.939  0.8733 -0.1921 -0.1574
 7413SOL     OW23689   7.169   0.177   1.473  0.0833  0.2276 -0.3265
 7413SOL    HW123690   7.192   0.103   1.417 -0.5285  0.3365 -0.7339
 7413SOL    HW223691   7.179   0.144   1.562 -0.8586 -0.5718 -0.4992
 7414SOL     OW23692   8.761   5.363   4.606 -0.7170  0.3692  0.0275
 7414SOL    HW123693   8.764   5.271   4.581 -1.3826  0.6458 -1.1061
 7414SOL    HW223694   8.681   5.370   4.660  0.4680 -0.1275  1.9564
 7415SOL     OW23695   0.521   8.233   5.327  0.0963  0.2689  0.0165
 7415SOL    HW123696   0.549   8.323   5.343 -1.7563  1.1013 -1.0797
 7415SOL    HW223697   0.557   8.183   5.400 -0.8835  2.3350  2.0046
 7416SOL     OW23698   1.161   8.998   5.728  0.8886 -0.7630  0.0783
 7416SOL    HW123699   1.073   8.963   5.744  1.6248 -1.9657  1.8205
 7416SOL    HW223700   1.151   9.092   5.740 -0.3067 -0.7893 -0.5218
 7417SOL     OW23701   0.221   2.929   0.951  0.5675 -0.3562 -0.0286
 7417SOL    HW123702   0.137   2.976   0.955  1.5855  1.5072  0.2648
 7417SOL    HW223703   0.197   2.841   0.923 -1.7819 -0.6082  2.3706
 7418SOL     OW23704   6.523   0.173   3.143  0.2693 -0.6301 -0.9547
 7418SOL    HW123705   6.572   0.092   3.138 -0.1925 -1.0084  0.3572
 7418SOL    HW223706   6.575   0.229   3.201  2.4986  1.4587 -4.5538
 7419SOL     OW23707   4.859   0.957   1.695  0.3788  0.0811 -0.0648
 7419SOL    HW123708   4.774   0.969   1.651 -0.9133 -0.7908  2.0348
 7419SOL    HW223709   4.893   0.875   1.660 -0.3273 -0.2801  0.0689
 7420SOL     OW23710   8.844   9.178   7.326  0.0712 -0.5385 -0.7613
 7420SOL    HW123711   8.772   9.216   7.276 -0.5914  0.8082  1.0784
 7420SOL    HW223712   8.803   9.148   7.407  1.7753  2.2386  1.3264
 7421SOL     OW23713   1.388   2.683   1.809 -0.3860  0.6255  0.1467
 7421SOL    HW123714   1.372   2.722   1.895  0.8640  2.7740 -0.5450
 7421SOL    HW223715   1.302   2.648   1.783 -0.8898  0.3254  2.0380
 7422SOL     OW23716   8.431   0.063   1.485 -0.7962 -0.1186 -0.2706
 7422SOL    HW123717   8.495   0.060   1.414 -2.0647 -0.4457 -1.4385
 7422SOL    HW223718   8.400   0.153   1.487 -2.3067 -0.5616 -1.6034
 7423SOL     OW23719   1.220   1.419   3.961  0.3044 -0.0731  0.3937
 7423SOL    HW123720   1.179   1.441   4.045  1.4038  0.5333  0.7863
 7423SOL    HW223721   1.180   1.336   3.936 -0.2668 -0.1059  1.3626
 7424SOL     OW23722   7.370   4.433   7.024 -0.2964  0.5593  0.4692
 7424SOL    HW123723   7.327   4.393   6.949 -1.1029  0.9019  0.7347
 7424SOL    HW223724   7.299   4.448   7.087  0.4900 -0.5268  1.6617
 7425SOL     OW23725   2.434   1.945   8.415  0.4842 -0.0064 -0.0442
 7425SOL    HW123726   2.403   1.913   8.330 -1.7697  0.0089  0.7218
 7425SOL    HW223727   2.383   2.024   8.432  0.7814 -0.0938  1.4020
 7426SOL     OW23728   8.881   5.305   5.780  0.2172 -0.9178 -0.2561
 7426SOL    HW123729   8.842   5.336   5.862 -1.3141 -0.8108 -0.9906
 7426SOL    HW223730   8.949   5.369   5.760  0.7359 -1.0403  1.0098
 7427SOL     OW23731   6.370   0.822   7.749 -0.2244  0.2252  0.4908
 7427SOL    HW123732   6.425   0.755   7.709 -2.0283 -1.0076 -0.0357
 7427SOL    HW223733   6.380   0.898   7.692 -0.4432 -0.5528 -0.6066
 7428SOL     OW23734   2.871   8.564   6.443 -0.0283 -0.4080  0.3536
 7428SOL    HW123735   2.857   8.516   6.524 -0.9486 -0.8804 -0.0769
 7428SOL    HW223736   2.903   8.499   6.381  1.1304  0.0429  0.4435
 7429SOL     OW23737   7.928   4.956   1.988 -0.4825  0.1724  0.6860
 7429SOL    HW123738   7.854   4.912   1.946  0.2741 -0.1904 -0.2910
 7429SOL    HW223739   7.907   4.953   2.082 -0.2632 -2.7586  0.7394
 7430SOL     OW23740   3.107   2.885   1.991 -0.3821  0.5729 -0.5288
 7430SOL    HW123741   3.162   2.902   1.915  0.2229 -0.1712 -0.2688
 7430SOL    HW223742   3.162   2.909   2.066 -0.0441 -1.0290 -0.2229
 7431SOL     OW23743   8.026   2.844   1.301  0.0279 -0.0909 -0.7667
 7431SOL    HW123744   8.080   2.894   1.240  1.7129 -0.0962  0.6143
 7431SOL    HW223745   7.963   2.907   1.335 -1.0760 -0.1383 -2.5935
 7432SOL     OW23746   0.710   7.195   3.660 -0.4157 -0.3473 -0.2243
 7432SOL    HW123747   0.765   7.169   3.734 -1.5530 -4.7914 -0.6534
 7432SOL    HW223748   0.621   7.195   3.695 -0.6690  1.0366 -0.8295
 7433SOL     OW23749   5.435   6.600   9.031 -0.3302 -1.0609  0.1763
 7433SOL    HW123750   5.506   6.633   8.976 -1.0608 -1.4738 -1.0548
 7433SOL    HW223751   5.469   6.607   9.120  1.8053 -2.5047 -0.4395
 7434SOL     OW23752   7.055   4.024   1.724 -0.2285 -0.5395  0.3176
 7434SOL    HW123753   7.050   4.080   1.647 -0.7564  1.0006  1.4085
 7434SOL    HW223754   7.127   3.964   1.706  0.0736  0.2037 -1.0909
 7435SOL     OW23755   5.679   3.375   4.892 -0.2862 -0.6186 -0.0160
 7435SOL    HW123756   5.591   3.389   4.929 -1.0682 -2.5973 -0.9577
 7435SOL    HW223757   5.729   3.338   4.964 -0.7827 -1.1935  0.0459
 7436SOL     OW23758   8.677   2.413   1.112 -0.5316  0.7136  0.3808
 7436SOL    HW123759   8.711   2.332   1.150  2.1323  1.8863  0.7059
 7436SOL    HW223760   8.662   2.392   1.020  1.5517  0.2156  0.1200
 7437SOL     OW23761   1.158   3.670   4.944 -0.6796  0.4511  0.9436
 7437SOL    HW123762   1.087   3.606   4.951 -1.0031  0.7735  0.6167
 7437SOL    HW223763   1.173   3.699   5.034  2.1901 -2.9861  1.8392
 7438SOL     OW23764   1.724   5.225   9.055  0.1890 -0.1619 -0.2380
 7438SOL    HW123765   1.728   5.266   8.968  0.9180  0.8529  0.2535
 7438SOL    HW223766   1.638   5.249   9.088  0.3449  0.4329 -0.2340
 7439SOL     OW23767   0.926   9.193   9.206 -0.1008 -0.2414 -0.8856
 7439SOL    HW123768   0.934   9.254   9.279  0.4822  0.6917 -1.7039
 7439SOL    HW223769   1.012   9.150   9.202 -0.3878 -0.8563 -0.5452
 7440SOL     OW23770   0.244   6.005   5.289 -0.1706 -0.0474  0.5107
 7440SOL    HW123771   0.222   6.027   5.379 -0.3268 -3.1254  1.3342
 7440SOL    HW223772   0.322   5.950   5.296 -0.0480 -0.1565 -1.2725
 7441SOL     OW23773   5.042   2.990   8.732  0.2625 -0.3735 -0.4110
 7441SOL    HW123774   4.959   2.963   8.772 -0.8341  0.7443 -1.8442
 7441SOL    HW223775   5.017   3.045   8.658  2.2952 -0.0799 -0.9487
 7442SOL     OW23776   3.024   1.422   8.427 -0.5279  0.3748 -0.4535
 7442SOL    HW123777   3.005   1.466   8.510 -2.6110  0.2827 -0.8296
 7442SOL    HW223778   3.117   1.403   8.431 -0.6603 -0.0699  2.0852
 7443SOL     OW23779   1.054   2.982   2.440 -0.2285  0.2107 -0.2796
 7443SOL    HW123780   1.093   3.002   2.355 -0.2458  0.9991 -0.1078
 7443SOL    HW223781   1.009   2.898   2.426  1.2996 -0.5913 -0.5434
 7444SOL     OW23782   2.304   2.765   2.324  0.0907  0.6205 -0.0201
 7444SOL    HW123783   2.371   2.729   2.266 -1.8751  0.5483 -2.4073
 7444SOL    HW223784   2.295   2.856   2.296  1.0416  1.4527  2.1556
 7445SOL     OW23785   3.614   7.982   3.294  0.2162 -0.3058 -0.0245
 7445SOL    HW123786   3.553   7.924   3.248 -0.0389 -0.5248  0.5829
 7445SOL    HW223787   3.634   8.050   3.230 -0.6430 -0.2483 -0.2484
 7446SOL     OW23788   8.223   5.834   2.302 -0.0145 -0.2266 -0.2114
 7446SOL    HW123789   8.144   5.780   2.302 -0.2145 -0.0495  2.5261
 7446SOL    HW223790   8.200   5.911   2.250 -0.9527 -1.0900 -1.1006
 7447SOL     OW23791   3.219   2.126   1.349  0.0531  0.1262 -0.6124
 7447SOL    HW123792   3.189   2.151   1.261 -0.1273  0.0804 -0.5646
 7447SOL    HW223793   3.152   2.162   1.408 -1.9617 -3.0611 -0.6854
 7448SOL     OW23794   0.162   6.284   9.179  0.5104 -0.1511 -0.1772
 7448SOL    HW123795   0.251   6.249   9.182 -0.2544 -2.1413  0.9034
 7448SOL    HW223796   0.141   6.306   9.270 -0.7590 -1.5694 -0.0878
 7449SOL     OW23797   6.024   5.724   4.773 -0.0863 -0.1978  0.3610
 7449SOL    HW123798   6.017   5.814   4.741 -0.1514 -0.8238 -1.5228
 7449SOL    HW223799   5.939   5.706   4.812 -0.7060 -0.0023 -0.8532
 7450SOL     OW23800   6.547   7.309   5.449 -0.1949  0.1553  0.0655
 7450SOL    HW123801   6.545   7.228   5.398 -1.4305  1.1597 -1.5813
 7450SOL    HW223802   6.505   7.374   5.393  1.1968  2.0806  1.1355
 7451SOL     OW23803   1.401   0.024   0.462  0.3267 -0.4040 -0.1648
 7451SOL    HW123804   1.341   0.077   0.514 -0.5086 -0.2732 -1.2117
 7451SOL    HW223805   1.462   0.086   0.422 -0.3273 -0.2619 -0.9742
 7452SOL     OW23806   7.099   2.228   8.807  0.0075  0.5849 -0.5644
 7452SOL    HW123807   7.070   2.292   8.742 -1.9217  1.3406  0.9474
 7452SOL    HW223808   7.041   2.153   8.794 -1.2173  1.2023  0.9741
 7453SOL     OW23809   6.723   3.116   0.539  0.6113  0.3334 -0.3165
 7453SOL    HW123810   6.795   3.059   0.511  0.0924 -0.0001 -1.0045
 7453SOL    HW223811   6.709   3.176   0.466 -0.8806 -0.6664 -0.9135
 7454SOL     OW23812   1.559   5.291   5.717  0.5768 -0.4695 -0.5882
 7454SOL    HW123813   1.567   5.363   5.779  0.9881 -0.8925 -0.1341
 7454SOL    HW223814   1.478   5.247   5.742  0.7408 -0.6382 -0.3400
 7455SOL     OW23815   6.074   5.351   4.148  0.2831 -0.1538 -0.0562
 7455SOL    HW123816   6.095   5.419   4.211 -0.8183 -0.1695  0.3352
 7455SOL    HW223817   6.021   5.396   4.081 -0.6497 -0.6601  0.3280
 7456SOL     OW23818   4.070   8.941   5.220 -0.0832 -0.0406  0.3842
 7456SOL    HW123819   4.140   8.932   5.284  0.6201  1.6955 -0.0876
 7456SOL    HW223820   4.071   8.858   5.171  2.2373  0.2771 -0.1954
 7457SOL     OW23821   0.245   3.348   8.891  0.0007 -0.1267 -0.4168
 7457SOL    HW123822   0.272   3.335   8.800 -1.3260 -0.0436 -0.8421
 7457SOL    HW223823   0.187   3.273   8.910 -0.8101  0.5647 -0.0957
 7458SOL     OW23824   3.474   2.952   8.389  0.6858 -0.3807  0.4553
 7458SOL    HW123825   3.544   3.012   8.412  0.1086  0.1305  0.9324
 7458SOL    HW223826   3.511   2.896   8.321  0.9027  1.1986 -0.7639
 7459SOL     OW23827   8.629   6.993   6.498  0.4022 -0.5001  0.1987
 7459SOL    HW123828   8.556   7.014   6.557  0.3215  0.6215 -0.2945
 7459SOL    HW223829   8.699   6.964   6.557  0.5508  1.2504  0.9283
 7460SOL     OW23830   0.130   1.849   4.043  0.4896 -0.7982 -0.6964
 7460SOL    HW123831   0.190   1.827   4.114  0.1702  0.2010 -0.1072
 7460SOL    HW223832   0.163   1.931   4.008 -1.7414  0.9957  1.0950
 7461SOL     OW23833   3.207   3.018   3.779 -0.3169 -0.0003  0.1283
 7461SOL    HW123834   3.183   3.014   3.686 -0.6061 -1.6867  0.2431
 7461SOL    HW223835   3.282   2.959   3.786 -0.0575  0.4220  0.9017
 7462SOL     OW23836   8.360   6.743   5.708 -0.7103  0.3346 -0.0790
 7462SOL    HW123837   8.330   6.708   5.624  2.4842 -1.1395 -0.7656
 7462SOL    HW223838   8.359   6.668   5.767 -0.3178  0.7291  0.4346
 7463SOL     OW23839   6.827   0.932   1.290  0.7197  0.0856 -0.0579
 7463SOL    HW123840   6.808   0.983   1.369 -0.2148 -0.1592 -0.1071
 7463SOL    HW223841   6.753   0.950   1.232  1.0551 -0.2767 -0.6012
 7464SOL     OW23842   5.727   0.949   2.264  0.0301 -0.1738  0.2275
 7464SOL    HW123843   5.811   0.994   2.276 -0.3152  0.9162 -1.1889
 7464SOL    HW223844   5.693   0.939   2.353  1.0431  0.5614  0.7237
 7465SOL     OW23845   6.461   9.023   1.371 -0.3136  0.3307 -0.5159
 7465SOL    HW123846   6.552   9.003   1.391 -0.2509  0.7907 -0.3302
 7465SOL    HW223847   6.416   8.939   1.379 -0.0965  0.2925  0.5190
 7466SOL     OW23848   8.381   8.867   4.253  0.1669  0.2489  0.3852
 7466SOL    HW123849   8.382   8.899   4.163 -0.5669 -0.0161  0.2742
 7466SOL    HW223850   8.299   8.819   4.260  1.1689 -1.5194  0.5815
 7467SOL     OW23851   3.730   5.524   8.566  0.0921 -0.9012 -0.2853
 7467SOL    HW123852   3.691   5.590   8.510  0.2374  0.0915  0.7523
 7467SOL    HW223853   3.671   5.449   8.559 -0.0707 -0.6834 -1.4693
 7468SOL     OW23854   3.026   0.286   5.802  0.0831  0.1270 -0.3259
 7468SOL    HW123855   2.963   0.218   5.825  0.1699 -0.0608 -0.6335
 7468SOL    HW223856   3.101   0.238   5.766  0.1353  0.3859 -0.5667
 7469SOL     OW23857   0.254   5.700   2.934  0.1572  0.1472 -0.0409
 7469SOL    HW123858   0.239   5.723   3.025  1.5851 -0.7203  0.4424
 7469SOL    HW223859   0.237   5.781   2.885 -1.6850  0.3453  0.8407
 7470SOL     OW23860   8.426   2.144   2.722  0.5486  0.0410 -0.0106
 7470SOL    HW123861   8.413   2.238   2.737  0.4703  0.1085 -0.4733
 7470SOL    HW223862   8.499   2.140   2.660 -0.6881 -0.1167 -1.5050
 7471SOL     OW23863   0.962   7.095   4.332 -0.4112  0.3111 -0.1151
 7471SOL    HW123864   0.896   7.044   4.378  1.1245 -0.8764  0.8625
 7471SOL    HW223865   1.032   7.033   4.312  0.2568  1.4301 -1.5068
 7472SOL     OW23866   1.917   7.879   5.826 -0.0316  0.0088  0.1870
 7472SOL    HW123867   1.925   7.790   5.792 -0.3354 -0.1194  0.4442
 7472SOL    HW223868   1.971   7.880   5.905  1.4916  0.5953 -0.8184
 7473SOL     OW23869   2.306   2.432   1.948  0.4967 -0.1834 -0.0760
 7473SOL    HW123870   2.290   2.518   1.988  0.7748 -1.4771  3.0711
 7473SOL    HW223871   2.402   2.426   1.942  0.5010 -0.5243  0.3209
 7474SOL     OW23872   5.901   2.190   0.672 -0.0209  0.1246  0.3071
 7474SOL    HW123873   5.988   2.221   0.697  0.0613 -0.4322  0.7172
 7474SOL    HW223874   5.868   2.257   0.612 -0.5201  1.8865  2.4199
 7475SOL     OW23875   1.527   2.144   3.056  0.6743  0.4093  0.0606
 7475SOL    HW123876   1.529   2.182   3.144 -2.1512  2.0434 -0.4660
 7475SOL    HW223877   1.567   2.057   3.067  0.9367  0.7810  2.8005
 7476SOL     OW23878   4.988   5.937   0.680 -0.0682 -0.4286  0.4618
 7476SOL    HW123879   5.049   5.916   0.751  2.5675  0.1021 -1.4806
 7476SOL    HW223880   4.904   5.900   0.708  1.0789 -1.0671  3.3735
 7477SOL     OW23881   2.632   7.363   7.707 -0.3206  0.0818 -0.5719
 7477SOL    HW123882   2.651   7.313   7.627 -2.3410  1.7310 -2.1646
 7477SOL    HW223883   2.621   7.453   7.677 -0.4573  0.8716  1.7070
 7478SOL     OW23884   1.911   1.659   7.827  0.1951  0.0809  0.3436
 7478SOL    HW123885   1.821   1.685   7.809  0.3446 -0.1071 -0.7390
 7478SOL    HW223886   1.953   1.654   7.741  0.7286 -1.6764  0.6574
 7479SOL     OW23887   1.802   5.249   5.243  0.3348 -0.0353  0.1111
 7479SOL    HW123888   1.735   5.225   5.179 -1.0552  1.4019  0.9383
 7479SOL    HW223889   1.752   5.267   5.323  1.9096 -0.6635  1.2796
 7480SOL     OW23890   6.502   7.381   4.520  0.2836  0.3237 -0.1895
 7480SOL    HW123891   6.448   7.319   4.471 -0.3862 -1.1354  2.2016
 7480SOL    HW223892   6.572   7.328   4.557  0.7973  1.3682  0.3750
 7481SOL     OW23893   0.024   3.321   7.974  0.0085  0.5774  0.0747
 7481SOL    HW123894  -0.024   3.271   8.041  1.2692 -1.2356 -0.3094
 7481SOL    HW223895   0.047   3.402   8.018 -0.8444  0.2405  1.2171
 7482SOL     OW23896   1.247   5.056   6.764 -0.2633 -0.0864  0.1832
 7482SOL    HW123897   1.307   5.002   6.816 -1.1182 -0.9243  0.3334
 7482SOL    HW223898   1.218   5.125   6.824 -0.4438 -0.4412  0.5098
 7483SOL     OW23899   7.984   6.350   8.958 -0.0901  0.4404 -0.3953
 7483SOL    HW123900   8.028   6.264   8.962 -0.0002  0.5214  2.9689
 7483SOL    HW223901   7.899   6.331   8.920 -1.1962 -1.8294  2.7869
 7484SOL     OW23902   5.492   2.427   1.768 -0.0617  0.0849  0.6056
 7484SOL    HW123903   5.423   2.484   1.733 -0.0977  0.2562  0.9403
 7484SOL    HW223904   5.572   2.479   1.762 -0.0542  0.0853  0.6963
 7485SOL     OW23905   5.155   5.937   4.019 -0.1035  0.0339  0.1612
 7485SOL    HW123906   5.225   5.908   3.961 -0.6152  0.1287 -0.5163
 7485SOL    HW223907   5.164   5.883   4.097  1.2754  0.6470  0.4578
 7486SOL     OW23908   0.767   8.779   4.341  0.2871  0.4858  0.3914
 7486SOL    HW123909   0.694   8.834   4.370 -2.1114 -2.3656  0.2471
 7486SOL    HW223910   0.770   8.790   4.246  0.1791  0.7458  0.4181
 7487SOL     OW23911   3.971   3.871   3.278  0.2176  0.2679  0.2274
 7487SOL    HW123912   4.041   3.838   3.223 -0.8244 -0.5642 -0.6424
 7487SOL    HW223913   3.984   3.828   3.363  1.4129  1.0182  0.4547
 7488SOL     OW23914   8.476   6.018   5.583 -0.1802  0.4174 -1.0215
 7488SOL    HW123915   8.483   5.925   5.606  0.5342  0.8065  0.4867
 7488SOL    HW223916   8.485   6.020   5.488 -1.7550 -1.1826 -1.2649
 7489SOL     OW23917   1.100   0.783   8.198 -0.3436  0.3676 -0.6847
 7489SOL    HW123918   1.049   0.760   8.275  0.4081  0.6941 -0.0768
 7489SOL    HW223919   1.059   0.734   8.126 -3.0226  2.4952 -0.7199
 7490SOL     OW23920   2.149   2.736   4.252 -0.6300 -0.1220 -0.4459
 7490SOL    HW123921   2.137   2.810   4.312 -1.6003 -0.2464 -0.4787
 7490SOL    HW223922   2.234   2.752   4.211  0.2758 -0.2339  1.2544
 7491SOL     OW23923   0.032   8.147   9.116 -0.0848  0.4377 -0.7623
 7491SOL    HW123924  -0.057   8.117   9.101 -0.6134  1.5133  0.0459
 7491SOL    HW223925   0.030   8.241   9.095  0.8426  0.4921 -0.6860
 7492SOL     OW23926   5.666   1.362   2.217 -0.2830  0.0844 -0.2753
 7492SOL    HW123927   5.604   1.382   2.147  0.0423 -0.3858 -0.7050
 7492SOL    HW223928   5.618   1.302   2.275 -0.7850  0.9952  0.2830
 7493SOL     OW23929   8.765   4.679   7.511  0.5202 -0.2138  0.5147
 7493SOL    HW123930   8.676   4.677   7.547  0.2481 -0.0948 -0.1337
 7493SOL    HW223931   8.758   4.733   7.432  1.6281  1.6839  1.6571
 7494SOL     OW23932   4.664   5.983   4.067 -0.3981 -0.0126  0.4105
 7494SOL    HW123933   4.689   5.974   4.158 -1.8953  0.0642  0.8562
 7494SOL    HW223934   4.689   5.900   4.026  2.7244  0.8802  0.2102
 7495SOL     OW23935   5.697   6.678   3.285  0.0595 -0.4785 -0.5362
 7495SOL    HW123936   5.728   6.665   3.375 -1.4482 -0.5787 -0.0002
 7495SOL    HW223937   5.612   6.633   3.282 -0.6194  0.7960 -1.5601
 7496SOL     OW23938   4.480   3.564   8.065 -0.5073  0.3377  0.2847
 7496SOL    HW123939   4.441   3.561   7.978 -0.6149  1.0808  0.3046
 7496SOL    HW223940   4.533   3.484   8.070 -1.6253 -0.4421  0.0861
 7497SOL     OW23941   4.910   2.095   0.606 -0.5466 -0.2509  0.4060
 7497SOL    HW123942   4.939   2.044   0.682 -2.5057 -0.4342  1.0770
 7497SOL    HW223943   4.849   2.159   0.641 -0.7882  0.2744 -0.9078
 7498SOL     OW23944   4.870   7.685   4.225 -0.1865  0.4401 -0.3208
 7498SOL    HW123945   4.932   7.757   4.217  0.5495 -0.0430  0.8256
 7498SOL    HW223946   4.917   7.619   4.276 -1.8113  0.2513  1.0063
 7499SOL     OW23947   8.529   4.664   5.545  0.6798 -0.7612  0.7411
 7499SOL    HW123948   8.541   4.625   5.632  0.2848 -1.0995  0.6468
 7499SOL    HW223949   8.479   4.599   5.496  0.0516 -0.1663  0.5671
 7500SOL     OW23950   3.048   8.120   7.779 -0.3524  0.0996 -0.0643
 7500SOL    HW123951   2.953   8.131   7.780 -0.3568  0.0613  0.6604
 7500SOL    HW223952   3.083   8.206   7.756 -0.4786  0.9951  2.6825
 7501SOL     OW23953   2.078   9.137   1.446  0.3714 -0.1052 -0.7287
 7501SOL    HW123954   2.013   9.207   1.439 -0.9787 -1.3147 -0.7095
 7501SOL    HW223955   2.027   9.058   1.462  1.9376 -0.9090  0.6391
 7502SOL     OW23956   8.746   3.828   4.854  0.3635  0.2762  0.1281
 7502SOL    HW123957   8.841   3.818   4.863  0.3150  0.3203  0.6726
 7502SOL    HW223958   8.731   3.825   4.759  1.0334  1.3745 -0.0346
 7503SOL     OW23959   3.318   2.839   4.819 -0.0939  0.9668  0.4210
 7503SOL    HW123960   3.248   2.859   4.757  0.1413  0.5775  0.0177
 7503SOL    HW223961   3.387   2.901   4.798  0.7447 -0.3774 -1.0145
 7504SOL     OW23962   6.100   3.280   7.550  0.0034 -0.6123 -0.1589
 7504SOL    HW123963   6.115   3.254   7.641 -0.9938 -1.4745 -0.2250
 7504SOL    HW223964   6.132   3.207   7.498  0.9602  0.0535 -0.5387
 7505SOL     OW23965   9.171   4.622   8.539  0.1065  0.4555 -0.1376
 7505SOL    HW123966   9.184   4.636   8.633 -0.4105 -0.7615  0.1353
 7505SOL    HW223967   9.173   4.527   8.529 -0.4940  0.5494 -1.2698
 7506SOL     OW23968   6.490   7.916   1.475  0.5880 -0.0794 -0.2442
 7506SOL    HW123969   6.497   8.007   1.501 -1.1930  0.2613 -0.8090
 7506SOL    HW223970   6.493   7.918   1.379  1.5073 -0.7235 -0.2397
 7507SOL     OW23971   0.833   9.042   7.206  0.6110  0.2195  0.2636
 7507SOL    HW123972   0.759   8.987   7.231 -0.1206  1.0027 -0.1020
 7507SOL    HW223973   0.840   9.032   7.111  1.1068 -0.0057  0.3209
 7508SOL     OW23974   4.395   3.462   4.330 -0.5403  0.1671 -0.5272
 7508SOL    HW123975   4.362   3.502   4.250  0.4592 -1.3913 -1.7973
 7508SOL    HW223976   4.489   3.449   4.313 -0.6338 -1.8160  0.1369
 7509SOL     OW23977   1.343   0.191   2.076 -0.8825 -0.4872 -0.4529
 7509SOL    HW123978   1.394   0.260   2.119 -1.6307 -0.5011  0.4757
 7509SOL    HW223979   1.397   0.165   2.001  0.1602 -0.0281  0.1170
 7510SOL     OW23980   5.369   9.064   7.495 -0.2145 -0.1818  0.4089
 7510SOL    HW123981   5.394   9.154   7.519  0.3099  0.1227 -1.1817
 7510SOL    HW223982   5.448   9.013   7.512  0.0412 -0.0297 -0.2984
 7511SOL     OW23983   0.629   4.694   5.962  0.4069 -0.1701 -0.2091
 7511SOL    HW123984   0.611   4.730   6.049  0.0222 -1.5527  0.3046
 7511SOL    HW223985   0.719   4.722   5.944  0.4505  0.2446  0.5751
 7512SOL     OW23986   5.362   1.948   8.403  0.3099 -0.2272 -0.2719
 7512SOL    HW123987   5.410   1.893   8.466 -0.9279 -0.3305  0.6303
 7512SOL    HW223988   5.342   2.028   8.452  1.2398  0.6570 -1.2670
 7513SOL     OW23989   8.929   9.062   4.842 -0.5462  0.4310 -0.0848
 7513SOL    HW123990   8.846   9.034   4.804 -0.9732 -0.5839  1.4838
 7513SOL    HW223991   8.905   9.131   4.904 -0.4598 -0.9273  1.5138
 7514SOL     OW23992   2.477   8.315   6.726  0.2611 -0.0205 -0.0052
 7514SOL    HW123993   2.463   8.347   6.637 -1.0427 -1.7988 -0.5014
 7514SOL    HW223994   2.416   8.365   6.779 -1.9111 -1.6277 -0.8030
 7515SOL     OW23995   8.748   4.147   3.458  0.1839 -0.1923  0.3670
 7515SOL    HW123996   8.691   4.214   3.497 -0.1085 -0.7526  0.9347
 7515SOL    HW223997   8.813   4.196   3.408 -0.6810  0.4766 -0.1358
 7516SOL     OW23998   7.819   5.318   2.197  0.2704  0.3974 -0.5939
 7516SOL    HW123999   7.763   5.249   2.233 -1.8946  1.1795 -2.2571
 7516SOL    HW224000   7.905   5.300   2.234 -0.6912 -1.8674  0.7762
 7517SOL     OW24001   9.118   7.872   8.461  0.1749  0.1630 -0.5258
 7517SOL    HW124002   9.044   7.826   8.421  0.3276 -2.2756  1.7399
 7517SOL    HW224003   9.122   7.956   8.414 -1.3545 -1.3018 -3.5740
 7518SOL     OW24004   6.302   4.743   2.223  0.0093 -0.3616  0.6699
 7518SOL    HW124005   6.227   4.716   2.171  1.7612 -1.0400 -1.6748
 7518SOL    HW224006   6.265   4.770   2.308 -2.7775 -0.9799 -0.2682
 7519SOL     OW24007   8.462   0.876   6.662  0.1754  0.3414 -0.1930
 7519SOL    HW124008   8.553   0.858   6.686  0.3146  1.4019  0.1552
 7519SOL    HW224009   8.461   0.876   6.567  0.7831  1.3600 -0.2119
 7520SOL     OW24010   5.003   0.194   2.491  0.1225 -0.1011 -0.1038
 7520SOL    HW124011   5.027   0.204   2.583  0.6672  0.1899 -0.2742
 7520SOL    HW224012   4.976   0.281   2.463 -1.9535 -0.5557  0.2918
 7521SOL     OW24013   2.606   7.839   0.201 -0.8653  0.2413  0.3514
 7521SOL    HW124014   2.579   7.900   0.270 -1.4550  0.9357 -0.4875
 7521SOL    HW224015   2.524   7.802   0.168 -0.6675  0.7021 -0.6890
 7522SOL     OW24016   2.004   8.713   5.830  0.3237  0.5681  0.3343
 7522SOL    HW124017   1.997   8.671   5.744 -0.2242  1.6265 -0.1615
 7522SOL    HW224018   2.060   8.655   5.881 -0.4220 -0.7750 -0.3047
 7523SOL     OW24019   9.052   5.795   4.120 -0.6464  0.0694  0.1329
 7523SOL    HW124020   9.047   5.708   4.081 -0.8557  0.4265 -0.6585
 7523SOL    HW224021   9.130   5.793   4.175 -0.5943 -0.5835  0.0332
 7524SOL     OW24022   5.914   1.689   6.923 -0.6516  0.3233  0.5173
 7524SOL    HW124023   5.979   1.644   6.869 -0.3436 -1.8419  2.5120
 7524SOL    HW224024   5.957   1.769   6.952  0.7913 -0.5957  0.9986
 7525SOL     OW24025   1.560   1.727   5.987 -0.1889 -0.0117 -0.1736
 7525SOL    HW124026   1.619   1.702   6.057  0.2285  1.0494 -0.1332
 7525SOL    HW224027   1.609   1.791   5.935 -0.6688 -0.4086 -1.1469
 7526SOL     OW24028   5.353   5.055   4.604 -0.3415 -0.1435  0.4635
 7526SOL    HW124029   5.429   5.020   4.650  1.8341  2.2862 -1.0344
 7526SOL    HW224030   5.289   5.072   4.672  2.4930  2.7559  2.7282
 7527SOL     OW24031   2.848   2.979   4.754  0.2328  0.7089 -0.1750
 7527SOL    HW124032   2.762   3.001   4.720 -0.0133  0.2200  0.1203
 7527SOL    HW224033   2.869   3.051   4.813  1.0661  2.0395 -2.0061
 7528SOL     OW24034   0.656   4.092   4.070  0.3414 -0.3327  0.0499
 7528SOL    HW124035   0.636   4.116   3.980  1.3254  0.0101 -0.0852
 7528SOL    HW224036   0.620   4.163   4.123  0.8250  0.0829 -0.1664
 7529SOL     OW24037   3.179   1.817   0.450 -0.3367 -0.4696  0.4682
 7529SOL    HW124038   3.138   1.886   0.501  2.6432  3.4974 -1.8933
 7529SOL    HW224039   3.250   1.784   0.505 -0.2109  0.1802  0.6980
 7530SOL     OW24040   1.996   6.928   4.311  0.1630  0.4285 -0.0820
 7530SOL    HW124041   2.086   6.910   4.283  0.9123  1.5886  1.4635
 7530SOL    HW224042   1.992   7.023   4.319 -0.5582  0.2749  1.8740
 7531SOL     OW24043   4.823   0.997   4.470 -0.1678  0.2137 -0.2117
 7531SOL    HW124044   4.892   1.032   4.526  1.0742 -2.5462  0.1201
 7531SOL    HW224045   4.869   0.950   4.400 -1.6827 -1.1150 -0.3832
 7532SOL     OW24046   2.923   1.598   4.590 -0.4232  0.9850  0.0302
 7532SOL    HW124047   3.013   1.581   4.619 -0.5111  1.1160  0.3885
 7532SOL    HW224048   2.879   1.513   4.596 -0.5887  1.1156  0.8298
 7533SOL     OW24049   9.278   7.545   0.976  0.5241  0.5562 -0.1028
 7533SOL    HW124050   9.240   7.556   0.889  0.5438 -0.0650 -0.1951
 7533SOL    HW224051   9.349   7.481   0.964 -1.9768 -2.7348  1.0206
 7534SOL     OW24052   7.075   1.107   4.596  0.3055  0.1299 -0.0905
 7534SOL    HW124053   6.989   1.106   4.554  0.4645 -0.1145 -0.4105
 7534SOL    HW224054   7.059   1.148   4.681 -0.0914  0.2615 -0.2252
 7535SOL     OW24055   3.037   8.962   5.165  0.4410  0.1686  0.0096
 7535SOL    HW124056   3.005   8.971   5.255  0.7978 -0.7314  0.2326
 7535SOL    HW224057   3.035   8.868   5.148 -2.6302  0.4677 -2.0309
 7536SOL     OW24058   2.037   3.766   2.287  0.0442 -0.0630 -0.4927
 7536SOL    HW124059   2.086   3.808   2.357 -0.8734  2.5929 -1.3224
 7536SOL    HW224060   2.099   3.761   2.214 -0.0311  0.5345 -0.6041
 7537SOL     OW24061   1.162   1.937   4.810  0.0364  0.0811 -0.3138
 7537SOL    HW124062   1.236   1.877   4.797 -0.6222 -0.4080 -2.1712
 7537SOL    HW224063   1.163   1.957   4.903  0.6497 -2.3486  0.2593
 7538SOL     OW24064   8.884   5.055   8.781 -0.2415 -0.2275 -0.0022
 7538SOL    HW124065   8.896   4.961   8.768 -2.6921 -0.7183  0.7781
 7538SOL    HW224066   8.877   5.092   8.693 -1.4706 -1.1556 -0.3197
 7539SOL     OW24067   1.569   0.362   7.717  0.6341 -0.3825  0.0581
 7539SOL    HW124068   1.570   0.302   7.642  2.3588  0.5567 -0.7489
 7539SOL    HW224069   1.661   0.371   7.741  0.1252 -0.5800  2.2653
 7540SOL     OW24070   1.016   0.711   4.671 -0.2264  0.1335  0.5233
 7540SOL    HW124071   1.039   0.777   4.605  1.9752  1.4835  2.4387
 7540SOL    HW224072   1.100   0.673   4.696 -1.1708 -1.4152  1.4935
 7541SOL     OW24073   7.231   5.001   4.967  0.0596  0.1404  0.0139
 7541SOL    HW124074   7.217   4.913   4.930 -1.1447  0.6305 -0.7483
 7541SOL    HW224075   7.283   4.985   5.046  0.8094 -1.1505 -0.7014
 7542SOL     OW24076   6.844   2.967   6.725  0.1851 -0.2489 -0.1914
 7542SOL    HW124077   6.907   3.026   6.685  1.6203 -1.8074 -0.3305
 7542SOL    HW224078   6.896   2.894   6.758 -1.4040 -0.9429  0.9212
 7543SOL     OW24079   5.069   7.225   4.854  0.1166  0.5385  0.0714
 7543SOL    HW124080   4.981   7.206   4.886  0.5183 -2.0707 -0.1243
 7543SOL    HW224081   5.056   7.272   4.772 -1.0119  1.8635  0.9639
 7544SOL     OW24082   3.069   5.748   3.344  0.4244 -0.6449  0.3798
 7544SOL    HW124083   3.108   5.787   3.422 -2.8517  0.9232  1.4478
 7544SOL    HW224084   3.084   5.812   3.275 -0.3536  0.0360  0.8266
 7545SOL     OW24085   7.090   2.805   6.198 -0.1161 -0.5168 -0.3453
 7545SOL    HW124086   7.105   2.835   6.287 -0.4661 -1.0670 -0.0967
 7545SOL    HW224087   6.998   2.821   6.182  0.7263  3.8177 -2.2352
 7546SOL     OW24088   3.565   8.516   1.424 -0.0720  0.1504  0.4247
 7546SOL    HW124089   3.588   8.449   1.360  0.3073  2.0917 -1.6173
 7546SOL    HW224090   3.613   8.594   1.394 -0.5787  1.3757  2.6086
 7547SOL     OW24091   7.319   7.114   4.795  0.0569  0.2765  0.0482
 7547SOL    HW124092   7.352   7.037   4.841 -0.0020  0.3991  0.2978
 7547SOL    HW224093   7.368   7.115   4.712 -0.5072 -0.4773 -0.3147
 7548SOL     OW24094   2.602   4.824   6.387  0.3333  0.0424 -0.8536
 7548SOL    HW124095   2.642   4.750   6.433 -1.3394 -0.2415  0.2363
 7548SOL    HW224096   2.672   4.857   6.330  1.9886 -0.6337  0.6634
 7549SOL     OW24097   8.064   9.179   9.024  0.2092 -0.3972  0.0229
 7549SOL    HW124098   8.066   9.274   9.034  0.5557 -0.0012 -2.9128
 7549SOL    HW224099   7.971   9.156   9.028  0.0012  0.2862 -0.8164
 7550SOL     OW24100   0.278   3.160   2.365 -0.8504 -0.0183  0.7080
 7550SOL    HW124101   0.325   3.243   2.368 -0.9521  0.0510  0.4113
 7550SOL    HW224102   0.190   3.183   2.335 -0.6259 -0.3354 -0.2563
 7551SOL     OW24103   8.589   3.469   2.321 -0.0839 -0.2489  0.3767
 7551SOL    HW124104   8.578   3.517   2.239  1.0594  0.5887  0.6819
 7551SOL    HW224105   8.501   3.459   2.355 -0.4280  0.8867 -0.1299
 7552SOL     OW24106   3.055   0.154   1.419 -0.7054 -0.3118  0.4941
 7552SOL    HW124107   3.022   0.226   1.471 -0.3175  0.2128  0.0226
 7552SOL    HW224108   3.082   0.194   1.336  1.2973 -0.6555  0.9124
 7553SOL     OW24109   0.560   6.647   8.388  0.0280 -0.1863 -0.3860
 7553SOL    HW124110   0.593   6.597   8.313 -0.9248 -0.8759 -0.3545
 7553SOL    HW224111   0.474   6.678   8.360  0.0836  0.3855  0.0659
 7554SOL     OW24112   1.089   6.688   8.560 -0.0483 -0.5810 -0.1601
 7554SOL    HW124113   1.005   6.673   8.602  0.5733 -0.8611  1.0346
 7554SOL    HW224114   1.110   6.779   8.580  0.0644 -0.5961 -0.2063
 7555SOL     OW24115   2.708   8.413   8.985 -0.5339 -0.4312  0.3549
 7555SOL    HW124116   2.674   8.396   8.898 -1.2390  0.3841  0.4589
 7555SOL    HW224117   2.799   8.384   8.981 -0.1796  0.7745 -1.0456
 7556SOL     OW24118   0.608   0.154   0.530  0.0844  0.2374  0.1737
 7556SOL    HW124119   0.591   0.249   0.537  0.1158  0.3585 -1.2590
 7556SOL    HW224120   0.577   0.119   0.614  1.0522  1.6456  1.1653
 7557SOL     OW24121   8.023   3.968   7.109  0.4002  0.4280 -0.3760
 7557SOL    HW124122   8.085   4.023   7.060 -0.3671  1.6271 -0.0428
 7557SOL    HW224123   7.959   3.940   7.044  1.0823 -0.5404 -0.6537
 7558SOL     OW24124   6.969   1.844   1.476  0.5243 -0.6471  0.8175
 7558SOL    HW124125   6.980   1.862   1.569  0.3165  2.8395  0.2942
 7558SOL    HW224126   7.017   1.914   1.432 -0.4830 -1.4185 -1.6927
 7559SOL     OW24127   5.215   5.047   1.237  0.4165 -0.2823  0.7840
 7559SOL    HW124128   5.121   5.067   1.241  0.4742  0.1257  0.1416
 7559SOL    HW224129   5.254   5.123   1.196  0.6295 -1.6958 -1.8387
 7560SOL     OW24130   8.134   2.802   5.935  0.1940  0.2201 -0.2014
 7560SOL    HW124131   8.125   2.898   5.937  2.8571  0.5596 -0.1221
 7560SOL    HW224132   8.200   2.786   5.868  1.6531 -1.3133  1.4721
 7561SOL     OW24133   7.079   3.741   1.511 -0.1237  0.2779 -0.3873
 7561SOL    HW124134   7.101   3.808   1.445 -0.1650 -1.6381 -2.4810
 7561SOL    HW224135   7.155   3.739   1.569 -0.4423  2.6135  0.1960
 7562SOL     OW24136   1.619   8.835   6.060 -0.4386 -0.6316  0.0670
 7562SOL    HW124137   1.566   8.857   6.136  0.3597 -0.3973  0.5654
 7562SOL    HW224138   1.681   8.769   6.092  2.0449  1.7625  0.5073
 7563SOL     OW24139   1.311   2.937   3.790  0.1215  0.0928 -0.2035
 7563SOL    HW124140   1.297   2.932   3.885 -1.9409 -1.0048 -0.5128
 7563SOL    HW224141   1.368   3.013   3.779 -0.5448  0.9711  1.8354
 7564SOL     OW24142   8.123   1.623   8.677 -0.1090  0.2709  0.1986
 7564SOL    HW124143   8.142   1.687   8.608 -2.0985 -0.4377 -1.1087
 7564SOL    HW224144   8.041   1.653   8.716 -0.8339 -1.1868 -0.1225
 7565SOL     OW24145   8.352   3.204   4.778  0.6886 -0.3565 -0.0117
 7565SOL    HW124146   8.321   3.265   4.846  1.6949  0.5232 -0.3056
 7565SOL    HW224147   8.421   3.253   4.733 -0.1633 -0.8172 -1.8841
 7566SOL     OW24148   1.263   4.423   3.463 -0.0695  0.2040 -0.3902
 7566SOL    HW124149   1.335   4.385   3.514 -1.0933 -0.6112  0.4848
 7566SOL    HW224150   1.288   4.408   3.372  0.6454 -0.5236 -0.0905
 7567SOL     OW24151   8.070   0.169   4.980 -0.4047 -0.0893  0.5569
 7567SOL    HW124152   8.059   0.087   5.030 -0.9903 -0.1519  0.3321
 7567SOL    HW224153   8.038   0.148   4.892 -0.3059  0.3062  0.4244
 7568SOL     OW24154   1.997   6.488   6.506  0.0712  0.0241  0.0889
 7568SOL    HW124155   2.050   6.463   6.581 -2.1667 -1.0124  1.4142
 7568SOL    HW224156   1.949   6.409   6.482 -1.5814  1.1151 -0.4116
 7569SOL     OW24157   2.276   8.172   5.132  0.1455 -0.1814  0.2968
 7569SOL    HW124158   2.266   8.119   5.212 -0.6078  2.3498  1.9941
 7569SOL    HW224159   2.232   8.121   5.064 -0.2044 -1.9024  1.7285
 7570SOL     OW24160   4.693   1.651   0.974  0.8906  0.4663 -0.3280
 7570SOL    HW124161   4.740   1.674   1.054  1.4228  0.4967 -0.6424
 7570SOL    HW224162   4.641   1.729   0.955  1.8584  1.0240 -0.7879
 7571SOL     OW24163   1.567   0.805   3.014 -0.2809 -0.2297  0.1914
 7571SOL    HW124164   1.590   0.713   3.006 -0.0387 -0.1972  0.5217
 7571SOL    HW224165   1.647   0.848   3.044 -1.0618 -0.3048  2.5990
 7572SOL     OW24166   8.948   3.313   8.614  0.5597  0.5746 -0.2345
 7572SOL    HW124167   9.018   3.335   8.553  1.0489  0.9379  0.4529
 7572SOL    HW224168   8.867   3.330   8.565  0.9467  0.4375 -0.9255
 7573SOL     OW24169   5.055   2.431   6.440 -0.3681  0.3862  0.0408
 7573SOL    HW124170   5.090   2.350   6.402 -0.8330  0.0537  0.3081
 7573SOL    HW224171   5.128   2.468   6.488 -0.5212 -0.6331  1.1305
 7574SOL     OW24172   1.567   6.687   4.681 -0.0312  0.2608  0.0116
 7574SOL    HW124173   1.537   6.640   4.759  1.3788 -0.3765  0.2049
 7574SOL    HW224174   1.643   6.738   4.712 -0.9788  2.0112 -0.3894
 7575SOL     OW24175   9.178   5.602   4.502 -0.7583 -0.8037 -0.7184
 7575SOL    HW124176   9.236   5.541   4.457 -1.6173 -1.9790 -0.2924
 7575SOL    HW224177   9.107   5.547   4.535 -1.3640  0.3826  0.0157
 7576SOL     OW24178   1.817   4.001   5.820 -0.0199  0.2109  0.3191
 7576SOL    HW124179   1.742   4.055   5.845 -1.8152 -0.4009 -3.1210
 7576SOL    HW224180   1.809   3.923   5.876 -2.3100 -0.0279 -0.2163
 7577SOL     OW24181   1.483   4.412   6.433  0.1331 -0.5168  0.2240
 7577SOL    HW124182   1.493   4.317   6.439  2.6432 -0.2660  1.7254
 7577SOL    HW224183   1.517   4.434   6.346  0.2062 -0.9296  0.1469
 7578SOL     OW24184   4.083   8.607   5.532  0.6416  0.1840 -0.2221
 7578SOL    HW124185   4.036   8.616   5.449 -0.1869  0.1798  0.2394
 7578SOL    HW224186   4.130   8.691   5.542 -1.1591  1.1677  0.4538
 7579SOL     OW24187   1.917   8.176   3.609 -0.3042 -0.1250 -0.5398
 7579SOL    HW124188   1.955   8.205   3.526  0.2172 -0.5786 -0.4648
 7579SOL    HW224189   1.823   8.170   3.592 -0.1659 -0.5093 -1.1944
 7580SOL     OW24190   2.558   1.001   7.782  0.6038  0.2488 -0.4738
 7580SOL    HW124191   2.599   1.063   7.722  0.1491  2.3720  1.3108
 7580SOL    HW224192   2.554   0.919   7.732  1.0638  1.6586 -2.9894
 7581SOL     OW24193   7.672   5.546   5.197  0.2527 -0.0596 -0.0115
 7581SOL    HW124194   7.722   5.591   5.129 -0.4307 -0.5147 -0.8455
 7581SOL    HW224195   7.635   5.470   5.152 -1.3836  0.3991  0.4859
 7582SOL     OW24196   1.894   6.969   1.287 -0.1053  0.8208 -0.0475
 7582SOL    HW124197   1.852   6.883   1.282  0.2770  0.6800 -0.9622
 7582SOL    HW224198   1.972   6.961   1.233  0.7550  1.2846  1.1005
 7583SOL     OW24199   4.589   1.917   2.561 -0.4093 -0.2606 -0.5344
 7583SOL    HW124200   4.681   1.892   2.565 -0.2742 -0.2012 -2.3475
 7583SOL    HW224201   4.580   1.989   2.624  0.7231 -0.3843 -0.2094
 7584SOL     OW24202   1.908   1.685   5.920 -0.0384 -0.9917 -0.4588
 7584SOL    HW124203   1.899   1.591   5.905 -0.0961 -0.8912 -1.0823
 7584SOL    HW224204   1.958   1.717   5.844  0.1358 -0.5515 -0.1628
 7585SOL     OW24205   4.004   6.765   7.313  0.1783 -0.3437  0.3192
 7585SOL    HW124206   4.039   6.703   7.377  1.6884  0.6977  0.5436
 7585SOL    HW224207   4.063   6.758   7.238  0.0169  0.4012  0.1163
 7586SOL     OW24208   4.925   6.427   1.644  0.2115  0.2558 -0.4424
 7586SOL    HW124209   4.972   6.428   1.728 -0.4507 -2.0837  0.0214
 7586SOL    HW224210   4.833   6.416   1.669  0.0242 -0.5977 -1.4621
 7587SOL     OW24211   6.844   0.386   3.643  0.0240 -0.6690  0.3597
 7587SOL    HW124212   6.855   0.470   3.598 -1.1683 -0.5325  0.2919
 7587SOL    HW224213   6.931   0.368   3.681  0.2977  0.6078  0.4138
 7588SOL     OW24214   1.115   4.976   4.010  0.4877  0.0241 -0.7243
 7588SOL    HW124215   1.168   5.016   3.941  0.4352  1.6064  0.0964
 7588SOL    HW224216   1.042   5.037   4.022  0.4397 -0.2698  0.6438
 7589SOL     OW24217   8.105   3.115   2.339  0.7473  0.0315  0.0412
 7589SOL    HW124218   8.167   3.045   2.360  0.4624 -0.2009  0.1117
 7589SOL    HW224219   8.083   3.101   2.247 -0.5394 -0.9494  0.4714
 7590SOL     OW24220   0.887   2.442   2.974 -0.0396  0.2239  0.3932
 7590SOL    HW124221   0.894   2.537   2.977  0.5321  0.1938  0.2271
 7590SOL    HW224222   0.840   2.424   2.893 -0.6364  0.3843  0.7014
 7591SOL     OW24223   5.749   5.207   4.339 -0.3632 -0.4044  0.1829
 7591SOL    HW124224   5.710   5.124   4.311  1.7211 -1.2943 -0.3334
 7591SOL    HW224225   5.765   5.255   4.257 -1.3418  0.4188  0.4631
 7592SOL     OW24226   1.331   3.451   6.213 -0.1838 -0.3276  1.0075
 7592SOL    HW124227   1.329   3.366   6.170  2.7671 -0.0311  0.0729
 7592SOL    HW224228   1.389   3.438   6.288  0.4300  0.8750  0.7602
 7593SOL     OW24229   8.189   7.181   2.360  0.4157  0.2464  0.1252
 7593SOL    HW124230   8.097   7.177   2.335 -0.0030 -0.8806  1.6211
 7593SOL    HW224231   8.237   7.166   2.279 -0.8127 -2.2284 -0.2608
 7594SOL     OW24232   7.768   4.312   2.530 -0.9786  0.1577  0.3269
 7594SOL    HW124233   7.714   4.265   2.594 -0.2186  1.4375  1.9968
 7594SOL    HW224234   7.858   4.299   2.560 -0.4998 -0.2502 -1.2295
 7595SOL     OW24235   0.756   7.937   2.229  0.0728  0.3212 -0.3986
 7595SOL    HW124236   0.663   7.917   2.235 -0.0218  0.7510 -0.4233
 7595SOL    HW224237   0.797   7.881   2.296  0.2232 -2.3810 -2.5873
 7596SOL     OW24238   7.852   2.950   4.282  0.1857 -0.1100 -0.0821
 7596SOL    HW124239   7.773   2.916   4.324  0.8456 -0.3286  1.0288
 7596SOL    HW224240   7.878   2.881   4.221 -0.1463 -0.2902 -0.0247
 7597SOL     OW24241   8.113   0.643   1.967  0.7427  0.3365  0.1878
 7597SOL    HW124242   8.122   0.617   2.059  0.9852  2.6059  0.8750
 7597SOL    HW224243   8.195   0.688   1.947 -0.7775  3.3102  0.1463
 7598SOL     OW24244   1.141   0.483   2.276  0.2174 -0.3645 -0.1498
 7598SOL    HW124245   1.143   0.576   2.255 -0.6758 -0.4281 -0.5631
 7598SOL    HW224246   1.101   0.442   2.199  2.3563 -1.3469 -0.8113
 7599SOL     OW24247   7.597   6.459   3.745 -0.2543  0.0201  0.4194
 7599SOL    HW124248   7.646   6.541   3.735  0.9837 -0.7894 -0.4447
 7599SOL    HW224249   7.639   6.415   3.819 -0.3046 -0.2593  0.2816
 7600SOL     OW24250   4.610   7.933   7.476  0.3282  0.5916 -0.3754
 7600SOL    HW124251   4.633   8.008   7.531 -1.4415  0.7115  0.2670
 7600SOL    HW224252   4.681   7.928   7.412  0.9123  2.3038  0.0813
 7601SOL     OW24253   8.902   5.748   2.450  0.5947 -0.0581 -0.4169
 7601SOL    HW124254   8.949   5.678   2.496 -0.5412 -0.4806  0.1390
 7601SOL    HW224255   8.927   5.738   2.358  0.1260 -1.4750 -0.4121
 7602SOL     OW24256   6.933   2.429   3.679  0.0388 -0.0952 -0.3725
 7602SOL    HW124257   6.901   2.517   3.656  0.7593  0.8965  2.0189
 7602SOL    HW224258   6.888   2.408   3.761 -0.6286 -2.3133 -1.2423
 7603SOL     OW24259   7.673   1.780   4.561 -0.7902 -0.0325 -0.4389
 7603SOL    HW124260   7.767   1.784   4.577 -0.9023  0.1136  0.2246
 7603SOL    HW224261   7.663   1.715   4.491  0.0439  2.0953 -2.6641
 7604SOL     OW24262   3.847   7.004   6.379  0.0267 -0.5929  0.1266
 7604SOL    HW124263   3.880   7.052   6.303 -0.1344  0.4354  0.6899
 7604SOL    HW224264   3.805   6.927   6.342  1.1682 -0.8286 -0.7439
 7605SOL     OW24265   6.068   1.162   8.204 -0.3201 -0.2093  0.1685
 7605SOL    HW124266   6.133   1.113   8.255  1.3361  0.0857 -1.5031
 7605SOL    HW224267   6.069   1.119   8.118 -1.0390  0.9194 -0.4261
 7606SOL     OW24268   7.942   7.474   0.354 -0.1495  0.0004  0.6077
 7606SOL    HW124269   7.912   7.400   0.408 -0.8299  0.4323  0.8384
 7606SOL    HW224270   7.896   7.550   0.390 -0.9199  0.2430 -0.8346
 7607SOL     OW24271   7.881   7.837   7.313 -0.2268  0.3142 -0.1642
 7607SOL    HW124272   7.975   7.847   7.296 -0.3036 -0.5128 -1.1952
 7607SOL    HW224273   7.873   7.751   7.355 -0.7391 -0.8180 -2.4113
 7608SOL     OW24274   8.373   1.842   9.050 -0.2506 -0.0318 -0.4065
 7608SOL    HW124275   8.291   1.869   9.091 -0.1335 -0.1593 -0.0903
 7608SOL    HW224276   8.348   1.821   8.960 -1.0006 -2.1955  0.2329
 7609SOL     OW24277   1.943   3.326   3.657  0.0624  0.5466 -0.0160
 7609SOL    HW124278   1.886   3.403   3.666 -0.4437  0.3868 -1.4717
 7609SOL    HW224279   1.953   3.293   3.746 -3.4205 -0.2963  0.2278
 7610SOL     OW24280   3.313   4.218   7.955 -0.0771  0.2926  0.3274
 7610SOL    HW124281   3.406   4.236   7.940  0.0463 -0.9665 -0.5723
 7610SOL    HW224282   3.268   4.291   7.913  0.4768  0.1741 -0.4979
 7611SOL     OW24283   6.724   4.450   4.151  0.1715  0.4053  0.1356
 7611SOL    HW124284   6.702   4.535   4.190 -1.2747  0.3255 -0.4338
 7611SOL    HW224285   6.673   4.387   4.203  0.0658  0.0497 -0.3977
 7612SOL     OW24286   0.809   8.159   7.453 -0.3029  0.1930  0.5598
 7612SOL    HW124287   0.884   8.175   7.396 -0.8730  0.3813 -0.1438
 7612SOL    HW224288   0.847   8.155   7.541  0.5673 -0.0008  0.1852
 7613SOL     OW24289   6.690   7.512   2.752  0.1805 -0.3248  0.4127
 7613SOL    HW124290   6.687   7.446   2.822  0.2653 -0.4951  0.2554
 7613SOL    HW224291   6.599   7.539   2.742  0.0348 -0.9598 -0.0365
 7614SOL     OW24292   0.461   4.336   4.497 -0.3849 -0.1698 -0.3412
 7614SOL    HW124293   0.435   4.415   4.450  1.3823 -0.8451 -2.6837
 7614SOL    HW224294   0.431   4.264   4.440 -1.8021 -1.2624  1.6428
 7615SOL     OW24295   8.943   8.747   6.039  0.5072  0.0419  0.3611
 7615SOL    HW124296   8.986   8.816   6.089  0.4083  0.7272 -0.4841
 7615SOL    HW224297   8.936   8.782   5.950 -0.1375 -0.7951  0.0704
 7616SOL     OW24298   3.565   2.880   3.783  0.3659 -0.1328 -0.2004
 7616SOL    HW124299   3.565   2.969   3.746  0.4472  0.7306  1.7323
 7616SOL    HW224300   3.632   2.833   3.734  1.0875  1.2098 -0.5457
 7617SOL     OW24301   8.326   4.622   3.257 -0.3784 -0.3811  0.4034
 7617SOL    HW124302   8.414   4.603   3.289 -1.2661 -1.4045  2.4180
 7617SOL    HW224303   8.329   4.602   3.163  1.7485  0.5210  0.2281
 7618SOL     OW24304   4.143   1.393   1.978 -0.3824 -0.2234 -0.3699
 7618SOL    HW124305   4.213   1.405   1.914 -0.0857  0.6051  0.0974
 7618SOL    HW224306   4.081   1.463   1.959 -0.8668 -0.6739 -0.4828
 7619SOL     OW24307   4.437   2.076   4.814 -0.4012 -0.3694 -0.0123
 7619SOL    HW124308   4.392   2.149   4.771 -0.2430 -0.6264 -0.6234
 7619SOL    HW224309   4.413   2.084   4.906 -0.2312  0.5730 -0.0408
 7620SOL     OW24310   7.732   3.049   2.645  0.2942 -0.3781 -0.0322
 7620SOL    HW124311   7.811   3.025   2.692 -0.0188  0.5654  1.0309
 7620SOL    HW224312   7.683   3.103   2.707  0.0007  1.1773 -1.5271
 7621SOL     OW24313   3.042   9.054   6.532 -0.6081  0.1299 -0.5485
 7621SOL    HW124314   2.975   8.986   6.530 -0.5008  0.0281 -0.7237
 7621SOL    HW224315   2.994   9.136   6.519 -0.5577 -0.0483 -1.9690
 7622SOL     OW24316   5.937   1.767   5.737 -0.2543  0.0997 -0.1597
 7622SOL    HW124317   6.007   1.748   5.675 -0.3886  0.8957 -0.5741
 7622SOL    HW224318   5.868   1.704   5.717 -0.5079  0.6819 -1.1752
 7623SOL     OW24319   3.415   0.029   1.407 -0.1944  0.1719  0.5103
 7623SOL    HW124320   3.352  -0.040   1.389 -2.1815  1.7755  0.9813
 7623SOL    HW224321   3.499  -0.006   1.377 -1.2552 -2.1113  0.0484
 7624SOL     OW24322   0.957   5.168   4.135  0.1874  0.2184  0.6311
 7624SOL    HW124323   1.033   5.186   4.189 -0.9069  1.3562  1.8461
 7624SOL    HW224324   0.922   5.254   4.113  0.4650 -0.1987 -1.7670
 7625SOL     OW24325   1.048   3.585   5.471  0.1740 -0.3652 -0.7744
 7625SOL    HW124326   1.004   3.509   5.509 -0.8743  1.1724  1.2304
 7625SOL    HW224327   1.141   3.571   5.491 -0.3179  0.3811  2.5520
 7626SOL     OW24328   0.141   8.303   2.372 -0.2356  0.3734 -0.2687
 7626SOL    HW124329   0.236   8.290   2.371  0.1402  2.6803 -0.4806
 7626SOL    HW224330   0.110   8.252   2.447  1.0459 -0.9730 -0.6046
 7627SOL     OW24331   6.358   8.344   1.482 -0.2570 -0.5753 -0.8367
 7627SOL    HW124332   6.371   8.344   1.387  0.9017 -0.4516 -0.6806
 7627SOL    HW224333   6.445   8.353   1.519 -0.9206  2.4093  0.2356
 7628SOL     OW24334   7.181   7.753   4.044 -0.0581 -0.4511 -0.1028
 7628SOL    HW124335   7.144   7.787   4.126  1.0031  1.2615 -0.2738
 7628SOL    HW224336   7.252   7.814   4.023  0.8209 -1.8430 -1.4050
 7629SOL     OW24337   3.042   1.163   8.643  0.5178  0.1493 -0.4511
 7629SOL    HW124338   3.135   1.182   8.649  0.7877 -1.5597  1.5937
 7629SOL    HW224339   3.015   1.140   8.732 -1.8190  0.3663 -1.0248
 7630SOL     OW24340   0.079   6.524   0.289 -0.4833  0.7935  0.7634
 7630SOL    HW124341   0.051   6.615   0.300 -0.9350  0.5072  2.2012
 7630SOL    HW224342   0.166   6.521   0.329 -0.2670  0.6927  0.2900
 7631SOL     OW24343   0.504   3.914   1.128 -0.6747  0.5012 -0.1139
 7631SOL    HW124344   0.469   3.917   1.217 -1.0770 -4.3980  0.1581
 7631SOL    HW224345   0.427   3.925   1.072 -1.2824 -1.1276  0.3325
 7632SOL     OW24346   7.785   0.393   0.006 -0.5380  0.0258  0.4002
 7632SOL    HW124347   7.722   0.396  -0.066 -0.6015  1.1348  0.4839
 7632SOL    HW224348   7.731   0.403   0.085 -0.5135 -1.5585  0.6544
 7633SOL     OW24349   0.192   3.844   2.966  0.4192 -0.2423  0.5639
 7633SOL    HW124350   0.267   3.846   2.907  0.3203  0.5733  0.4502
 7633SOL    HW224351   0.121   3.806   2.913  0.4323  0.1223  0.2828
 7634SOL     OW24352   6.759   7.665   4.519 -0.3205  0.5599 -0.0694
 7634SOL    HW124353   6.793   7.710   4.596 -2.8012  0.3521  1.2474
 7634SOL    HW224354   6.770   7.727   4.447  1.7068  0.8954  0.4831
 7635SOL     OW24355   3.182   0.845   8.867  0.0261  0.0384 -0.1980
 7635SOL    HW124356   3.254   0.887   8.914 -0.4827 -0.0191  0.6637
 7635SOL    HW224357   3.223   0.773   8.819  0.8652  1.3190 -1.4663
 7636SOL     OW24358   6.853   9.154   5.242  0.0554  0.3498  0.2697
 7636SOL    HW124359   6.811   9.218   5.301  1.5410  0.0521  1.7205
 7636SOL    HW224360   6.807   9.072   5.260  1.4977 -0.0972  2.2493
 7637SOL     OW24361   2.051   2.050   7.185  0.1961 -0.2815  0.6985
 7637SOL    HW124362   2.012   1.981   7.131  1.1449  0.3875 -0.9258
 7637SOL    HW224363   1.977   2.104   7.212 -0.5947 -2.0245  2.2127
 7638SOL     OW24364   8.966   1.839   6.273  0.1125 -0.1306  0.1984
 7638SOL    HW124365   8.879   1.877   6.273 -0.2236 -0.8749  0.3647
 7638SOL    HW224366   8.978   1.805   6.184 -0.4231 -1.4459  0.6038
 7639SOL     OW24367   5.349   5.066   4.337  0.2386 -0.6985 -0.0033
 7639SOL    HW124368   5.441   5.042   4.323 -0.0822 -1.3263 -1.1265
 7639SOL    HW224369   5.340   5.073   4.433  1.5203 -0.3186  0.1054
 7640SOL     OW24370   3.961   8.600   2.864  0.0295 -0.1554 -0.3065
 7640SOL    HW124371   3.916   8.636   2.788  0.1533 -1.5015 -1.0493
 7640SOL    HW224372   3.945   8.506   2.859  1.8969 -0.5398  0.0656
 7641SOL     OW24373   1.053   1.391   2.347 -0.2585 -0.0624 -0.1104
 7641SOL    HW124374   1.140   1.368   2.313 -0.1729 -1.3176  0.8992
 7641SOL    HW224375   1.010   1.435   2.274  1.2320  0.6136 -0.6275
 7642SOL     OW24376   1.294   8.901   1.413  0.4655 -0.2969 -0.3316
 7642SOL    HW124377   1.296   8.944   1.499 -0.2638 -1.4234  0.2743
 7642SOL    HW224378   1.376   8.928   1.371  0.9652  0.0636  0.8262
 7643SOL     OW24379   1.288   1.976   3.678  0.0341 -0.0116 -0.0624
 7643SOL    HW124380   1.352   2.042   3.705  0.1134 -0.4897  1.0069
 7643SOL    HW224381   1.342   1.904   3.644  0.0966 -0.4297  0.8728
 7644SOL     OW24382   0.617   2.815   3.798  0.1126  0.3180  0.0781
 7644SOL    HW124383   0.624   2.724   3.827  3.4607  0.3180 -0.3053
 7644SOL    HW224384   0.580   2.810   3.710 -0.4370 -0.5637  0.3449
 7645SOL     OW24385   5.558   1.123   5.458  0.1750  0.0213 -0.0332
 7645SOL    HW124386   5.561   1.091   5.368 -0.7466 -0.0400 -0.0480
 7645SOL    HW224387   5.582   1.047   5.511 -1.0063 -0.4277 -0.1302
 7646SOL     OW24388   3.153   0.782   3.071  0.1495 -0.3949 -0.1124
 7646SOL    HW124389   3.135   0.702   3.120 -0.1739  0.1578  0.6794
 7646SOL    HW224390   3.068   0.809   3.037  0.1455 -0.0070  0.2052
 7647SOL     OW24391   1.772   3.761   6.361  0.5326 -0.1662  0.1821
 7647SOL    HW124392   1.736   3.842   6.325 -1.2686 -0.6800  0.7410
 7647SOL    HW224393   1.865   3.778   6.370  0.5357  1.0843 -1.7145
 7648SOL     OW24394   7.232   0.218   4.942 -0.2044  0.0949 -0.0777
 7648SOL    HW124395   7.312   0.179   4.978  1.9020  3.7684 -0.2883
 7648SOL    HW224396   7.163   0.192   5.003  1.4243 -1.7888  1.0979
 7649SOL     OW24397   7.124   0.980   0.329  0.5516  0.2748 -0.0098
 7649SOL    HW124398   7.091   1.061   0.291  1.8261  1.7639  1.8699
 7649SOL    HW224399   7.073   0.911   0.286 -1.9094  2.1537 -0.3289
 7650SOL     OW24400   6.399   7.135   6.784 -0.1936 -0.3081 -0.3879
 7650SOL    HW124401   6.490   7.108   6.774 -0.1298 -0.4481  0.5195
 7650SOL    HW224402   6.386   7.143   6.879 -0.7785  0.9062 -0.5501
 7651SOL     OW24403   3.835   3.202   5.121 -0.6697  0.3609 -0.4894
 7651SOL    HW124404   3.766   3.246   5.171 -2.3402  1.0120 -3.1711
 7651SOL    HW224405   3.909   3.262   5.125 -1.3010  1.1342 -0.1091
 7652SOL     OW24406   3.168   8.373   6.932  0.0047  0.4776  0.1385
 7652SOL    HW124407   3.190   8.463   6.956 -1.4510  1.1934 -1.0685
 7652SOL    HW224408   3.193   8.321   7.009  1.2218  1.8340  0.7169
 7653SOL     OW24409   6.472   5.502   5.098 -1.0445 -0.0102 -0.3604
 7653SOL    HW124410   6.378   5.486   5.097 -1.1304  0.3102  0.9339
 7653SOL    HW224411   6.482   5.585   5.144 -0.1382  0.1239 -0.7731
 7654SOL     OW24412   0.396   2.171   0.207 -0.0937  0.0628 -0.3056
 7654SOL    HW124413   0.346   2.172   0.126 -0.9191  2.1462  0.1565
 7654SOL    HW224414   0.339   2.129   0.271 -0.0455 -0.2492 -0.4698
 7655SOL     OW24415   0.376   2.879   8.157  0.3714 -0.2739 -0.3054
 7655SOL    HW124416   0.450   2.903   8.101  1.5881 -1.3679  0.7748
 7655SOL    HW224417   0.403   2.798   8.199 -0.9858 -0.0972  0.9778
 7656SOL     OW24418   6.842   0.812   2.204  0.0584 -0.0732 -0.4978
 7656SOL    HW124419   6.807   0.881   2.261 -0.4556 -1.9443  1.5902
 7656SOL    HW224420   6.919   0.780   2.250 -0.7719 -2.1211 -0.4516
 7657SOL     OW24421   1.348   4.760   4.737 -0.1889 -0.0928  0.3715
 7657SOL    HW124422   1.318   4.670   4.752  1.4515 -0.5797  0.9747
 7657SOL    HW224423   1.329   4.776   4.645  1.1820 -1.7813 -0.2635
 7658SOL     OW24424   4.155   1.456   7.827 -0.6851 -0.5010 -0.2425
 7658SOL    HW124425   4.086   1.460   7.893  0.9827  0.1336  1.5944
 7658SOL    HW224426   4.236   1.444   7.878  0.5090 -1.8443 -2.3217
 7659SOL     OW24427   0.593   8.931   0.843 -0.1300  0.2910 -0.2762
 7659SOL    HW124428   0.673   8.930   0.791 -0.5807  1.3627 -1.0284
 7659SOL    HW224429   0.549   9.013   0.818 -1.7981 -0.5987 -0.4314
 7660SOL     OW24430   8.642   2.813   9.020 -0.8856 -0.0689 -0.1301
 7660SOL    HW124431   8.607   2.780   9.103 -0.1997  1.4798  0.8358
 7660SOL    HW224432   8.731   2.842   9.042 -1.1883  1.7160 -1.0364
 7661SOL     OW24433   5.906   4.414   6.194 -0.0380  0.0152 -0.0624
 7661SOL    HW124434   5.954   4.344   6.239  1.2398  1.4398  0.8954
 7661SOL    HW224435   5.962   4.440   6.122 -0.5755 -0.0325 -0.5064
 7662SOL     OW24436   7.083   3.476   3.055  0.1939  0.5165  0.4093
 7662SOL    HW124437   7.130   3.558   3.039  0.1473  0.3376 -0.7783
 7662SOL    HW224438   7.149   3.417   3.092  0.8448  0.3810 -0.8978
 7663SOL     OW24439   6.863   7.812   4.728 -0.5689 -0.4408  0.4671
 7663SOL    HW124440   6.812   7.893   4.721 -1.2587 -0.9664 -0.8484
 7663SOL    HW224441   6.907   7.819   4.814 -1.7135  0.6675  0.9973
 7664SOL     OW24442   3.559   8.150   2.570 -0.0159  0.8214  0.7914
 7664SOL    HW124443   3.531   8.077   2.624 -0.0151  1.5563  1.8044
 7664SOL    HW224444   3.534   8.228   2.619 -0.3209  1.5126 -0.4261
 7665SOL     OW24445   9.200   1.664   4.177 -0.0318 -0.0233 -0.6849
 7665SOL    HW124446   9.283   1.682   4.133  0.3236  1.3052  0.4748
 7665SOL    HW224447   9.224   1.624   4.261 -0.4727  1.4499  0.1780
 7666SOL     OW24448   2.940   4.271   0.617 -0.9117  0.6433 -0.0692
 7666SOL    HW124449   3.035   4.279   0.610 -0.8310 -0.5067 -0.5566
 7666SOL    HW224450   2.926   4.225   0.700 -1.0632  1.0596  0.1390
 7667SOL     OW24451   1.286   0.201   2.667  0.0406  0.0640 -0.4982
 7667SOL    HW124452   1.279   0.261   2.593  0.2749  0.0323 -0.5484
 7667SOL    HW224453   1.367   0.227   2.712  0.2208 -0.2965 -0.5996
 7668SOL     OW24454   5.008   3.765   5.314 -0.1653  0.2794 -0.5894
 7668SOL    HW124455   4.968   3.838   5.267 -0.0482 -0.1043 -1.3084
 7668SOL    HW224456   5.061   3.721   5.247 -1.1291 -1.1347 -0.4658
 7669SOL     OW24457   8.333   2.873   6.372 -0.5236  0.1963 -0.7825
 7669SOL    HW124458   8.316   2.814   6.446  0.0303  0.9743 -0.0165
 7669SOL    HW224459   8.268   2.943   6.383 -0.3384  0.3934 -0.9540
 7670SOL     OW24460   1.402   2.188   5.619  0.1876 -0.1717 -0.2191
 7670SOL    HW124461   1.400   2.155   5.529  2.1220  1.1670 -0.8302
 7670SOL    HW224462   1.464   2.261   5.616 -1.2937  1.2791  1.7763
 7671SOL     OW24463   4.574   5.929   4.931 -0.1674  0.2710  0.3523
 7671SOL    HW124464   4.666   5.954   4.929 -0.2627  0.5652 -0.8915
 7671SOL    HW224465   4.532   5.998   4.983  0.3808 -0.1858  1.4447
 7672SOL     OW24466   4.986   6.883   8.074 -0.3297 -0.4028 -0.4357
 7672SOL    HW124467   4.908   6.917   8.117 -0.7880 -1.1858 -0.6412
 7672SOL    HW224468   5.055   6.890   8.141 -1.4197 -3.3732  1.2025
 7673SOL     OW24469   7.826   2.062   4.256  0.0694 -0.3253 -0.0010
 7673SOL    HW124470   7.837   1.968   4.269 -0.5290 -0.1140  2.4838
 7673SOL    HW224471   7.912   2.092   4.225  0.5156 -1.5538  0.0026
 7674SOL     OW24472   1.328   6.422   0.822 -0.1133  0.0302 -0.0363
 7674SOL    HW124473   1.382   6.419   0.902  0.4680 -2.1363 -0.4445
 7674SOL    HW224474   1.302   6.514   0.815  1.4257  0.6690  1.5818
 7675SOL     OW24475   1.426   4.894   3.465  0.1261 -0.4813 -0.1873
 7675SOL    HW124476   1.358   4.830   3.484 -0.4298 -0.5719 -2.2900
 7675SOL    HW224477   1.482   4.852   3.400  1.1515  0.2886  0.1579
 7676SOL     OW24478   7.924   5.811   3.473 -0.0715  0.4323  0.4987
 7676SOL    HW124479   7.853   5.863   3.435 -0.9759 -0.6905  0.5826
 7676SOL    HW224480   7.991   5.809   3.405 -1.3882 -0.9930 -0.8539
 7677SOL     OW24481   5.261   8.110   1.179 -0.0862 -0.1984  0.3788
 7677SOL    HW124482   5.327   8.040   1.175  0.8357  0.6149  0.9594
 7677SOL    HW224483   5.308   8.186   1.212 -0.9671  0.8433 -0.6642
 7678SOL     OW24484   0.474   3.482   5.133 -0.0686 -0.2210 -0.0501
 7678SOL    HW124485   0.413   3.419   5.095  0.6491 -1.3105  0.5426
 7678SOL    HW224486   0.473   3.463   5.227  0.1639  0.6632  0.1449
 7679SOL     OW24487   5.282   0.903   7.840  0.2826  0.5936  0.7020
 7679SOL    HW124488   5.369   0.902   7.798  0.1777  1.0494  0.4585
 7679SOL    HW224489   5.248   0.991   7.821 -0.8018 -0.0278 -0.3841
 7680SOL     OW24490   3.828   2.249   1.010 -0.5618 -0.2336 -0.2358
 7680SOL    HW124491   3.792   2.314   0.949  1.2362 -0.4112 -1.5772
 7680SOL    HW224492   3.758   2.184   1.020 -1.3343  0.4227 -1.1562
 7681SOL     OW24493   1.046   7.201   5.741  0.2140 -0.3941  0.6183
 7681SOL    HW124494   1.103   7.127   5.724  1.4515  0.3268  1.4933
 7681SOL    HW224495   1.003   7.217   5.657  0.1981 -1.8467  0.3208
 7682SOL     OW24496   0.580   1.917   8.532  0.2813 -0.2829 -0.1086
 7682SOL    HW124497   0.625   2.002   8.533 -1.3499  0.6145 -0.4943
 7682SOL    HW224498   0.494   1.935   8.568 -0.8293 -1.3482 -2.0625
 7683SOL     OW24499   2.728   8.107   0.191  0.3550 -0.3978  0.0829
 7683SOL    HW124500   2.652   8.165   0.194  0.0907 -0.6676 -0.9551
 7683SOL    HW224501   2.755   8.107   0.100  0.6475 -1.5183  0.1516
 7684SOL     OW24502   8.326   3.152   8.720  0.6350  0.1704 -0.0641
 7684SOL    HW124503   8.266   3.155   8.794  0.8998 -0.9722  0.2167
 7684SOL    HW224504   8.383   3.229   8.731  0.2161  0.4018  0.5178
 7685SOL     OW24505   5.440   1.673   1.714 -0.9187 -0.6743 -0.1297
 7685SOL    HW124506   5.435   1.620   1.793  0.1490 -1.8374 -0.8062
 7685SOL    HW224507   5.384   1.628   1.651 -1.6067  0.1372 -0.1280
 7686SOL     OW24508   7.837   3.153   1.229  0.1200  0.2341  0.2860
 7686SOL    HW124509   7.766   3.109   1.276  0.2569  0.0381  0.3112
 7686SOL    HW224510   7.804   3.241   1.213  0.0675  0.2967  0.7344
 7687SOL     OW24511   1.634   2.586   4.289 -0.2269  0.1849 -0.1597
 7687SOL    HW124512   1.632   2.676   4.321  1.7084 -0.1372  1.0530
 7687SOL    HW224513   1.581   2.588   4.210 -1.9238  1.9187  0.9140
 7688SOL     OW24514   1.717   9.199   4.726  0.0653  0.4835  0.9000
 7688SOL    HW124515   1.796   9.147   4.712  1.5076  2.3900  1.5336
 7688SOL    HW224516   1.684   9.170   4.811  0.7226  0.4584  1.1527
 7689SOL     OW24517   7.023   2.060   3.353 -0.5042 -0.0734  0.2116
 7689SOL    HW124518   7.068   2.144   3.354 -2.4500  1.0901 -1.7094
 7689SOL    HW224519   7.053   2.016   3.433 -0.5341  3.0451  2.1142
 7690SOL     OW24520   3.496   3.308   3.397 -0.2055  0.2114  0.9890
 7690SOL    HW124521   3.581   3.351   3.387 -0.8196  1.3047  0.3134
 7690SOL    HW224522   3.481   3.264   3.313 -0.7468  0.8463  0.7472
 7691SOL     OW24523   8.247   0.320   2.035  0.1510  0.6729 -0.3532
 7691SOL    HW124524   8.206   0.330   1.949 -0.7840  0.7716  0.0910
 7691SOL    HW224525   8.236   0.405   2.078  0.2101  0.4891  0.0336
 7692SOL     OW24526   5.833   8.744   0.073  0.1890  0.0300  0.1678
 7692SOL    HW124527   5.888   8.678   0.116  0.7749  0.6447  0.3847
 7692SOL    HW224528   5.743   8.717   0.093  0.4158 -0.8460  0.0278
 7693SOL     OW24529   1.355   6.379   7.420  0.0374 -0.2389 -0.3715
 7693SOL    HW124530   1.407   6.452   7.386  0.8237 -0.9322 -0.7032
 7693SOL    HW224531   1.272   6.384   7.372  0.0971  0.4137 -0.4128
 7694SOL     OW24532   2.606   4.627   5.190 -0.6663 -0.2023 -0.0249
 7694SOL    HW124533   2.697   4.619   5.218 -0.9264 -2.0029  0.4303
 7694SOL    HW224534   2.593   4.721   5.179  1.5222  0.0603 -1.0670
 7695SOL     OW24535   5.307   8.013   9.095 -0.3326  0.3859 -0.0334
 7695SOL    HW124536   5.317   8.081   9.028 -0.1763  0.3608 -0.0353
 7695SOL    HW224537   5.387   8.018   9.147  0.9519 -1.5595 -1.6460
 7696SOL     OW24538   3.314   8.789   5.117  0.1961  0.2943  0.5558
 7696SOL    HW124539   3.299   8.879   5.146  0.2269  0.9306 -1.2839
 7696SOL    HW224540   3.227   8.756   5.093  0.0158 -0.5910  2.2507
 7697SOL     OW24541   1.894   7.288   7.687 -0.0756 -0.1236 -0.5832
 7697SOL    HW124542   1.852   7.259   7.768 -0.6532 -0.4814 -1.0036
 7697SOL    HW224543   1.956   7.356   7.715  0.5649 -1.0380  0.2974
 7698SOL     OW24544   8.088   0.065   4.301  0.5513 -0.0899 -0.3575
 7698SOL    HW124545   8.177   0.047   4.329  0.4258  0.1089  0.1785
 7698SOL    HW224546   8.097   0.129   4.231  0.7742  0.7046  0.3878
 7699SOL     OW24547   2.906   8.113   6.944 -0.0874  0.2110  0.3688
 7699SOL    HW124548   2.814   8.125   6.918  0.2302  1.3989 -0.3366
 7699SOL    HW224549   2.954   8.168   6.882  1.1319 -0.6945  0.5008
 7700SOL     OW24550   8.346   5.616   4.623  0.2173  0.2668 -0.1503
 7700SOL    HW124551   8.356   5.594   4.531  0.6514  0.7991 -0.2348
 7700SOL    HW224552   8.407   5.688   4.638  0.6997 -0.2991  0.7312
 7701SOL     OW24553   8.124   6.047   2.152 -0.1610  0.0041  0.1872
 7701SOL    HW124554   8.042   6.075   2.111 -0.9891 -0.8449  1.1942
 7701SOL    HW224555   8.193   6.091   2.102 -1.2058  0.3570 -0.9762
 7702SOL     OW24556   3.824   5.669   5.745 -0.5516  0.3606 -0.4234
 7702SOL    HW124557   3.893   5.634   5.689 -0.7952 -0.3000 -0.3280
 7702SOL    HW224558   3.743   5.649   5.698 -0.7044  0.6937 -0.3055
 7703SOL     OW24559   8.463   4.903   7.745  0.2061  0.0714  0.0134
 7703SOL    HW124560   8.476   4.828   7.687  2.2145 -0.0040  0.4785
 7703SOL    HW224561   8.399   4.873   7.809 -1.8857  0.0807 -1.9546
 7704SOL     OW24562   2.992   1.897   2.848  0.2212  0.6042 -0.0828
 7704SOL    HW124563   3.042   1.852   2.780  0.4458  1.2344 -0.3410
 7704SOL    HW224564   3.008   1.990   2.833 -2.0319  0.9101 -0.9668
 7705SOL     OW24565   8.218   1.323   7.389  0.7062  0.1664  0.5128
 7705SOL    HW124566   8.235   1.258   7.458 -0.5405 -0.6177  0.1226
 7705SOL    HW224567   8.135   1.363   7.415 -1.0537 -1.7831 -1.6568
 7706SOL     OW24568   8.727   3.193   4.836 -0.2114  0.2897  0.0558
 7706SOL    HW124569   8.672   3.225   4.908 -1.0482  0.1992 -0.5307
 7706SOL    HW224570   8.736   3.269   4.778  2.2361  1.0118  1.2616
 7707SOL     OW24571   2.413   5.409   4.587  0.2929 -0.0332  0.4312
 7707SOL    HW124572   2.428   5.331   4.640 -0.8278 -0.1783  0.5608
 7707SOL    HW224573   2.500   5.447   4.576  0.9200 -1.5020  0.0256
 7708SOL     OW24574   2.646   7.486   5.654 -0.5471  0.4001 -0.3035
 7708SOL    HW124575   2.593   7.544   5.710 -1.2203  0.6176 -1.1432
 7708SOL    HW224576   2.605   7.400   5.663 -0.3835  0.3428 -0.1132
 7709SOL     OW24577   5.097   7.821   2.520  0.5630  0.0978 -0.3851
 7709SOL    HW124578   5.147   7.741   2.508 -0.3231 -0.5794  0.2485
 7709SOL    HW224579   5.028   7.816   2.454 -0.1747 -0.2434  0.3844
 7710SOL     OW24580   6.823   2.395   4.373 -0.2010 -0.1362  0.0306
 7710SOL    HW124581   6.789   2.305   4.378 -1.1651  0.1730 -0.6801
 7710SOL    HW224582   6.887   2.391   4.302  1.0432 -0.6370  1.1353
 7711SOL     OW24583   4.493   3.693   3.092  0.2766 -0.2795  0.0208
 7711SOL    HW124584   4.542   3.701   3.010  3.3533 -0.9255  1.6466
 7711SOL    HW224585   4.486   3.598   3.106 -2.6492 -0.2679 -0.7300
 7712SOL     OW24586   8.412   1.849   2.605  0.1886  0.0625 -0.2486
 7712SOL    HW124587   8.322   1.847   2.572  0.3267  3.3324 -1.2065
 7712SOL    HW224588   8.405   1.829   2.698 -1.5235  0.0952 -0.3513
 7713SOL     OW24589   2.485   3.282   0.394 -0.0170 -0.0400 -0.2372
 7713SOL    HW124590   2.411   3.254   0.449  0.1444  1.5440  0.8387
 7713SOL    HW224591   2.562   3.247   0.438  0.0561  0.6202  0.1807
 7714SOL     OW24592   1.954   4.310   8.524 -0.0655  0.4448 -0.3434
 7714SOL    HW124593   1.906   4.390   8.543 -0.0895  0.7998 -1.7585
 7714SOL    HW224594   1.961   4.265   8.608 -2.7003  0.4661 -0.0267
 7715SOL     OW24595   0.246   8.622   3.335 -0.1456  0.3613 -0.5530
 7715SOL    HW124596   0.178   8.621   3.402 -1.2599  1.3123 -1.6013
 7715SOL    HW224597   0.223   8.550   3.276  0.8689 -0.5196  0.1028
 7716SOL     OW24598   9.241   6.881   1.785 -0.0495  0.0844  0.1744
 7716SOL    HW124599   9.330   6.853   1.803  0.3510  1.1790 -0.0107
 7716SOL    HW224600   9.188   6.802   1.793  1.0588 -0.7650 -0.6141
 7717SOL     OW24601   9.037   6.669   4.065  0.2406 -0.1388  0.7143
 7717SOL    HW124602   9.069   6.707   4.147  0.3525 -0.8080  0.9886
 7717SOL    HW224603   9.023   6.577   4.086  1.5614 -0.6152 -0.3721
 7718SOL     OW24604   3.621   2.476   3.221 -0.0343 -0.2370 -0.5111
 7718SOL    HW124605   3.679   2.549   3.200  0.3725 -0.6803 -0.9376
 7718SOL    HW224606   3.572   2.460   3.141 -1.4561  0.7485  0.1101
 7719SOL     OW24607   4.467   0.504   2.272  0.7355  0.1577 -0.1918
 7719SOL    HW124608   4.447   0.544   2.188 -1.2516 -0.4801 -0.0745
 7719SOL    HW224609   4.460   0.410   2.256 -0.8621  0.0488  0.9210
 7720SOL     OW24610   2.466   0.778   8.272  0.0320 -0.2840 -0.5654
 7720SOL    HW124611   2.509   0.817   8.196  1.4172 -1.1533 -0.2435
 7720SOL    HW224612   2.494   0.687   8.271  0.3958 -0.2125  1.2238
 7721SOL     OW24613   2.168   4.594   1.126  0.0130  0.1614 -0.1697
 7721SOL    HW124614   2.235   4.612   1.192  0.3213 -1.0539 -0.1273
 7721SOL    HW224615   2.115   4.524   1.163 -1.3574  1.1632 -0.1718
 7722SOL     OW24616   7.457   3.772   0.293  0.6745 -0.0260 -0.1333
 7722SOL    HW124617   7.407   3.694   0.271  0.1215 -0.0446  1.1188
 7722SOL    HW224618   7.538   3.763   0.244 -0.5643  0.0672 -2.3519
 7723SOL     OW24619   2.350   3.221   2.259 -0.0137 -0.7348 -0.6346
 7723SOL    HW124620   2.430   3.257   2.220  1.0527 -1.4612  0.7918
 7723SOL    HW224621   2.373   3.204   2.350 -1.9482 -0.5419 -0.0574
 7724SOL     OW24622   5.450   7.147   6.594 -0.2750  0.7599 -0.1633
 7724SOL    HW124623   5.437   7.054   6.610  0.3746  0.2042 -2.4477
 7724SOL    HW224624   5.403   7.191   6.665 -0.2377 -1.2861  1.2040
 7725SOL     OW24625   8.556   2.041   7.758 -0.1928  0.5855 -0.0934
 7725SOL    HW124626   8.621   1.996   7.705  0.6715 -0.5026  1.7866
 7725SOL    HW224627   8.602   2.119   7.791 -1.2537  2.2124 -2.2166
 7726SOL     OW24628   0.348   3.398   7.871  0.2624 -0.3014 -0.0848
 7726SOL    HW124629   0.350   3.478   7.923  0.6433  0.3852 -1.1125
 7726SOL    HW224630   0.284   3.342   7.914  0.6020  0.2224  1.1288
 7727SOL     OW24631   6.807   0.560   1.687  0.4645  0.2155  0.4193
 7727SOL    HW124632   6.889   0.574   1.640  0.7857 -0.2646  0.8284
 7727SOL    HW224633   6.814   0.472   1.723 -0.4022  0.0143  0.1252
 7728SOL     OW24634   0.916   2.033   4.703  0.3990 -0.1880 -0.3640
 7728SOL    HW124635   0.923   2.118   4.746 -2.9831 -0.6377  1.3444
 7728SOL    HW224636   0.989   1.982   4.739  0.6431  1.0181  0.9270
 7729SOL     OW24637   5.721   1.407   1.480  0.0818 -0.2115  0.2623
 7729SOL    HW124638   5.809   1.415   1.445 -0.0669  1.3152  0.1682
 7729SOL    HW224639   5.687   1.497   1.482 -1.8419 -0.8432 -0.6773
 7730SOL     OW24640   6.921   9.269   8.180 -0.0600 -0.3227  0.2556
 7730SOL    HW124641   6.881   9.353   8.201 -0.7096 -0.2024 -1.2846
 7730SOL    HW224642   6.848   9.214   8.152  0.3193 -1.5098  1.5305
 7731SOL     OW24643   1.260   1.599   8.750  0.6718  0.4590 -0.8605
 7731SOL    HW124644   1.312   1.600   8.830 -0.7398 -3.8858  0.4282
 7731SOL    HW224645   1.178   1.642   8.774  0.3626 -0.5745  0.0593
 7732SOL     OW24646   7.548   7.075   2.489 -0.2216 -0.0102  0.4388
 7732SOL    HW124647   7.542   6.999   2.546 -0.0644  1.3625  2.3999
 7732SOL    HW224648   7.548   7.039   2.401 -2.3499 -2.1575  1.2050
 7733SOL     OW24649   3.592   5.154   2.125  0.4443 -0.0323  0.0783
 7733SOL    HW124650   3.680   5.119   2.143 -0.0923 -2.0435 -0.9069
 7733SOL    HW224651   3.599   5.194   2.039  1.1365  2.8212  1.3301
 7734SOL     OW24652   8.919   3.588   6.634 -0.0882  0.0062  0.1073
 7734SOL    HW124653   8.875   3.590   6.719 -0.1009  0.5575  0.0942
 7734SOL    HW224654   8.978   3.663   6.636  0.3569 -0.3323 -0.1404
 7735SOL     OW24655   0.731   1.632   4.507  0.1209 -0.5692  0.3973
 7735SOL    HW124656   0.702   1.722   4.523 -0.1213 -0.3052 -1.3490
 7735SOL    HW224657   0.654   1.588   4.470 -0.3127 -2.0211  2.8012
 7736SOL     OW24658   6.453   0.047   0.997 -0.5304 -0.1715 -0.3253
 7736SOL    HW124659   6.524   0.014   0.942 -0.3337 -0.9809  0.3792
 7736SOL    HW224660   6.380   0.061   0.938  0.3588  1.1623 -1.1556
 7737SOL     OW24661   1.165   5.674   7.854  0.1320 -0.3455  0.3574
 7737SOL    HW124662   1.087   5.712   7.895 -1.2418 -2.0283 -0.5648
 7737SOL    HW224663   1.141   5.583   7.837  1.9139 -0.6141 -0.9671
 7738SOL     OW24664   2.032   7.267   9.111 -0.2032 -0.3655  0.1899
 7738SOL    HW124665   2.028   7.360   9.133  0.1622 -0.2108 -0.3755
 7738SOL    HW224666   2.122   7.241   9.131 -0.4656 -0.7428  0.9014
 7739SOL     OW24667   8.849   6.107   8.683 -0.2771 -0.0460 -0.1525
 7739SOL    HW124668   8.903   6.153   8.618 -0.3548  0.8123  0.3775
 7739SOL    HW224669   8.781   6.170   8.707  0.4728  0.1157  1.6635
 7740SOL     OW24670   5.051   7.490   1.471  0.0072  0.0487  0.5527
 7740SOL    HW124671   5.079   7.556   1.534 -1.7292  0.6168  0.7801
 7740SOL    HW224672   4.960   7.471   1.494 -0.9465  0.7828 -2.1265
 7741SOL     OW24673   5.534   8.306   3.287  0.4169 -0.0177  0.7524
 7741SOL    HW124674   5.476   8.373   3.322  1.5764  0.0468  2.6383
 7741SOL    HW224675   5.505   8.225   3.330  0.2420 -0.4117 -0.0840
 7742SOL     OW24676   8.301   2.338   6.350 -0.1083 -0.0694  0.5218
 7742SOL    HW124677   8.252   2.273   6.398  1.0504 -1.8940 -0.6368
 7742SOL    HW224678   8.387   2.341   6.393  0.8245 -1.4768 -1.0932
 7743SOL     OW24679   4.872   2.859   4.512  0.1133 -0.0577  0.5149
 7743SOL    HW124680   4.836   2.770   4.509  2.2007 -0.9568  0.4935
 7743SOL    HW224681   4.964   2.849   4.487  0.0479  2.3317 -0.9989
 7744SOL     OW24682   0.594   8.881   7.252 -0.2163 -0.3490 -0.6642
 7744SOL    HW124683   0.516   8.827   7.238 -0.9251  0.7453 -1.0052
 7744SOL    HW224684   0.577   8.927   7.333  0.8208 -1.3383  0.1524
 7745SOL     OW24685   2.808   4.776   4.278 -0.0810  0.1649 -0.2919
 7745SOL    HW124686   2.725   4.732   4.260  0.7267 -1.5780  0.0389
 7745SOL    HW224687   2.825   4.829   4.200 -1.6184  0.7717 -0.2398
 7746SOL     OW24688   6.778   0.242   5.220 -0.0741 -0.0085 -0.0201
 7746SOL    HW124689   6.757   0.272   5.132  0.3584 -0.4385 -0.2732
 7746SOL    HW224690   6.694   0.212   5.256 -0.4556  1.1929  0.1253
 7747SOL     OW24691   3.688   0.848   2.470  0.0117  0.2144 -0.6324
 7747SOL    HW124692   3.730   0.835   2.554 -0.0739 -0.0581 -0.6274
 7747SOL    HW224693   3.596   0.865   2.491  0.1657  1.0752 -0.6311
 7748SOL     OW24694   7.846   7.239   2.459 -0.0375 -1.1219 -0.2671
 7748SOL    HW124695   7.778   7.294   2.497  0.0215 -0.7828 -0.6401
 7748SOL    HW224696   7.809   7.209   2.376  0.2545 -0.9571 -0.4593
 7749SOL     OW24697   6.855   3.461   0.760 -0.0775 -0.2951 -0.2324
 7749SOL    HW124698   6.886   3.433   0.846  0.9920  1.6215  0.0503
 7749SOL    HW224699   6.860   3.382   0.706  0.5910 -1.1901  1.0951
 7750SOL     OW24700   6.827   6.190   0.134  0.4237 -0.2619  0.0960
 7750SOL    HW124701   6.895   6.160   0.194  1.0774 -2.7624 -1.7260
 7750SOL    HW224702   6.786   6.264   0.179  1.5216 -1.3388  3.1326
 7751SOL     OW24703   7.036   1.413   4.047  0.0226  0.3130 -0.4044
 7751SOL    HW124704   7.025   1.323   4.018 -0.0538  0.5489 -1.1515
 7751SOL    HW224705   7.104   1.409   4.114 -0.5766 -0.4030  0.1706
 7752SOL     OW24706   1.868   2.323   5.949 -0.4144 -0.2235  0.3744
 7752SOL    HW124707   1.841   2.246   5.999 -0.4072 -1.5164 -1.5327
 7752SOL    HW224708   1.790   2.348   5.899  0.4243 -0.9091 -1.3430
 7753SOL     OW24709   6.243   0.110   7.137  0.3539  0.1422 -0.8408
 7753SOL    HW124710   6.290   0.192   7.152 -1.4263  1.0851 -0.0707
 7753SOL    HW224711   6.185   0.129   7.063  0.4061 -0.6500 -1.0972
 7754SOL     OW24712   1.641   7.041   2.462  0.8358  0.1554  0.0913
 7754SOL    HW124713   1.671   7.119   2.416  1.6921 -1.4896 -2.3010
 7754SOL    HW224714   1.720   7.003   2.499  0.8945 -1.0699 -1.2226
 7755SOL     OW24715   8.651   3.520   8.226 -0.4452 -0.0164  0.4422
 7755SOL    HW124716   8.623   3.483   8.310 -0.2030 -0.7676  0.2020
 7755SOL    HW224717   8.633   3.450   8.162  2.6244 -0.8619  0.3561
 7756SOL     OW24718   4.705   5.927   8.662  0.3020 -0.8275  0.0290
 7756SOL    HW124719   4.731   5.967   8.579 -1.6701 -1.5745 -1.0137
 7756SOL    HW224720   4.713   5.833   8.647 -1.3538 -1.0254  0.1800
 7757SOL     OW24721   6.515   6.343   7.561  0.2327 -0.7029  0.3379
 7757SOL    HW124722   6.597   6.354   7.513  0.2579  0.1634  0.5695
 7757SOL    HW224723   6.471   6.428   7.554 -0.2579 -0.9007  0.9280
 7758SOL     OW24724   8.569   1.366   6.127 -0.0718 -0.2464  0.3770
 7758SOL    HW124725   8.492   1.389   6.178 -0.8895 -1.7510 -0.1187
 7758SOL    HW224726   8.559   1.272   6.109 -0.0078  0.2857 -2.8836
 7759SOL     OW24727   8.738   2.617   0.446  0.0422  0.0212 -0.6660
 7759SOL    HW124728   8.657   2.659   0.419  0.7305  0.3761 -2.3204
 7759SOL    HW224729   8.807   2.672   0.409  1.0568 -0.2367  0.7538
 7760SOL     OW24730   6.312   3.011   5.186 -0.2791 -0.3333  0.2058
 7760SOL    HW124731   6.230   2.964   5.169 -0.2052 -0.2963 -0.2656
 7760SOL    HW224732   6.305   3.090   5.134 -0.2309 -0.0027  0.6946
 7761SOL     OW24733   7.338   5.518   7.550  0.6788  0.8725  0.1495
 7761SOL    HW124734   7.247   5.499   7.528  0.5579 -0.4434  1.6046
 7761SOL    HW224735   7.384   5.517   7.466 -0.2726 -0.7365 -0.3817
 7762SOL     OW24736   1.100   4.825   7.804  0.0080  0.4800  0.5117
 7762SOL    HW124737   1.106   4.918   7.782  0.3612  0.5886  1.0538
 7762SOL    HW224738   1.109   4.780   7.720  2.6811  0.8399  0.5217
 7763SOL     OW24739   3.162   2.562   4.283 -0.0941  0.0105  0.0267
 7763SOL    HW124740   3.190   2.471   4.293  0.3188 -0.2888 -2.8174
 7763SOL    HW224741   3.067   2.559   4.278 -0.0636 -0.3195 -0.3620
 7764SOL     OW24742   7.293   4.614   7.592 -0.4411  0.3918  0.5102
 7764SOL    HW124743   7.343   4.540   7.627 -0.5895  0.9328  1.9113
 7764SOL    HW224744   7.331   4.629   7.505 -0.0448 -0.9684  0.4208
 7765SOL     OW24745   6.476   1.225   1.029 -0.1012 -0.1947 -0.3505
 7765SOL    HW124746   6.525   1.305   1.048 -2.1720  0.6525  1.9158
 7765SOL    HW224747   6.469   1.223   0.934  0.1724  2.2384 -0.4773
 7766SOL     OW24748   9.245   3.256   1.992 -0.2286 -0.5420  0.0370
 7766SOL    HW124749   9.223   3.343   2.027  2.3739  0.2153 -0.0445
 7766SOL    HW224750   9.202   3.253   1.907 -2.4383 -0.3969  1.0662
 7767SOL     OW24751   2.267   0.486   5.989 -0.4345  0.0848 -0.1300
 7767SOL    HW124752   2.281   0.414   5.928 -3.5364 -0.3394 -0.4660
 7767SOL    HW224753   2.231   0.557   5.935  1.0536  1.3721  0.4762
 7768SOL     OW24754   5.342   8.665   8.270  0.0736  0.2468  0.0195
 7768SOL    HW124755   5.305   8.590   8.224  0.0886  0.3956 -0.2324
 7768SOL    HW224756   5.416   8.693   8.217  0.8868 -0.3759  0.7948
 7769SOL     OW24757   8.840   1.317   6.228 -0.5071  0.4917  0.1705
 7769SOL    HW124758   8.755   1.306   6.185 -0.7562  0.1185  0.7356
 7769SOL    HW224759   8.904   1.313   6.158 -0.8913 -0.2428 -0.1496
 7770SOL     OW24760   5.439   5.830   9.065  0.5489 -0.1407 -0.2881
 7770SOL    HW124761   5.431   5.786   9.150  3.0204 -0.5267 -0.1714
 7770SOL    HW224762   5.370   5.895   9.065  0.0656 -0.5795  1.7496
 7771SOL     OW24763   2.754   1.680   7.077 -0.0465 -0.1936 -0.1026
 7771SOL    HW124764   2.785   1.610   7.020  1.2488 -0.5355  0.9600
 7771SOL    HW224765   2.822   1.747   7.073  0.8474 -0.8605  2.1021
 7772SOL     OW24766   1.149   0.119   9.186  0.1810 -0.1232 -0.0564
 7772SOL    HW124767   1.195   0.056   9.130  2.0432 -0.2088  1.4608
 7772SOL    HW224768   1.164   0.088   9.275 -0.4366  1.4563  0.6399
 7773SOL     OW24769   8.035   2.605   3.594 -0.3799  0.8303  0.8380
 7773SOL    HW124770   8.020   2.511   3.583  1.7099  0.2442  2.3076
 7773SOL    HW224771   8.028   2.641   3.506 -0.1185 -0.8861  0.0675
 7774SOL     OW24772   8.353   8.376   9.153  0.0115  0.4750 -0.1648
 7774SOL    HW124773   8.312   8.420   9.078  0.4378  0.0795 -0.6326
 7774SOL    HW224774   8.281   8.327   9.194 -0.6287  2.1281  0.7728
 7775SOL     OW24775   5.988   1.418   6.206  0.0923 -0.4326  0.2546
 7775SOL    HW124776   5.965   1.327   6.223 -1.4079 -0.3660 -1.1234
 7775SOL    HW224777   6.006   1.421   6.112 -1.9454  1.0380 -0.1684
 7776SOL     OW24778   5.872   7.194   8.003 -0.1457  0.3752  0.2122
 7776SOL    HW124779   5.955   7.239   8.020 -0.0661  0.8260 -1.2197
 7776SOL    HW224780   5.823   7.202   8.085  0.4773  1.7484  0.4825
 7777SOL     OW24781   5.692   2.230   7.151 -0.2173  0.0089 -0.2788
 7777SOL    HW124782   5.736   2.310   7.180 -1.7124  1.2066 -1.1749
 7777SOL    HW224783   5.724   2.162   7.210 -0.3145  1.6184  1.7342
 7778SOL     OW24784   6.131   0.817   4.434 -0.2634 -0.5017  0.1416
 7778SOL    HW124785   6.222   0.815   4.405  0.1133 -1.2521  1.3129
 7778SOL    HW224786   6.097   0.730   4.414 -0.5764 -0.3870  0.1652
 7779SOL     OW24787   6.579   3.170   7.803  0.1442  0.3852 -0.0151
 7779SOL    HW124788   6.567   3.079   7.777 -1.1576  0.2337  0.9884
 7779SOL    HW224789   6.597   3.217   7.722 -0.8489 -0.5121 -0.7727
 7780SOL     OW24790   7.649   3.877   5.731 -0.6323  0.1687 -0.2341
 7780SOL    HW124791   7.580   3.879   5.664 -0.8174 -1.0466 -0.1012
 7780SOL    HW224792   7.664   3.784   5.747  3.2365  0.1905 -2.5252
 7781SOL     OW24793   7.887   6.457   3.208 -0.3825 -0.5772  0.5261
 7781SOL    HW124794   7.799   6.483   3.183 -0.1796  1.6605  1.8101
 7781SOL    HW224795   7.942   6.531   3.182  1.4200 -2.5523 -1.6426
 7782SOL     OW24796   4.902   0.745   7.554 -0.2497 -0.2352  0.4760
 7782SOL    HW124797   4.885   0.836   7.527 -0.5351 -0.5318 -0.3594
 7782SOL    HW224798   4.951   0.754   7.635  2.9249  0.7342 -1.3703
 7783SOL     OW24799   1.934   4.676   1.851  0.7253 -0.1300  0.3005
 7783SOL    HW124800   1.900   4.752   1.899 -1.0473 -0.8410  0.2490
 7783SOL    HW224801   1.971   4.620   1.919 -2.0373 -1.2680  0.9892
 7784SOL     OW24802   8.112   4.360   2.149  0.4245 -0.5102  0.1285
 7784SOL    HW124803   8.067   4.429   2.197  0.6399  0.2368 -0.7019
 7784SOL    HW224804   8.048   4.289   2.143 -1.2063  1.0145 -2.1592
 7785SOL     OW24805   6.949   8.664   1.760  0.5203  0.4301 -0.1841
 7785SOL    HW124806   7.043   8.665   1.746  0.6690 -0.1326  0.7162
 7785SOL    HW224807   6.938   8.667   1.855 -0.3530  0.0053 -0.2566
 7786SOL     OW24808   8.304   0.518   1.015  0.1886  0.1991 -0.0976
 7786SOL    HW124809   8.313   0.612   1.031 -0.5975  0.1818  0.4846
 7786SOL    HW224810   8.234   0.510   0.950 -3.2616 -0.1515  3.3112
 7787SOL     OW24811   5.931   5.260   0.020 -0.1912 -0.3478  0.0270
 7787SOL    HW124812   6.017   5.218   0.031  0.3950  0.7270 -0.3074
 7787SOL    HW224813   5.922   5.271  -0.074  0.1572  1.2478  0.1648
 7788SOL     OW24814   5.535   0.033   0.534 -0.6222  0.0011  0.2338
 7788SOL    HW124815   5.618   0.011   0.576  0.0355  1.3589 -0.2830
 7788SOL    HW224816   5.550   0.120   0.496 -1.7013 -0.5130 -1.4447
 7789SOL     OW24817   1.353   2.310   0.235 -0.0160 -0.4543 -0.2825
 7789SOL    HW124818   1.323   2.314   0.326 -0.0105 -0.3091 -0.2858
 7789SOL    HW224819   1.359   2.402   0.208  3.4416 -0.2812  0.7050
 7790SOL     OW24820   4.155   6.797   5.282 -0.8804  0.1126  0.5963
 7790SOL    HW124821   4.086   6.734   5.304 -0.4035 -0.7721 -0.3421
 7790SOL    HW224822   4.113   6.858   5.221 -0.6357 -0.9724 -0.7184
 7791SOL     OW24823   3.907   0.738   5.139 -0.0701  0.1585  0.4441
 7791SOL    HW124824   3.967   0.726   5.212 -0.9325 -2.1593  0.8582
 7791SOL    HW224825   3.939   0.679   5.071 -0.7661  0.3585 -0.0737
 7792SOL     OW24826   2.618   0.113   8.353  0.0375  0.5828 -0.4046
 7792SOL    HW124827   2.615   0.185   8.416  0.9392  0.2370  0.0484
 7792SOL    HW224828   2.670   0.147   8.280  1.0431  0.1822  0.1054
 7793SOL     OW24829   8.064   5.566   9.062  0.1479  0.4023 -0.6659
 7793SOL    HW124830   8.126   5.494   9.057 -0.1463  0.1556 -0.7953
 7793SOL    HW224831   7.988   5.530   9.108  0.9129  1.2936  1.4134
 7794SOL     OW24832   7.597   0.489   5.251 -0.0715  0.0255  0.0905
 7794SOL    HW124833   7.657   0.528   5.187  0.3576 -0.6956  0.0430
 7794SOL    HW224834   7.644   0.496   5.334 -0.3309  0.3205  0.2153
 7795SOL     OW24835   6.201   2.345   1.457  0.3974 -0.6089 -0.3130
 7795SOL    HW124836   6.161   2.258   1.452  2.9849 -2.1461  2.3061
 7795SOL    HW224837   6.229   2.353   1.549  1.9071  2.2044 -0.9014
 7796SOL     OW24838   2.884   1.618   8.260 -0.1013  0.2343 -0.5869
 7796SOL    HW124839   2.898   1.713   8.269 -0.8208  0.4693 -1.7167
 7796SOL    HW224840   2.954   1.579   8.312 -0.7436  1.3740  1.2389
 7797SOL     OW24841   7.951   2.860   7.819  0.4665  0.6758  0.0023
 7797SOL    HW124842   8.010   2.932   7.840  1.9414 -0.7180  0.8505
 7797SOL    HW224843   8.007   2.782   7.819 -1.2113 -0.5912 -0.0898
 7798SOL     OW24844   4.103   2.130   0.629  0.2051  0.8404  0.2032
 7798SOL    HW124845   4.098   2.181   0.548 -1.1958  1.0525  0.3983
 7798SOL    HW224846   4.027   2.159   0.680  0.1238 -0.5094  0.8782
 7799SOL     OW24847   7.555   8.316   5.847  0.1149  0.5356 -0.7512
 7799SOL    HW124848   7.571   8.389   5.907  0.5061 -1.8993  2.4422
 7799SOL    HW224849   7.461   8.319   5.830 -0.3056  0.5427  1.2708
 7800SOL     OW24850   6.845   0.199   0.872  0.4487 -0.2102  0.1486
 7800SOL    HW124851   6.750   0.208   0.863  0.4239  0.6712  1.0586
 7800SOL    HW224852   6.879   0.287   0.856  0.7601  0.4292  3.4799
 7801SOL     OW24853   4.458   6.747   6.790  0.0686 -0.5648  0.0360
 7801SOL    HW124854   4.483   6.805   6.862  2.5043 -1.0573 -0.3316
 7801SOL    HW224855   4.511   6.777   6.716 -0.3431 -1.7929 -0.7827
 7802SOL     OW24856   8.824   4.919   3.567 -0.1102 -0.1070 -0.3616
 7802SOL    HW124857   8.745   4.972   3.579 -0.1326  0.4996 -2.7054
 7802SOL    HW224858   8.839   4.879   3.653 -2.4603  0.4272  0.3808
 7803SOL     OW24859   6.808   1.254   0.532 -0.3325 -0.1563 -0.0223
 7803SOL    HW124860   6.790   1.336   0.578  0.1228 -1.5334  2.8421
 7803SOL    HW224861   6.728   1.202   0.543 -0.2117 -0.5253 -0.8297
 7804SOL     OW24862   5.552   8.172   0.440  0.0144 -0.5327  0.1232
 7804SOL    HW124863   5.508   8.222   0.509  2.0426  0.2561  0.9105
 7804SOL    HW224864   5.529   8.218   0.359 -1.0917 -0.5296  0.4157
 7805SOL     OW24865   5.609   0.673   1.212  0.2317 -0.2175  0.4037
 7805SOL    HW124866   5.567   0.696   1.295  2.8640 -2.5484  2.5782
 7805SOL    HW224867   5.649   0.755   1.182  0.1015  0.4650  1.9924
 7806SOL     OW24868   8.677   3.735   2.284 -0.7258 -0.5452 -0.1587
 7806SOL    HW124869   8.593   3.781   2.285 -0.7568 -0.5656  1.8305
 7806SOL    HW224870   8.656   3.646   2.312 -0.1226 -0.7105 -0.2216
 7807SOL     OW24871   2.499   5.268   6.151 -0.2505 -0.5706  0.4704
 7807SOL    HW124872   2.413   5.304   6.127 -0.4379 -1.8066 -0.8325
 7807SOL    HW224873   2.491   5.174   6.134  1.3716 -0.7037  0.3292
 7808SOL     OW24874   5.140   8.880   1.099 -0.6493 -0.2664  0.3833
 7808SOL    HW124875   5.107   8.827   1.026  0.5331 -1.0706  0.4158
 7808SOL    HW224876   5.197   8.944   1.057  1.2285 -1.6754  0.7003
 7809SOL     OW24877   7.365   5.128   3.870  0.0268 -0.0876  0.5336
 7809SOL    HW124878   7.394   5.039   3.848 -2.1372 -0.4764 -1.1005
 7809SOL    HW224879   7.329   5.121   3.958 -1.3983 -1.1937 -0.1111
 7810SOL     OW24880   8.898   3.796   8.922 -0.3368 -0.3107  0.6436
 7810SOL    HW124881   8.932   3.788   8.833  0.1923 -0.3416  0.8441
 7810SOL    HW224882   8.849   3.716   8.937 -1.8323  0.4091 -0.2029
 7811SOL     OW24883   9.199   3.406   4.044 -0.1710  0.3232  0.0892
 7811SOL    HW124884   9.131   3.468   4.018 -1.3260 -1.0035 -0.1808
 7811SOL    HW224885   9.213   3.423   4.137 -2.4813 -0.8116  0.6981
 7812SOL     OW24886   1.148   0.148   3.051 -0.0564 -0.4091 -0.0242
 7812SOL    HW124887   1.187   0.074   3.006 -0.7456 -0.3503 -0.7293
 7812SOL    HW224888   1.207   0.221   3.032  0.1679 -0.5896 -0.0308
 7813SOL     OW24889   0.891   0.632   1.960  0.0565 -0.3003 -0.3291
 7813SOL    HW124890   0.809   0.648   1.913 -0.5857 -0.2046  0.7893
 7813SOL    HW224891   0.915   0.718   1.997  0.2587 -0.4848 -0.0259
 7814SOL     OW24892   3.770   3.994   4.732 -0.1861 -0.3601  0.7897
 7814SOL    HW124893   3.807   3.952   4.810  0.3001 -1.2998  0.0689
 7814SOL    HW224894   3.698   4.048   4.765 -0.4158 -1.2652  1.8069
 7815SOL     OW24895   8.022   7.878   0.175 -0.2182 -0.4834 -0.1493
 7815SOL    HW124896   8.022   7.922   0.090  0.8761  0.0299  0.0975
 7815SOL    HW224897   8.112   7.886   0.206 -0.7564  0.0236  1.4015
 7816SOL     OW24898   5.018   2.466   3.058  0.4677  0.2701 -0.1564
 7816SOL    HW124899   4.948   2.527   3.034 -1.1575 -1.4517 -0.0424
 7816SOL    HW224900   5.020   2.470   3.154 -0.5550 -0.7551 -0.0665
 7817SOL     OW24901   7.376   3.678   5.446  0.3982  0.8145  0.0330
 7817SOL    HW124902   7.295   3.632   5.425 -0.3194  0.5987  2.9005
 7817SOL    HW224903   7.415   3.698   5.360 -1.5519 -1.0076 -1.3859
 7818SOL     OW24904   6.716   6.238   8.689 -0.0652  0.2029  0.4790
 7818SOL    HW124905   6.676   6.158   8.720 -1.6551  1.5283  2.0359
 7818SOL    HW224906   6.809   6.229   8.710 -0.1885 -1.2755  0.4465
 7819SOL     OW24907   6.800   2.966   3.904  0.7595  0.5055  0.4837
 7819SOL    HW124908   6.890   2.967   3.935  1.1272  2.5499 -0.4734
 7819SOL    HW224909   6.800   2.901   3.833  2.0455  1.9421 -0.9116
 7820SOL     OW24910   1.394   6.793   0.946  0.3755 -0.8177  0.0731
 7820SOL    HW124911   1.394   6.882   0.979  1.1673 -0.8465  0.1758
 7820SOL    HW224912   1.310   6.784   0.900  0.1251 -0.1529  0.3912
 7821SOL     OW24913   4.894   7.806   5.868  0.1859  0.2326 -0.3166
 7821SOL    HW124914   4.834   7.802   5.942  0.1225  1.0567 -0.3165
 7821SOL    HW224915   4.845   7.852   5.799  0.4369 -0.0451 -0.6887
 7822SOL     OW24916   5.415   6.748   7.906 -0.1327  0.2686 -0.0270
 7822SOL    HW124917   5.321   6.741   7.893 -0.3301  2.3404 -0.0721
 7822SOL    HW224918   5.426   6.772   7.998  0.3361  0.1035 -0.0357
 7823SOL     OW24919   0.666   2.195   4.213 -0.4998  0.2864 -0.5308
 7823SOL    HW124920   0.620   2.221   4.293  0.1565  0.0271 -0.0620
 7823SOL    HW224921   0.759   2.207   4.233 -0.3617  1.6795 -1.7642
 7824SOL     OW24922   4.225   0.523   3.616 -0.3690 -0.2283  0.1964
 7824SOL    HW124923   4.169   0.576   3.559  1.1772  2.6154  1.1056
 7824SOL    HW224924   4.165   0.460   3.657 -1.8421 -1.0567 -2.9361
 7825SOL     OW24925   3.559   2.255   3.356  0.0673  0.5609  0.6976
 7825SOL    HW124926   3.644   2.267   3.398  0.3129 -0.3742  0.4868
 7825SOL    HW224927   3.549   2.333   3.301  1.3543  0.1165 -0.2133
 7826SOL     OW24928   6.438   8.004   4.722  0.2238 -0.0919 -0.5393
 7826SOL    HW124929   6.378   7.960   4.661 -0.9979 -0.3718  0.8129
 7826SOL    HW224930   6.434   8.096   4.697 -0.6998 -0.1213 -0.5242
 7827SOL     OW24931   1.315   5.760   9.100  0.0109 -0.6291 -0.4601
 7827SOL    HW124932   1.310   5.792   9.190 -1.3182 -1.8185 -0.0817
 7827SOL    HW224933   1.356   5.832   9.051  0.2754  0.2328  0.9835
 7828SOL     OW24934   8.702   6.137   6.693 -1.1820  0.3089 -0.2966
 7828SOL    HW124935   8.775   6.086   6.658  0.9329  2.4579  0.7066
 7828SOL    HW224936   8.650   6.073   6.742  0.8296 -1.0579  0.1654
 7829SOL     OW24937   1.148   4.863   8.994  0.0504 -0.0462  0.2569
 7829SOL    HW124938   1.153   4.897   8.904  1.1021  1.0111  0.6979
 7829SOL    HW224939   1.057   4.837   9.004 -0.4409  1.2410 -0.6157
 7830SOL     OW24940   2.868   4.866   2.059  0.3082 -0.3341  0.7624
 7830SOL    HW124941   2.819   4.944   2.086 -1.2424 -0.7720 -0.6995
 7830SOL    HW224942   2.853   4.803   2.130 -1.5005 -0.5560  0.2173
 7831SOL     OW24943   0.425   7.539   1.364 -0.4715 -0.8003  0.0229
 7831SOL    HW124944   0.350   7.521   1.421 -0.1526  1.0099  1.0837
 7831SOL    HW224945   0.386   7.556   1.278 -1.1217 -1.5094  0.1597
 7832SOL     OW24946   1.935   7.379   1.427 -0.3953 -0.0722  0.1225
 7832SOL    HW124947   1.913   7.444   1.360 -0.4234  1.9708  2.0257
 7832SOL    HW224948   2.022   7.405   1.458  0.5369 -2.2383 -0.4938
 7833SOL     OW24949   8.198   2.483   8.342 -0.0136 -0.0369 -0.5549
 7833SOL    HW124950   8.229   2.439   8.263 -0.9869 -0.8144 -0.5343
 7833SOL    HW224951   8.190   2.575   8.318  1.1386 -0.0150 -0.8946
 7834SOL     OW24952   3.108   2.246   3.161 -0.1976 -0.3508 -0.0490
 7834SOL    HW124953   3.119   2.154   3.185  1.0590 -0.2470 -0.1272
 7834SOL    HW224954   3.040   2.278   3.220  2.7994 -0.0865  3.6440
 7835SOL     OW24955   2.744   8.219   2.479 -0.1419 -0.2101  0.0424
 7835SOL    HW124956   2.700   8.296   2.444  1.4153  0.5252 -0.3733
 7835SOL    HW224957   2.777   8.173   2.402  0.3146 -0.4268  0.3602
 7836SOL     OW24958   3.643   3.471   3.621 -0.1861  0.1245  0.3586
 7836SOL    HW124959   3.659   3.524   3.543 -0.7237 -0.1960  0.0208
 7836SOL    HW224960   3.699   3.509   3.688  0.9604 -0.1558 -0.4191
 7837SOL     OW24961   4.832   6.358   3.354 -0.0947  0.4020  0.4222
 7837SOL    HW124962   4.893   6.389   3.421 -1.6330  1.2224  1.4965
 7837SOL    HW224963   4.796   6.277   3.391  1.0077 -0.6348 -0.6516
 7838SOL     OW24964   7.180   7.042   8.763  0.0753  0.0777 -0.3960
 7838SOL    HW124965   7.130   6.993   8.698  2.6209 -2.6848 -0.4901
 7838SOL    HW224966   7.249   7.086   8.714 -1.0158  2.2941 -0.0624
 7839SOL     OW24967   1.095   8.754   8.231 -0.3654 -0.5870  0.1399
 7839SOL    HW124968   1.115   8.847   8.228 -2.1681 -0.1183  1.1816
 7839SOL    HW224969   1.075   8.731   8.140  0.6925 -0.1267 -0.2232
 7840SOL     OW24970   8.236   6.176   2.733  0.2871  0.2307  0.0075
 7840SOL    HW124971   8.158   6.189   2.786 -0.3102  1.7956 -1.1751
 7840SOL    HW224972   8.258   6.083   2.745 -0.9590  0.0805  1.4050
 7841SOL     OW24973   3.864   3.334   7.552  0.3144  0.6228 -0.0332
 7841SOL    HW124974   3.871   3.310   7.459  0.0722  0.7800 -0.0942
 7841SOL    HW224975   3.820   3.418   7.551  1.0000  0.9880  0.1941
 7842SOL     OW24976   0.877   0.484   4.575  0.0504  0.5547 -0.3538
 7842SOL    HW124977   0.914   0.552   4.632 -1.4263 -0.2564  1.6773
 7842SOL    HW224978   0.784   0.480   4.599  0.2395 -2.7603  0.2564
 7843SOL     OW24979   9.226   2.712   6.466  0.2408  0.2443 -0.4128
 7843SOL    HW124980   9.180   2.633   6.437 -0.4307  0.5190 -0.1181
 7843SOL    HW224981   9.205   2.778   6.400 -1.1562  0.8258  0.5591
 7844SOL     OW24982   8.739   4.455   8.288 -0.5000  0.0558 -0.2319
 7844SOL    HW124983   8.722   4.398   8.213 -0.8224 -0.0872 -0.0518
 7844SOL    HW224984   8.812   4.510   8.261 -0.8531  0.2579 -0.7909
 7845SOL     OW24985   3.954   5.078   4.255 -0.5370  0.0811 -0.6095
 7845SOL    HW124986   4.047   5.099   4.264  0.0670 -1.6058 -2.1823
 7845SOL    HW224987   3.927   5.125   4.176 -1.9694  3.1896  1.5279
 7846SOL     OW24988   0.792   7.293   8.836  0.1246 -0.1806 -0.3523
 7846SOL    HW124989   0.791   7.318   8.928  2.2305 -0.6357 -0.1634
 7846SOL    HW224990   0.773   7.199   8.836 -1.1578  0.0545 -0.5255
 7847SOL     OW24991   8.999   6.480   6.309  0.1449 -0.0166 -0.4170
 7847SOL    HW124992   9.044   6.413   6.361 -1.4522 -0.4216  0.4941
 7847SOL    HW224993   9.046   6.561   6.330 -0.3157 -0.2060  1.5415
 7848SOL     OW24994   9.119   0.992   7.412  0.0420  0.0720  0.5276
 7848SOL    HW124995   9.085   1.073   7.373  0.3746  0.3290  0.7657
 7848SOL    HW224996   9.040   0.941   7.433 -0.1588  0.1478 -0.0075
 7849SOL     OW24997   3.284   7.295   8.204 -0.0940 -0.1300 -0.1374
 7849SOL    HW124998   3.226   7.250   8.143  0.9727 -0.7175 -0.7575
 7849SOL    HW224999   3.333   7.357   8.150  0.8804 -0.6749  0.0753
 7850SOL     OW25000   8.870   8.693   5.587  0.1235  0.8079 -0.1508
 7850SOL    HW125001   8.787   8.655   5.558 -0.6208  0.9197  1.6844
 7850SOL    HW225002   8.924   8.617   5.611  0.4287  0.7517 -0.9843
 7851SOL     OW25003   3.395   5.507   6.115 -0.2681 -1.0479 -0.0145
 7851SOL    HW125004   3.453   5.569   6.069 -0.8163 -0.9131 -0.5310
 7851SOL    HW225005   3.348   5.462   6.045 -0.9892 -0.9619  0.4144
 7852SOL     OW25006   3.808   0.682   5.474  0.1202  0.4341 -0.1925
 7852SOL    HW125007   3.745   0.649   5.410  0.5678 -1.0610  0.1009
 7852SOL    HW225008   3.790   0.632   5.553  0.6508  1.1021  0.3606
 7853SOL     OW25009   6.753   1.249   3.082  0.5406  0.1959  0.0705
 7853SOL    HW125010   6.667   1.233   3.121  0.9559  1.1979  1.4880
 7853SOL    HW225011   6.778   1.336   3.114  2.9775 -0.8926  1.4390
 7854SOL     OW25012   1.693   3.494   7.858 -0.0915  0.3581 -0.5444
 7854SOL    HW125013   1.696   3.576   7.809 -1.1516  0.8924  0.2428
 7854SOL    HW225014   1.778   3.490   7.902 -0.9199  2.3779  1.4511
 7855SOL     OW25015   3.554   3.012   7.606 -0.1361 -0.1076  0.2183
 7855SOL    HW125016   3.639   3.038   7.641  0.3906  1.8058 -2.2232
 7855SOL    HW225017   3.493   3.080   7.634 -0.6254 -0.7857  0.8623
 7856SOL     OW25018   2.583   3.278   1.507  0.1847 -0.3406 -0.7649
 7856SOL    HW125019   2.514   3.275   1.440  0.1676 -0.2190 -0.7540
 7856SOL    HW225020   2.633   3.198   1.494  1.3659  0.5917 -2.1903
 7857SOL     OW25021   8.929   3.882   2.269  0.5277  0.5867 -0.1212
 7857SOL    HW125022   8.959   3.870   2.359  0.3873  0.8550 -0.0370
 7857SOL    HW225023   8.843   3.841   2.265  1.3342 -1.1373 -0.6461
 7858SOL     OW25024   0.074   4.537   0.708 -0.1657  0.2964  0.4823
 7858SOL    HW125025   0.094   4.469   0.643  0.7369  1.3037 -0.3271
 7858SOL    HW225026   0.142   4.527   0.774  1.6900  2.1237 -1.0229
 7859SOL     OW25027   0.022   4.980   1.617  0.5335 -0.4020 -0.1919
 7859SOL    HW125028  -0.034   4.914   1.659 -0.8763 -0.0323 -1.4165
 7859SOL    HW225029   0.077   4.929   1.557  1.4218 -0.7452  0.8764
 7860SOL     OW25030   0.107   2.159   5.152 -0.0673  0.5874 -0.0822
 7860SOL    HW125031   0.102   2.118   5.066  0.6958  1.8327 -0.7410
 7860SOL    HW225032   0.099   2.086   5.214  0.7710 -0.4846 -1.2049
 7861SOL     OW25033   0.622   3.687   5.380 -0.4716 -0.3329  0.4517
 7861SOL    HW125034   0.645   3.675   5.473  0.0405  0.0001  0.3714
 7861SOL    HW225035   0.686   3.632   5.333 -1.9870 -2.1396  0.3728
 7862SOL     OW25036   6.937   8.636   1.001 -0.8076  0.2397  0.0227
 7862SOL    HW125037   6.965   8.727   1.006  0.6801 -0.2171  0.6869
 7862SOL    HW225038   6.951   8.602   1.090 -1.5245 -0.5781 -0.1641
 7863SOL     OW25039   2.300   6.619   2.459  0.0707 -0.7222 -0.2725
 7863SOL    HW125040   2.364   6.564   2.415  1.2354  0.2858  0.1082
 7863SOL    HW225041   2.349   6.662   2.529  0.0583  3.1344 -2.3540
 7864SOL     OW25042   5.381   0.332   7.344  0.0044 -1.0449 -0.3611
 7864SOL    HW125043   5.320   0.401   7.318 -0.0886 -0.8095  0.4650
 7864SOL    HW225044   5.363   0.260   7.283  0.0247 -0.3945 -1.1609
 7865SOL     OW25045   1.567   8.604   8.039 -0.0069  0.0227  0.1877
 7865SOL    HW125046   1.603   8.588   8.126  0.7224 -1.5952 -0.3910
 7865SOL    HW225047   1.641   8.594   7.980 -0.6421  0.4081 -0.6893
 7866SOL     OW25048   3.503   5.422   6.352  0.4903 -0.0367 -0.2209
 7866SOL    HW125049   3.498   5.502   6.404 -1.3304 -0.3380  0.1371
 7866SOL    HW225050   3.459   5.443   6.270  1.0809 -0.3157 -0.6125
 7867SOL     OW25051   1.488   5.603   8.381 -0.0139 -0.7344  0.1614
 7867SOL    HW125052   1.515   5.638   8.465  1.9360 -1.6057 -0.0488
 7867SOL    HW225053   1.478   5.509   8.396  1.3635 -1.0556 -0.7840
 7868SOL     OW25054   7.181   2.644   1.262  0.3598  0.7582 -0.0419
 7868SOL    HW125055   7.260   2.596   1.235  2.0295  2.1088  2.0815
 7868SOL    HW225056   7.111   2.580   1.256  1.5099 -0.4027 -2.3797
 7869SOL     OW25057   7.919   7.417   3.077 -0.2096  0.0005  0.2897
 7869SOL    HW125058   7.847   7.472   3.047  0.3145  0.1252 -0.7948
 7869SOL    HW225059   7.906   7.334   3.032  0.7682  0.2904 -0.5633
 7870SOL     OW25060   1.399   5.380   6.299 -0.3153  0.2264  0.2249
 7870SOL    HW125061   1.345   5.440   6.350  0.1864  0.1388  0.8669
 7870SOL    HW225062   1.435   5.320   6.364 -0.4302 -0.4760 -0.3552
 7871SOL     OW25063   3.110   4.273   1.933  0.1412  0.2708 -0.0602
 7871SOL    HW125064   3.083   4.344   1.991 -0.5958 -0.9204  1.1146
 7871SOL    HW225065   3.140   4.204   1.992 -0.2594 -0.8377 -1.1030
 7872SOL     OW25066   0.023   5.074   2.118  0.6651  0.0518  0.1391
 7872SOL    HW125067  -0.030   5.004   2.081 -0.0025  0.7687 -0.2899
 7872SOL    HW225068   0.104   5.073   2.066  0.3541  0.0747 -0.3486
 7873SOL     OW25069   1.662   1.435   7.742 -1.0458  0.4114  0.0601
 7873SOL    HW125070   1.705   1.361   7.699 -1.8423  0.2646 -0.5171
 7873SOL    HW225071   1.654   1.409   7.834 -1.3091 -0.2153 -0.1400
 7874SOL     OW25072   8.452   1.643   3.178 -0.2083 -0.0933 -0.1513
 7874SOL    HW125073   8.367   1.636   3.222  0.3585  1.3308  1.2775
 7874SOL    HW225074   8.506   1.695   3.238  1.7819 -1.1908 -0.8869
 7875SOL     OW25075   7.216   5.446   2.101 -0.2579  0.4341  0.0363
 7875SOL    HW125076   7.304   5.478   2.084  0.3374 -1.1400 -0.0583
 7875SOL    HW225077   7.161   5.524   2.098  1.2699  1.6172  1.2372
 7876SOL     OW25078   0.298   7.118   0.474  0.2372 -0.4276  0.1500
 7876SOL    HW125079   0.210   7.088   0.496 -0.6521  0.2755 -2.1440
 7876SOL    HW225080   0.355   7.042   0.491 -1.0334 -1.3944  0.2143
 7877SOL     OW25081   3.607   5.073   2.525  0.2050  0.4908 -0.5276
 7877SOL    HW125082   3.658   5.140   2.481  1.5258 -0.5960 -0.7390
 7877SOL    HW225083   3.566   5.118   2.599  1.7451  1.3679 -0.1661
 7878SOL     OW25084   5.691   2.785   5.866 -0.0372  0.6514  0.0133
 7878SOL    HW125085   5.728   2.835   5.793 -0.0706  0.7110  0.0364
 7878SOL    HW225086   5.711   2.838   5.943 -0.0665  0.6249  0.0390
 7879SOL     OW25087   5.395   7.969   7.718  0.1805  0.7750  0.0235
 7879SOL    HW125088   5.457   7.932   7.780 -1.7646 -1.3718  0.8154
 7879SOL    HW225089   5.331   8.016   7.772 -1.2932 -0.7482 -0.3133
 7880SOL     OW25090   1.636   5.317   5.454 -0.4995 -0.1833 -0.1967
 7880SOL    HW125091   1.608   5.306   5.545 -0.8378 -0.2479 -0.3048
 7880SOL    HW225092   1.558   5.352   5.410  0.1269  1.3689 -0.1360
 7881SOL     OW25093   2.406   8.943   2.039  0.0803 -0.3219 -0.1478
 7881SOL    HW125094   2.409   8.909   1.949 -1.3008  0.4179 -0.5003
 7881SOL    HW225095   2.491   8.984   2.051 -0.0298  0.3523 -1.4615
 7882SOL     OW25096   8.413   4.602   0.620 -0.4404  0.3810  0.2350
 7882SOL    HW125097   8.380   4.555   0.696 -0.7702  1.0283  0.5005
 7882SOL    HW225098   8.336   4.620   0.567 -0.0474 -1.4504 -1.0839
 7883SOL     OW25099   5.397   6.802   0.756  0.3570 -0.0321  0.2487
 7883SOL    HW125100   5.432   6.714   0.744 -2.6724 -1.2791 -0.1110
 7883SOL    HW225101   5.398   6.816   0.850 -2.5610 -2.0920  0.7191
 7884SOL     OW25102   8.331   6.174   2.084 -0.0067 -0.4106  0.0387
 7884SOL    HW125103   8.360   6.246   2.141  0.6050 -1.7693  1.5285
 7884SOL    HW225104   8.354   6.203   1.996  2.6929  0.1444  0.8116
 7885SOL     OW25105   7.891   4.959   0.119 -0.2989 -0.2094  0.5408
 7885SOL    HW125106   7.863   5.030   0.176  1.7221  1.4452 -0.3926
 7885SOL    HW225107   7.870   4.989   0.031  3.1661  0.6826 -0.1230
 7886SOL     OW25108   8.165   8.638   5.340  0.2963  0.1287 -0.2543
 7886SOL    HW125109   8.124   8.618   5.424 -0.1632  2.6736  0.1889
 7886SOL    HW225110   8.120   8.580   5.278  0.4420 -1.5859  1.1629
 7887SOL     OW25111   5.825   1.309   4.559  0.2439 -0.0246 -0.5596
 7887SOL    HW125112   5.868   1.311   4.474 -1.5757 -0.6297 -1.5640
 7887SOL    HW225113   5.847   1.392   4.600  0.2604  0.7554 -2.0958
 7888SOL     OW25114   1.509   5.572   4.696 -0.2498  0.3196 -0.1189
 7888SOL    HW125115   1.437   5.531   4.648 -0.9221  2.4756 -1.0871
 7888SOL    HW225116   1.541   5.503   4.754 -3.5449 -0.5529  0.9145
 7889SOL     OW25117   8.057   3.665   4.251  0.3019 -0.0432 -0.1621
 7889SOL    HW125118   8.120   3.730   4.220  1.3224 -1.1305 -0.4611
 7889SOL    HW225119   7.973   3.710   4.250  0.5833  0.5728 -2.6929
 7890SOL     OW25120   4.036   1.748   7.695  0.0474  0.5286 -0.6259
 7890SOL    HW125121   4.101   1.709   7.637  0.9808  0.7839  0.2127
 7890SOL    HW225122   3.973   1.678   7.712  0.0221  0.3191 -1.5697
 7891SOL     OW25123   4.534   5.627   2.280  0.5782  0.4804 -0.2851
 7891SOL    HW125124   4.620   5.615   2.239 -0.4102 -1.8078 -1.9322
 7891SOL    HW225125   4.550   5.616   2.373  1.9096 -1.3733 -0.6615
 7892SOL     OW25126   5.893   2.942   6.342 -0.0289  0.1297  0.2099
 7892SOL    HW125127   5.818   2.946   6.402 -0.6587  1.7203 -0.6348
 7892SOL    HW225128   5.894   2.851   6.311 -0.6554 -0.3032  1.3954
 7893SOL     OW25129   0.418   3.720   2.819 -0.3834 -0.0127  0.2884
 7893SOL    HW125130   0.450   3.634   2.792 -1.3199 -0.5623  0.8910
 7893SOL    HW225131   0.399   3.765   2.737  2.3103  0.5270 -0.1372
 7894SOL     OW25132   6.937   5.091   0.060 -0.3526  0.0606 -0.1858
 7894SOL    HW125133   7.000   5.027   0.093  0.6095  0.6375 -0.8542
 7894SOL    HW225134   6.947   5.088  -0.035  0.4739  1.9421 -0.1962
 7895SOL     OW25135   5.981   6.830   5.112 -0.7001 -0.3999  0.0001
 7895SOL    HW125136   6.035   6.865   5.042 -0.3629 -0.6085  0.1525
 7895SOL    HW225137   5.894   6.821   5.074 -0.9604  1.2230  0.1376
 7896SOL     OW25138   5.612   4.549   7.899  0.0459  0.0137 -0.1216
 7896SOL    HW125139   5.694   4.530   7.945 -0.2126 -1.5513 -0.2755
 7896SOL    HW225140   5.569   4.464   7.890 -1.0666  0.6544 -1.0628
 7897SOL     OW25141   5.042   1.139   6.815  0.3874  0.0289 -0.1670
 7897SOL    HW125142   5.048   1.069   6.750 -1.4910  0.6386 -1.0607
 7897SOL    HW225143   5.122   1.190   6.803  1.3598 -1.4177 -0.1034
 7898SOL     OW25144   9.214   2.093   5.891  0.7436 -1.1215 -0.1758
 7898SOL    HW125145   9.292   2.144   5.870 -0.4234  0.7229 -0.1856
 7898SOL    HW225146   9.249   2.008   5.920  2.9023  0.3529  1.9725
 7899SOL     OW25147   3.149   7.408   1.738  0.5478  0.5239  0.2843
 7899SOL    HW125148   3.071   7.455   1.767  1.7255  2.2353  0.8112
 7899SOL    HW225149   3.188   7.466   1.673  0.9905 -0.6750 -0.5497
 7900SOL     OW25150   2.403   0.307   3.617 -0.4692  0.2734  0.6015
 7900SOL    HW125151   2.363   0.389   3.588 -2.8425 -1.0474 -0.1634
 7900SOL    HW225152   2.335   0.241   3.601  2.3219 -2.3359 -1.5327
 7901SOL     OW25153   2.420   0.075   5.596  0.1172  0.3473 -0.0382
 7901SOL    HW125154   2.487   0.142   5.583  0.1886  0.5288  1.1881
 7901SOL    HW225155   2.389   0.055   5.508  1.5150  0.5354 -0.6030
 7902SOL     OW25156   1.807   8.144   0.686 -0.1247  0.3601  0.2419
 7902SOL    HW125157   1.758   8.076   0.639 -0.2558 -0.4196  1.4351
 7902SOL    HW225158   1.742   8.183   0.745  0.2745  0.5353  0.5729
 7903SOL     OW25159   3.223   0.574   3.370  0.0131 -0.1387  0.3126
 7903SOL    HW125160   3.282   0.636   3.413  1.0904 -1.3906  0.7315
 7903SOL    HW225161   3.136   0.597   3.403  0.4344  0.8890  0.7468
 7904SOL     OW25162   1.526   5.056   2.662  0.7965 -0.2224 -0.5415
 7904SOL    HW125163   1.456   4.998   2.630  2.0942 -2.7602  0.8499
 7904SOL    HW225164   1.573   5.083   2.583 -0.2882 -0.4735 -1.3015
 7905SOL     OW25165   4.690   0.783   7.914 -0.1960 -0.0003  0.2407
 7905SOL    HW125166   4.653   0.715   7.970  0.3819 -0.9970 -0.5713
 7905SOL    HW225167   4.613   0.824   7.873 -0.5165 -0.5562  0.2756
 7906SOL     OW25168   0.136   7.527   6.262 -0.4521  0.1697 -0.0869
 7906SOL    HW125169   0.222   7.562   6.286 -0.6230  1.0714 -0.6976
 7906SOL    HW225170   0.142   7.433   6.278  0.2242  0.3960  1.0906
 7907SOL     OW25171   1.699   8.608   0.970  0.4097  0.4604  0.4575
 7907SOL    HW125172   1.735   8.567   1.049 -0.6298  1.0565  1.2708
 7907SOL    HW225173   1.630   8.548   0.942  1.8087 -0.5666 -0.9670
 7908SOL     OW25174   2.284   5.122   3.683 -0.3943 -0.2200 -0.1436
 7908SOL    HW125175   2.350   5.174   3.729 -0.1608 -0.0393 -0.6810
 7908SOL    HW225176   2.326   5.095   3.602 -1.2931  0.7367 -0.9748
 7909SOL     OW25177   6.539   2.492   6.169  0.4841 -0.4497  0.5938
 7909SOL    HW125178   6.580   2.556   6.110 -1.7016  1.3366  0.8646
 7909SOL    HW225179   6.552   2.529   6.256 -2.6733  0.9305  0.6112
 7910SOL     OW25180   3.508   2.680   0.537  0.0843  0.0785  0.5277
 7910SOL    HW125181   3.424   2.642   0.564  0.1682  0.3156  1.1310
 7910SOL    HW225182   3.484   2.751   0.477 -0.0305 -2.0391 -2.1206
 7911SOL     OW25183   4.487   7.693   4.835  0.0144 -0.2554  0.4562
 7911SOL    HW125184   4.533   7.679   4.918  0.7211 -0.9954 -0.0397
 7911SOL    HW225185   4.404   7.647   4.845 -0.9163  1.5537  1.5685
 7912SOL     OW25186   1.727   5.289   2.257  0.1362  0.3790  0.7728
 7912SOL    HW125187   1.778   5.336   2.191 -0.7834 -0.8005 -0.8242
 7912SOL    HW225188   1.747   5.335   2.339  2.1444  1.2121 -0.1125
 7913SOL     OW25189   7.233   1.902   5.186 -0.6900  0.5856  0.1251
 7913SOL    HW125190   7.225   1.823   5.240  0.5279  0.4588  0.1371
 7913SOL    HW225191   7.201   1.874   5.100  0.3850 -0.1362 -0.0551
 7914SOL     OW25192   1.516   0.445   5.751 -0.3320  0.3921 -0.3848
 7914SOL    HW125193   1.600   0.415   5.784 -0.3146 -0.8953 -1.4814
 7914SOL    HW225194   1.534   0.471   5.660 -0.9261  1.0262 -0.3264
 7915SOL     OW25195   7.083   2.829   6.773 -0.5911 -0.4765 -0.0624
 7915SOL    HW125196   7.092   2.733   6.765  1.2988 -0.5797  2.1447
 7915SOL    HW225197   7.131   2.863   6.697  0.6266 -1.3108  0.2969
 7916SOL     OW25198   5.465   7.980   0.036 -0.3102  0.2077  0.2283
 7916SOL    HW125199   5.551   7.940   0.022 -0.4288  0.1008 -0.2244
 7916SOL    HW225200   5.421   7.920   0.097 -0.3744 -0.1912 -0.2074
 7917SOL     OW25201   3.520   6.136   4.652 -0.5192  0.2113  0.4559
 7917SOL    HW125202   3.562   6.195   4.589  0.9845 -0.2553  0.9778
 7917SOL    HW225203   3.505   6.191   4.729 -1.1971  0.4685  0.1418
 7918SOL     OW25204   4.428   2.146   6.223  0.1102  0.0558  0.5480
 7918SOL    HW125205   4.419   2.053   6.201 -1.4968  0.0149  1.1764
 7918SOL    HW225206   4.340   2.182   6.207  0.7318  1.4906  0.2389
 7919SOL     OW25207   8.457   7.802   5.742 -0.0018 -0.1755  0.1313
 7919SOL    HW125208   8.540   7.801   5.693  0.4569 -1.1319  0.8983
 7919SOL    HW225209   8.415   7.720   5.719  0.4142 -0.8399  1.6362
 7920SOL     OW25210   1.918   1.095   4.876 -0.1941 -0.6295 -0.2563
 7920SOL    HW125211   2.004   1.081   4.916 -0.7801 -0.4131  1.1377
 7920SOL    HW225212   1.937   1.122   4.787  1.1494 -2.2161 -0.5020
 7921SOL     OW25213   3.706   3.709   7.752  0.4458  0.7783  0.2455
 7921SOL    HW125214   3.755   3.760   7.817 -1.6740  2.4615  0.6407
 7921SOL    HW225215   3.770   3.689   7.684  1.9201  1.9402  1.2240
 7922SOL     OW25216   5.409   8.600   0.764 -0.2013  0.1447  0.4721
 7922SOL    HW125217   5.402   8.686   0.805 -0.6915  0.0032  0.6958
 7922SOL    HW225218   5.415   8.618   0.671 -0.2914  0.4194  0.5196
 7923SOL     OW25219   8.077   7.798   7.902 -0.1647  0.6733 -0.9270
 7923SOL    HW125220   8.112   7.726   7.849  0.7789  0.5413 -0.1373
 7923SOL    HW225221   7.994   7.820   7.860 -0.0473 -0.2952 -1.6938
 7924SOL     OW25222   1.819   3.603   3.737  0.1734  0.4494 -0.0995
 7924SOL    HW125223   1.869   3.671   3.782 -0.4933  0.3081  0.8949
 7924SOL    HW225224   1.734   3.602   3.782 -0.2517 -0.2194 -0.8832
 7925SOL     OW25225   7.993   7.630   1.747 -0.4291  0.0582  0.2193
 7925SOL    HW125226   7.944   7.577   1.684  0.2056  1.1814 -1.2706
 7925SOL    HW225227   8.085   7.617   1.722 -0.2110  1.0885  0.4426
 7926SOL     OW25228   4.275   3.890   7.076  0.1359 -0.5702 -0.6952
 7926SOL    HW125229   4.240   3.802   7.083 -1.5028  0.1477  0.7850
 7926SOL    HW225230   4.283   3.921   7.167 -1.3617  1.5300 -1.1979
 7927SOL     OW25231   8.975   3.023   4.260  0.6442 -0.0123  0.5626
 7927SOL    HW125232   8.922   2.959   4.307 -0.2311 -1.0805 -1.7513
 7927SOL    HW225233   9.022   2.972   4.194 -0.1395  1.6798 -1.4113
 7928SOL     OW25234   5.239   9.102   2.522  0.2953  0.2667 -0.3146
 7928SOL    HW125235   5.264   9.125   2.432  3.1982  0.8076  0.5014
 7928SOL    HW225236   5.311   9.046   2.553 -0.2054  0.7452  1.9144
 7929SOL     OW25237   8.844   8.566   7.048 -0.0827  0.4033  0.0975
 7929SOL    HW125238   8.898   8.559   7.126  0.6523  1.7170 -0.2626
 7929SOL    HW225239   8.817   8.658   7.046 -1.1076  0.1069 -0.5356
 7930SOL     OW25240   7.939   6.073   5.107  0.3001 -0.2019 -0.3072
 7930SOL    HW125241   7.941   6.125   5.026  0.3526 -1.7907 -1.3622
 7930SOL    HW225242   7.867   6.111   5.158 -0.6092 -0.0045 -1.6931
 7931SOL     OW25243   8.291   0.574   0.643  0.4342  0.0803 -0.2678
 7931SOL    HW125244   8.386   0.579   0.634  0.2875  2.4548 -1.3404
 7931SOL    HW225245   8.269   0.648   0.700 -0.7526 -0.5538  0.1138
 7932SOL     OW25246   8.006   0.006   2.749  0.4926 -0.1691 -0.2550
 7932SOL    HW125247   7.931   0.020   2.808 -1.1259  0.9336 -2.4078
 7932SOL    HW225248   8.034   0.094   2.725  1.2879 -0.5941 -0.9293
 7933SOL     OW25249   4.429   4.724   7.748 -0.2670  0.3004 -0.4509
 7933SOL    HW125250   4.424   4.637   7.708 -0.3980  1.0398 -2.1072
 7933SOL    HW225251   4.341   4.739   7.784 -0.3834 -0.0643 -0.5780
 7934SOL     OW25252   5.613   8.044   2.756 -0.0943  0.6830  0.3137
 7934SOL    HW125253   5.639   8.136   2.757  0.1057  0.6462  2.3090
 7934SOL    HW225254   5.633   8.012   2.844 -0.3571 -1.2226 -0.2681
 7935SOL     OW25255   1.332   3.103   8.866  0.8354 -0.1695  0.0014
 7935SOL    HW125256   1.315   3.147   8.783  2.7985  0.1767 -0.2712
 7935SOL    HW225257   1.384   3.166   8.916  4.5945 -2.3612 -0.7736
 7936SOL     OW25258   1.136   2.863   1.699 -0.5674 -0.0260 -0.6955
 7936SOL    HW125259   1.070   2.903   1.757 -1.9252 -1.5700 -1.0930
 7936SOL    HW225260   1.126   2.911   1.617 -1.1139 -0.1628 -0.7146
 7937SOL     OW25261   8.454   3.448   0.907 -0.3827 -0.0132  0.1294
 7937SOL    HW125262   8.458   3.419   0.998  2.1949 -0.1460  0.0381
 7937SOL    HW225263   8.534   3.499   0.894 -0.8031  0.2036 -1.9986
 7938SOL     OW25264   2.275   9.243   4.778  0.6936  0.0092 -0.8244
 7938SOL    HW125265   2.246   9.203   4.696  1.1420 -0.4603 -0.7644
 7938SOL    HW225266   2.262   9.337   4.766  1.4530  0.0121 -1.7280
 7939SOL     OW25267   8.799   7.254   1.444 -0.1174 -0.3379 -0.9035
 7939SOL    HW125268   8.761   7.271   1.358  0.2943 -0.9818 -1.2200
 7939SOL    HW225269   8.728   7.272   1.505 -0.6653 -0.6623 -1.4270
 7940SOL     OW25270   2.982   5.261   0.137  0.5526  0.2135  0.3160
 7940SOL    HW125271   3.033   5.188   0.102 -1.1417  0.0861 -2.1098
 7940SOL    HW225272   2.915   5.220   0.192  2.1261  0.3046  2.4348
 7941SOL     OW25273   6.208   4.840   0.673  0.1289 -0.3472 -0.4534
 7941SOL    HW125274   6.235   4.905   0.738 -1.5572  0.1773 -0.2460
 7941SOL    HW225275   6.278   4.843   0.607  1.6067 -0.5295  1.0471
 7942SOL     OW25276   2.749   7.725   5.186  0.3924 -0.5403 -0.3228
 7942SOL    HW125277   2.705   7.758   5.264 -0.1993  0.1303 -0.9184
 7942SOL    HW225278   2.722   7.785   5.116  1.7109 -0.5192 -0.8526
 7943SOL     OW25279   6.624   6.701   2.130  0.2090  0.4377  0.0645
 7943SOL    HW125280   6.658   6.660   2.210 -0.6180  0.7632  0.5892
 7943SOL    HW225281   6.535   6.668   2.122  0.0909  0.8608 -0.4150
 7944SOL     OW25282   0.483   2.913   1.573 -0.2035  0.5839 -0.1588
 7944SOL    HW125283   0.565   2.963   1.571 -0.9906  1.9058 -1.1162
 7944SOL    HW225284   0.480   2.876   1.661  1.2825  0.7335 -0.0149
 7945SOL     OW25285   1.690   4.600   4.165  0.0790 -0.2138  0.3928
 7945SOL    HW125286   1.671   4.675   4.221  0.8203  0.5451 -0.3422
 7945SOL    HW225287   1.751   4.547   4.215  1.5578  0.9790 -0.0386
 7946SOL     OW25288   5.730   4.077   3.661  0.4363 -0.0871 -0.1140
 7946SOL    HW125289   5.679   4.113   3.733  1.0247  0.7934 -0.1244
 7946SOL    HW225290   5.694   4.120   3.583 -1.2338 -2.1361 -0.5913
 7947SOL     OW25291   5.245   3.307   4.604 -0.2407  0.0093 -0.1156
 7947SOL    HW125292   5.200   3.270   4.679  1.9733  0.0658  1.3473
 7947SOL    HW225293   5.265   3.397   4.630 -0.2947  0.3390 -1.1760
 7948SOL     OW25294   1.877   3.343   5.841 -0.5259  0.4923 -0.5475
 7948SOL    HW125295   1.808   3.366   5.779  1.6222  2.2380 -2.4598
 7948SOL    HW225296   1.955   3.328   5.787  0.6759 -1.2820  1.5128
 7949SOL     OW25297   6.273   8.039   0.334 -0.3143  0.0656  0.1819
 7949SOL    HW125298   6.367   8.032   0.349 -0.4432 -0.5978  0.7670
 7949SOL    HW225299   6.244   8.110   0.391 -0.3424 -0.4958  0.8753
 7950SOL     OW25300   0.120   6.998   6.135 -0.1299  0.3022  0.2519
 7950SOL    HW125301   0.156   6.911   6.120 -0.2875 -0.1082  2.0423
 7950SOL    HW225302   0.160   7.053   6.067  1.0257 -0.8791 -0.0463
 7951SOL     OW25303   6.271   9.169   4.329 -0.1701  0.0276  0.1398
 7951SOL    HW125304   6.241   9.078   4.321  0.3267 -0.1970  0.7081
 7951SOL    HW225305   6.218   9.218   4.267  1.2515 -1.0467 -2.0260
 7952SOL     OW25306   3.352   7.537   8.084 -0.1148 -0.5824 -0.3084
 7952SOL    HW125307   3.398   7.518   8.003  0.3625 -1.9249  0.2455
 7952SOL    HW225308   3.421   7.557   8.147 -0.4121 -0.6009  0.0257
 7953SOL     OW25309   2.521   3.851   2.542 -0.3875 -0.0848  0.1081
 7953SOL    HW125310   2.447   3.795   2.516  0.7329 -0.8786 -1.5380
 7953SOL    HW225311   2.564   3.803   2.613 -0.3267 -0.5688 -0.2525
 7954SOL     OW25312   7.690   4.181   8.497 -0.1042  0.4180  0.4447
 7954SOL    HW125313   7.780   4.191   8.527 -0.4517  1.5720  1.2052
 7954SOL    HW225314   7.650   4.121   8.561  0.0794  0.0299  0.1977
 7955SOL     OW25315   0.717   0.966   9.262 -0.2893  0.4986 -0.5215
 7955SOL    HW125316   0.684   0.958   9.173  1.0618 -1.1252 -0.9255
 7955SOL    HW225317   0.788   0.903   9.267  0.2409  1.1770  1.4560
 7956SOL     OW25318   1.995   7.698   7.505 -0.7612 -0.2312 -0.1375
 7956SOL    HW125319   1.923   7.713   7.566  0.1316 -1.0154  1.1666
 7956SOL    HW225320   1.978   7.611   7.468 -0.5064 -0.4045  0.1497
 7957SOL     OW25321   8.653   0.597   1.388 -0.1459 -0.7089 -0.5439
 7957SOL    HW125322   8.632   0.541   1.463 -2.0170  1.0558  0.3730
 7957SOL    HW225323   8.616   0.551   1.313 -0.2447 -1.4549 -0.0552
 7958SOL     OW25324   4.936   3.378   8.777 -0.5126  0.1188 -0.1022
 7958SOL    HW125325   4.945   3.425   8.695 -2.1504 -0.3148 -0.5589
 7958SOL    HW225326   4.855   3.411   8.816 -0.5187 -0.7137  0.6329
 7959SOL     OW25327   7.108   5.093   1.751 -0.2229  0.1069  0.0701
 7959SOL    HW125328   7.131   5.158   1.685  0.4759 -0.1928  0.0054
 7959SOL    HW225329   7.050   5.032   1.705  1.2243 -0.7881 -0.6521
 7960SOL     OW25330   5.315   3.155   1.694 -0.5133  0.5014  0.0771
 7960SOL    HW125331   5.250   3.203   1.747 -0.6930  0.8213 -0.4223
 7960SOL    HW225332   5.347   3.220   1.632 -2.2126 -0.4990 -1.9467
 7961SOL     OW25333   6.828   5.936   0.394  0.0358  0.4918 -0.1750
 7961SOL    HW125334   6.735   5.948   0.416  0.1407 -0.2302  0.7451
 7961SOL    HW225335   6.829   5.929   0.298 -0.7642  1.2588 -0.2544
 7962SOL     OW25336   0.725   3.006   5.622 -0.3740  0.2378 -0.5612
 7962SOL    HW125337   0.800   3.066   5.622  0.3311 -0.6277  0.0389
 7962SOL    HW225338   0.755   2.931   5.571 -0.4636 -0.5659  0.5553
 7963SOL     OW25339   1.273   5.670   7.156 -0.1181 -0.3288 -0.1692
 7963SOL    HW125340   1.247   5.585   7.190 -4.2062 -0.5760 -3.1110
 7963SOL    HW225341   1.217   5.733   7.201 -0.1517  0.2365 -0.9641
 7964SOL     OW25342   2.418   2.789   8.102 -0.3924  0.3283 -0.2328
 7964SOL    HW125343   2.364   2.811   8.026  0.3419 -0.3755 -0.9753
 7964SOL    HW225344   2.502   2.832   8.084 -0.2538  0.2555  0.2411
 7965SOL     OW25345   6.291   7.520   5.618 -0.1360 -0.0340 -0.2550
 7965SOL    HW125346   6.221   7.461   5.588 -0.9954  0.4613  0.6800
 7965SOL    HW225347   6.255   7.608   5.605  0.9119  0.2735 -1.1158
 7966SOL     OW25348   2.583   5.658   7.365  0.0152 -0.5041 -0.2277
 7966SOL    HW125349   2.674   5.685   7.382  0.1688 -0.5714 -0.9161
 7966SOL    HW225350   2.554   5.619   7.448  1.3070 -2.3821 -0.6125
 7967SOL     OW25351   4.187   3.105   7.745 -0.3835  0.3517  0.1922
 7967SOL    HW125352   4.130   3.050   7.692  0.3801  0.5775 -0.8997
 7967SOL    HW225353   4.202   3.183   7.691 -2.8070  2.4790  2.3619
 7968SOL     OW25354   1.066   1.045   4.747  0.2718  0.5888 -0.3336
 7968SOL    HW125355   1.055   0.985   4.821 -1.0133 -0.2715 -1.2005
 7968SOL    HW225356   1.044   1.131   4.783 -1.2410  0.0556  0.0897
 7969SOL     OW25357   9.082   2.962   1.398  0.6467 -0.8409  0.3527
 7969SOL    HW125358   9.071   2.867   1.386  1.6546 -0.8444 -0.6853
 7969SOL    HW225359   9.033   2.981   1.478  0.8751 -2.3285  0.8855
 7970SOL     OW25360   7.157   2.930   4.549 -0.3132 -0.0637 -0.4795
 7970SOL    HW125361   7.074   2.938   4.596  0.2742 -0.6071  0.7083
 7970SOL    HW225362   7.171   2.835   4.540  0.3300  0.0139 -0.3696
 7971SOL     OW25363   3.973   7.937   5.263  0.1152  0.1647  0.2385
 7971SOL    HW125364   3.889   7.939   5.217  0.2890  0.3971 -0.0701
 7971SOL    HW225365   4.037   7.963   5.198  0.3704  0.4663  0.6026
 7972SOL     OW25366   8.707   5.037   1.518  0.2719 -0.0997  0.0285
 7972SOL    HW125367   8.723   5.114   1.571  1.3080  1.0715 -1.8752
 7972SOL    HW225368   8.794   5.003   1.496 -0.1498 -2.4014  1.5669
 7973SOL     OW25369   5.675   2.329   4.803 -0.0665 -0.2127  0.3466
 7973SOL    HW125370   5.765   2.324   4.833  0.0705 -0.4562 -0.1069
 7973SOL    HW225371   5.681   2.357   4.712 -0.3910 -1.4544 -0.0705
 7974SOL     OW25372   3.216   4.751   3.251 -0.7168  0.5433  0.2787
 7974SOL    HW125373   3.221   4.678   3.189 -2.1593  0.5188  0.1694
 7974SOL    HW225374   3.235   4.712   3.336  1.7036  0.6475 -0.1458
 7975SOL     OW25375   8.485   3.765   1.056 -0.0449 -0.0260  0.4745
 7975SOL    HW125376   8.472   3.689   1.113 -1.1363  1.9150  2.9666
 7975SOL    HW225377   8.397   3.786   1.024  0.4255 -0.5053 -1.2625
 7976SOL     OW25378   9.094   2.733   6.052  0.0211  0.1119  0.3795
 7976SOL    HW125379   9.054   2.798   5.994 -0.2792 -0.8616 -0.5434
 7976SOL    HW225380   9.078   2.649   6.008  0.4493 -0.5827  1.5095
 7977SOL     OW25381   7.428   7.595   7.928  0.2602  0.3369 -0.6714
 7977SOL    HW125382   7.446   7.652   7.853 -2.5884  0.7461 -1.1408
 7977SOL    HW225383   7.333   7.601   7.941  0.1362 -2.6982  0.5767
 7978SOL     OW25384   5.587   4.903   4.063  0.2051 -0.1530  0.3286
 7978SOL    HW125385   5.496   4.931   4.050  0.4875  0.3327 -0.7358
 7978SOL    HW225386   5.586   4.809   4.047  0.4874  0.3477 -3.5009
 7979SOL     OW25387   4.363   4.468   4.094  0.2363  0.3762  0.0328
 7979SOL    HW125388   4.395   4.551   4.129  2.6851  0.8845 -2.9915
 7979SOL    HW225389   4.429   4.404   4.119 -0.2150 -0.1039  0.0137
 7980SOL     OW25390   0.789   1.454   5.956  0.1819 -1.1966 -0.4719
 7980SOL    HW125391   0.870   1.462   5.906  0.7220 -1.0455  0.3975
 7980SOL    HW225392   0.806   1.503   6.036 -1.2182 -0.1086 -0.8089
 7981SOL     OW25393   5.628   3.357   7.869  0.3233 -0.3510 -0.4952
 7981SOL    HW125394   5.718   3.349   7.835  0.3251  0.2962 -0.6490
 7981SOL    HW225395   5.620   3.448   7.895 -0.3570 -0.3606 -0.6514
 7982SOL     OW25396   1.679   4.685   7.873 -0.1267 -0.1873 -0.5116
 7982SOL    HW125397   1.661   4.670   7.781 -2.1404  0.8312 -0.3392
 7982SOL    HW225398   1.668   4.599   7.914  1.2226 -0.7395 -1.2459
 7983SOL     OW25399   5.708   4.891   5.749  0.4363  0.3267  0.3016
 7983SOL    HW125400   5.794   4.915   5.783  0.1720 -2.3269  3.3361
 7983SOL    HW225401   5.713   4.796   5.736 -2.2805 -0.0638  1.5126
 7984SOL     OW25402   2.985   1.543   7.681  0.1560  0.3633 -0.1582
 7984SOL    HW125403   3.071   1.568   7.714 -0.1905  1.9711 -0.4097
 7984SOL    HW225404   2.963   1.610   7.616 -1.9764  0.9366  1.0684
 7985SOL     OW25405   5.272   2.704   8.844 -0.4960  0.2016  0.2296
 7985SOL    HW125406   5.305   2.793   8.833 -1.5519  1.1652  3.5911
 7985SOL    HW225407   5.179   2.709   8.822 -0.8636  0.3249  1.6945
 7986SOL     OW25408   5.524   0.211   2.859 -0.3289  0.1587  0.4641
 7986SOL    HW125409   5.442   0.165   2.842  0.6157 -1.2632 -0.5648
 7986SOL    HW225410   5.551   0.181   2.946  1.2259 -2.9574 -0.9159
 7987SOL     OW25411   1.815   0.580   0.523 -0.0654  0.6114  0.1506
 7987SOL    HW125412   1.852   0.618   0.443 -0.3107 -1.9624 -1.3117
 7987SOL    HW225413   1.874   0.507   0.544 -0.9663  0.1867  1.3205
 7988SOL     OW25414   8.173   3.497   1.976 -0.4251 -0.5092  0.1799
 7988SOL    HW125415   8.163   3.592   1.971  0.8588 -0.2936  1.1684
 7988SOL    HW225416   8.087   3.466   2.005 -0.5677  0.4558  0.8575
 7989SOL     OW25417   8.064   8.736   3.834 -0.0593 -0.2183  0.1347
 7989SOL    HW125418   8.083   8.817   3.787  0.3940 -0.7926 -0.7000
 7989SOL    HW225419   8.071   8.667   3.767 -2.6021 -0.7514  0.2958
 7990SOL     OW25420   2.046   7.740   4.109  0.0333 -0.5962  0.2081
 7990SOL    HW125421   2.072   7.753   4.018  0.1711  1.2378  0.4643
 7990SOL    HW225422   2.065   7.824   4.151 -0.4640 -1.2578  1.8258
 7991SOL     OW25423   3.044   0.469   5.582 -0.1954  0.6568  0.1612
 7991SOL    HW125424   3.010   0.423   5.659 -0.6193  0.1636 -0.3142
 7991SOL    HW225425   2.988   0.547   5.575 -1.2406 -0.1218 -0.5833
 7992SOL     OW25426   5.402   8.541   6.865 -0.4241 -0.0543 -0.1105
 7992SOL    HW125427   5.363   8.628   6.877 -1.5925 -0.6912  0.9435
 7992SOL    HW225428   5.335   8.490   6.821 -0.1568 -0.7064  0.2226
 7993SOL     OW25429   6.142   9.077   1.617 -0.0327 -0.9557 -0.2779
 7993SOL    HW125430   6.134   8.982   1.626 -0.3986 -0.8582  0.4977
 7993SOL    HW225431   6.200   9.103   1.688  1.7328 -0.8255 -1.7118
 7994SOL     OW25432   8.177   0.634   2.936  0.0828 -0.1615 -0.4210
 7994SOL    HW125433   8.083   0.629   2.953 -0.2899 -0.7623 -2.4701
 7994SOL    HW225434   8.195   0.728   2.932 -0.6537 -0.0447 -1.1461
 7995SOL     OW25435   1.459   1.663   5.474 -0.0946  0.0787 -0.4460
 7995SOL    HW125436   1.446   1.751   5.511  0.5839  0.4212 -0.9890
 7995SOL    HW225437   1.509   1.617   5.541 -0.5394  0.0690 -0.1149
 7996SOL     OW25438   7.115   2.566   8.986  0.0366  0.4807 -0.4421
 7996SOL    HW125439   7.085   2.484   9.026  0.5850  0.3728 -0.2493
 7996SOL    HW225440   7.116   2.629   9.058  1.2555  0.2272 -0.2238
 7997SOL     OW25441   3.099   0.708   0.307  0.1492 -0.1661 -0.1057
 7997SOL    HW125442   3.014   0.697   0.263  0.2092  2.6280 -1.1304
 7997SOL    HW225443   3.080   0.693   0.399 -1.5889  0.8111 -0.2529
 7998SOL     OW25444   4.264   0.548   2.754 -0.2114 -0.2049  0.4445
 7998SOL    HW125445   4.347   0.577   2.792 -0.4697 -0.7731  1.4603
 7998SOL    HW225446   4.274   0.565   2.660  0.1196  1.9950  0.8161
 7999SOL     OW25447   9.216   1.182   5.048  0.2661  0.1464 -0.3174
 7999SOL    HW125448   9.154   1.113   5.072  1.4244 -1.5155 -1.7800
 7999SOL    HW225449   9.168   1.263   5.060 -1.1794 -0.8969  1.4669
 8000SOL     OW25450   0.003   3.991   7.638  0.0728 -0.3172  0.4958
 8000SOL    HW125451  -0.068   4.043   7.599 -0.8679 -2.2238 -0.4619
 8000SOL    HW225452  -0.042   3.922   7.687  1.2040 -2.5201 -1.4241
 8001SOL     OW25453   6.631   5.806   2.190 -0.1337  0.8069  0.0911
 8001SOL    HW125454   6.570   5.738   2.219  0.2311  1.1337  1.7005
 8001SOL    HW225455   6.603   5.885   2.236  1.5922  0.9338  0.9914
 8002SOL     OW25456   3.922   6.595   5.432 -0.3155 -0.3497 -0.4980
 8002SOL    HW125457   3.862   6.540   5.483  1.0611 -0.9290  0.5845
 8002SOL    HW225458   3.865   6.653   5.382 -1.8227 -2.1912 -1.0664
 8003SOL     OW25459   6.221   6.277   7.027  0.0134 -0.3812  0.4334
 8003SOL    HW125460   6.293   6.336   7.050  1.0516 -0.7491 -1.6265
 8003SOL    HW225461   6.149   6.336   7.003  0.9440  0.1326 -1.3125
 8004SOL     OW25462   8.459   1.182   2.255 -0.8412  0.7812 -0.2613
 8004SOL    HW125463   8.525   1.159   2.320 -0.0721  0.3863 -1.1595
 8004SOL    HW225464   8.391   1.227   2.305 -0.4732  0.1178  0.8792
 8005SOL     OW25465   3.392   3.547   3.421  0.3697 -0.4522  0.4139
 8005SOL    HW125466   3.390   3.569   3.514 -0.1847  0.6442  0.1571
 8005SOL    HW225467   3.421   3.455   3.419  2.4995  0.1213  1.5523
 8006SOL     OW25468   0.854   6.733   3.758  0.0346 -0.0032  0.1427
 8006SOL    HW125469   0.783   6.738   3.823 -0.4730 -0.2826 -0.3743
 8006SOL    HW225470   0.925   6.688   3.803 -0.1206  0.2795  0.6745
 8007SOL     OW25471   4.806   8.008   5.594  0.2216 -0.5241 -0.1513
 8007SOL    HW125472   4.900   8.022   5.582  0.2527 -0.6001  0.0027
 8007SOL    HW225473   4.787   7.930   5.541  0.0235  0.1630 -1.1136
 8008SOL     OW25474   4.254   5.334   3.399  0.1282  0.5426 -0.7022
 8008SOL    HW125475   4.260   5.327   3.494 -2.2840  2.2034 -0.3536
 8008SOL    HW225476   4.271   5.245   3.367 -0.0175 -0.2569  1.3278
 8009SOL     OW25477   3.128   3.887   1.616  0.1959 -0.4865  0.6420
 8009SOL    HW125478   3.192   3.900   1.686 -0.0184 -0.2071  0.7838
 8009SOL    HW225479   3.127   3.970   1.568 -1.3466  0.1351  1.6944
 8010SOL     OW25480   3.151   6.170   1.239  0.6307  0.2497 -0.2308
 8010SOL    HW125481   3.102   6.114   1.178  0.8296  1.3289 -1.4209
 8010SOL    HW225482   3.184   6.109   1.305 -3.0088 -0.4628  1.1945
 8011SOL     OW25483   5.058   1.458   4.121 -0.2594 -0.4424 -0.4156
 8011SOL    HW125484   5.070   1.372   4.161 -1.3694 -0.8887 -1.0158
 8011SOL    HW225485   5.113   1.455   4.042 -2.4696 -1.7119 -2.0171
 8012SOL     OW25486   5.051   6.262   3.195  0.0499 -0.7271 -0.7303
 8012SOL    HW125487   4.965   6.270   3.236 -0.7852 -0.0274 -2.5031
 8012SOL    HW225488   5.034   6.272   3.102  2.1692  0.3520 -1.0645
 8013SOL     OW25489   2.234   6.742   8.986  0.2829  0.0798 -0.4635
 8013SOL    HW125490   2.242   6.729   8.892  1.1993  0.7996 -0.5059
 8013SOL    HW225491   2.238   6.837   8.997  2.3542 -0.0371  0.4382
 8014SOL     OW25492   0.678   0.239   7.088 -0.6682  0.0042  0.4734
 8014SOL    HW125493   0.682   0.188   7.007  0.0733  0.0435  0.4810
 8014SOL    HW225494   0.707   0.178   7.156 -1.5291 -0.1053  0.7528
 8015SOL     OW25495   7.432   4.414   0.627  0.0340 -0.6339 -0.3417
 8015SOL    HW125496   7.490   4.369   0.688  1.7491  0.3511 -1.1481
 8015SOL    HW225497   7.346   4.408   0.666  0.4492 -3.1755  0.3599
 8016SOL     OW25498   2.351   6.987   6.541 -0.7819  0.6552  0.2043
 8016SOL    HW125499   2.341   6.909   6.485  1.0181  1.6056 -1.6007
 8016SOL    HW225500   2.267   7.031   6.536 -0.7798  0.5592 -1.6193
 8017SOL     OW25501   6.433   3.289   0.521 -0.6610 -0.1716 -0.4814
 8017SOL    HW125502   6.352   3.296   0.471 -1.5538 -0.2017  0.9049
 8017SOL    HW225503   6.499   3.332   0.466 -1.8134  0.7382 -1.1980
 8018SOL     OW25504   8.931   4.752   3.771 -0.6152  0.1667 -0.8588
 8018SOL    HW125505   9.013   4.790   3.803 -0.2402 -0.1571 -1.4354
 8018SOL    HW225506   8.946   4.658   3.772 -1.1354  0.0782 -0.5622
 8019SOL     OW25507   8.717   0.934   3.352 -0.0980  0.4324 -0.3417
 8019SOL    HW125508   8.679   1.018   3.378  0.0880  0.5439 -0.4334
 8019SOL    HW225509   8.783   0.956   3.286 -0.9724  0.1049 -1.3525
 8020SOL     OW25510   6.251   7.101   5.506 -0.2441 -0.2247 -0.8098
 8020SOL    HW125511   6.204   7.017   5.508  3.1245 -2.3758 -1.7280
 8020SOL    HW225512   6.255   7.124   5.413 -0.3386  0.4418 -0.6510
 8021SOL     OW25513   7.574   6.349   9.080  0.1286  0.5208 -0.1134
 8021SOL    HW125514   7.498   6.336   9.138 -0.1891  2.1223 -0.1260
 8021SOL    HW225515   7.537   6.352   8.992  0.2266  1.0142 -0.1430
 8022SOL     OW25516   5.967   8.045   0.398 -0.2143 -0.5883  0.5638
 8022SOL    HW125517   6.022   8.050   0.476  2.2892  1.9987 -1.1341
 8022SOL    HW225518   5.921   8.129   0.397 -0.3228 -0.6536 -0.6181
 8023SOL     OW25519   5.731   8.406   1.360  0.2227 -0.1580  0.2065
 8023SOL    HW125520   5.792   8.476   1.334 -0.3907  0.1905 -0.3242
 8023SOL    HW225521   5.697   8.372   1.278 -1.5561  0.7829  0.4948
 8024SOL     OW25522   8.396   5.165   0.047 -0.0145 -0.1087  0.5790
 8024SOL    HW125523   8.319   5.169  -0.010 -0.7121  0.1898  1.5130
 8024SOL    HW225524   8.461   5.220   0.003 -0.9226  1.0463  0.6294
 8025SOL     OW25525   8.278   6.807   6.365 -0.4225 -0.2670 -0.1208
 8025SOL    HW125526   8.344   6.841   6.305 -1.0734  0.7828 -0.2699
 8025SOL    HW225527   8.260   6.880   6.425 -0.3163 -1.0559  0.9004
 8026SOL     OW25528   7.857   2.116   8.517  0.3645 -0.4905 -0.5586
 8026SOL    HW125529   7.888   2.038   8.563 -1.7583 -0.5894  0.8186
 8026SOL    HW225530   7.854   2.184   8.585 -2.2815 -0.4763 -0.6194
 8027SOL     OW25531   5.271   5.588   3.797 -0.1200 -0.2965 -0.0664
 8027SOL    HW125532   5.320   5.669   3.811 -2.0635  1.1834 -1.2239
 8027SOL    HW225533   5.282   5.569   3.704 -0.1593 -1.0220  0.0728
 8028SOL     OW25534   6.282   2.065   6.956  0.2604 -0.3204  0.5544
 8028SOL    HW125535   6.264   2.087   7.047 -1.7858  0.1837  0.0724
 8028SOL    HW225536   6.336   2.138   6.924 -1.7575  1.2574  0.5175
 8029SOL     OW25537   0.521   7.842   5.431 -0.4433  0.5240  0.2788
 8029SOL    HW125538   0.550   7.919   5.480  0.6089 -0.7450  1.7387
 8029SOL    HW225539   0.591   7.779   5.442 -0.6438 -0.1940 -2.0715
 8030SOL     OW25540   2.273   6.543   5.297  0.2575 -0.1188 -0.6913
 8030SOL    HW125541   2.217   6.466   5.299 -0.4709  0.3911 -0.9425
 8030SOL    HW225542   2.288   6.565   5.389 -0.4520  0.0943 -0.6257
 8031SOL     OW25543   0.592   3.779   1.617 -0.0919 -0.0593 -0.5443
 8031SOL    HW125544   0.656   3.788   1.547  0.2776 -1.6124 -0.4353
 8031SOL    HW225545   0.597   3.687   1.643 -0.1036  0.4897  1.6225
 8032SOL     OW25546   2.835   3.497   2.579 -0.5895  0.4567 -0.3053
 8032SOL    HW125547   2.822   3.422   2.637 -1.8834  0.1665 -0.9214
 8032SOL    HW225548   2.858   3.459   2.495 -3.4803  0.5251 -1.2507
 8033SOL     OW25549   3.774   5.749   4.170 -0.0409  0.6119 -0.3012
 8033SOL    HW125550   3.804   5.822   4.116 -1.3102  0.9345 -0.5943
 8033SOL    HW225551   3.740   5.789   4.250 -1.2202  0.4110 -0.6793
 8034SOL     OW25552   4.363   9.265   4.064 -0.1062 -0.0115 -0.4976
 8034SOL    HW125553   4.438   9.244   4.120 -1.0135 -0.8015  0.4705
 8034SOL    HW225554   4.359   9.361   4.064 -1.1809  0.0440  2.4117
 8035SOL     OW25555   4.621   0.392   1.433  0.0550 -0.3025 -0.1412
 8035SOL    HW125556   4.679   0.330   1.477  0.5385 -0.3965 -0.8958
 8035SOL    HW225557   4.570   0.339   1.373 -1.3165 -0.3239  0.9754
 8036SOL     OW25558   7.058   2.454   6.784  0.6224  0.1698  0.0761
 8036SOL    HW125559   7.055   2.437   6.878  0.4997 -1.7876 -0.2301
 8036SOL    HW225560   7.144   2.493   6.769  1.2700 -0.9098  0.8175
 8037SOL     OW25561   8.610   3.719   1.365  0.6742  0.0582 -0.1292
 8037SOL    HW125562   8.521   3.687   1.380  0.1675  1.0364 -0.9072
 8037SOL    HW225563   8.598   3.798   1.311  1.7948  1.7852  1.9835
 8038SOL     OW25564   5.571   0.339   5.666 -0.0960  0.1636  0.1330
 8038SOL    HW125565   5.615   0.421   5.686  2.7169 -1.3143  0.4362
 8038SOL    HW225566   5.568   0.337   5.570  1.1295  0.0134  0.0831
 8039SOL     OW25567   1.691   0.623   4.594 -0.6217  0.2345 -0.6342
 8039SOL    HW125568   1.754   0.675   4.545 -0.1917 -0.6657 -1.0725
 8039SOL    HW225569   1.609   0.634   4.546 -0.4176  0.1168 -1.0215
 8040SOL     OW25570   8.653   7.213   4.835  0.1197  0.1406 -0.2315
 8040SOL    HW125571   8.639   7.265   4.756  0.1259  3.0650  1.5676
 8040SOL    HW225572   8.747   7.213   4.848  0.0561  0.3774  0.2357
 8041SOL     OW25573   2.658   1.257   8.075  0.2317 -0.2752  0.4165
 8041SOL    HW125574   2.663   1.298   7.989 -1.1665 -0.6193  0.1483
 8041SOL    HW225575   2.685   1.166   8.061 -0.0721 -0.3517  0.3182
 8042SOL     OW25576   2.662   6.630   0.564  0.2904  0.2177 -0.0075
 8042SOL    HW125577   2.686   6.673   0.482 -0.0009  0.3590 -0.0220
 8042SOL    HW225578   2.697   6.687   0.632 -0.3517  0.6446 -0.0221
 8043SOL     OW25579   1.082   6.891   0.587  0.4618  0.0207 -0.4219
 8043SOL    HW125580   1.076   6.914   0.494  0.1876 -1.4654 -0.7943
 8043SOL    HW225581   1.016   6.823   0.599 -0.2015  0.8894  1.1088
 8044SOL     OW25582   2.008   0.382   0.539 -0.6655  0.7313 -0.4897
 8044SOL    HW125583   2.098   0.395   0.511 -0.0437 -2.8020 -0.6443
 8044SOL    HW225584   2.015   0.342   0.626 -1.6721 -3.4362 -2.0751
 8045SOL     OW25585   3.217   5.404   0.077 -0.1160  0.1836 -0.5413
 8045SOL    HW125586   3.197   5.428  -0.013 -1.6117 -1.6662 -0.7584
 8045SOL    HW225587   3.137   5.363   0.110  0.6958 -0.0149  1.3259
 8046SOL     OW25588   1.316   7.357   6.089 -0.4569  0.2323  0.3424
 8046SOL    HW125589   1.393   7.386   6.039 -0.1330  0.5310  0.9892
 8046SOL    HW225590   1.245   7.412   6.058 -0.1544  0.7465  0.5448
 8047SOL     OW25591   8.161   3.588   3.735 -0.2376 -0.2707  0.2883
 8047SOL    HW125592   8.135   3.535   3.810 -2.5654  0.6853  0.2278
 8047SOL    HW225593   8.122   3.544   3.659 -3.1012  1.9134  0.3361
 8048SOL     OW25594   7.233   9.143   5.981 -0.4282 -0.4169  0.0242
 8048SOL    HW125595   7.298   9.206   6.012  0.4797 -2.0399  1.5937
 8048SOL    HW225596   7.278   9.094   5.913 -0.9749  0.2471 -0.8480
 8049SOL     OW25597   4.371   7.119   1.606  0.3696 -0.6285  0.6385
 8049SOL    HW125598   4.336   7.063   1.676  0.5797 -2.4267 -0.6230
 8049SOL    HW225599   4.464   7.129   1.626  0.0271  0.6894  1.7440
 8050SOL     OW25600   8.193   1.427   8.908  0.7827  0.1195 -0.2721
 8050SOL    HW125601   8.205   1.474   8.826  0.3194 -0.7935 -0.8868
 8050SOL    HW225602   8.199   1.494   8.976 -0.9507  1.2495 -1.1668
 8051SOL     OW25603   3.790   1.618   2.026  0.6443 -0.2237 -0.0772
 8051SOL    HW125604   3.750   1.552   1.970 -0.3737 -0.5348  0.9797
 8051SOL    HW225605   3.857   1.659   1.971  0.2798 -1.1133 -1.2191
 8052SOL     OW25606   1.171   6.920   1.515  0.3750 -0.7444 -0.6635
 8052SOL    HW125607   1.080   6.914   1.486 -0.8554  0.5159  2.5112
 8052SOL    HW225608   1.201   7.004   1.481 -0.5723  0.0804  0.4677
 8053SOL     OW25609   4.498   2.886   5.428 -0.2971 -0.4791 -0.0729
 8053SOL    HW125610   4.565   2.888   5.496 -0.1358  2.1893 -0.1972
 8053SOL    HW225611   4.421   2.924   5.469 -0.6625 -0.2700 -0.9303
 8054SOL     OW25612   5.862   0.830   6.764  0.0679  0.0919  0.0237
 8054SOL    HW125613   5.887   0.855   6.852 -0.7656  2.6276 -0.3706
 8054SOL    HW225614   5.912   0.889   6.707 -0.1657 -0.8067 -1.1598
 8055SOL     OW25615   7.188   7.766   1.574  0.3618 -0.1098  0.2602
 8055SOL    HW125616   7.098   7.794   1.591 -0.3832 -2.2540  0.2017
 8055SOL    HW225617   7.229   7.762   1.661 -0.4457 -1.6633  0.6016
 8056SOL     OW25618   6.308   4.925   7.033  0.4736 -0.9277  0.3526
 8056SOL    HW125619   6.322   4.834   7.060 -0.2519 -1.2775 -0.3950
 8056SOL    HW225620   6.345   4.930   6.945  0.2911 -0.5680  0.2935
 8057SOL     OW25621   6.548   4.239   9.085 -0.0346 -0.5251  0.5270
 8057SOL    HW125622   6.595   4.297   9.145 -0.7221 -0.6509  1.2115
 8057SOL    HW225623   6.506   4.298   9.023 -0.4531 -0.3014  1.0145
 8058SOL     OW25624   0.625   2.026   0.173  0.3613  0.0575 -0.4270
 8058SOL    HW125625   0.610   1.976   0.092 -1.2847 -0.6262  0.2533
 8058SOL    HW225626   0.553   2.088   0.177 -0.7572 -1.2419  1.4526
 8059SOL     OW25627   4.886   6.770   4.676  0.7676 -0.1724  0.8469
 8059SOL    HW125628   4.902   6.683   4.641 -1.6183 -0.6514  0.7506
 8059SOL    HW225629   4.849   6.755   4.763 -1.0078  0.6161  0.2756
 8060SOL     OW25630   8.763   4.038   0.668 -0.2154 -0.0222 -0.2134
 8060SOL    HW125631   8.668   4.027   0.674 -0.4245  1.8082  0.3577
 8060SOL    HW225632   8.798   3.981   0.736 -0.7786 -1.6970 -1.2543
 8061SOL     OW25633   6.993   8.000   3.949  0.8197 -0.4124 -0.7743
 8061SOL    HW125634   6.945   7.974   4.028  1.0752  0.4488 -0.3312
 8061SOL    HW225635   7.080   7.961   3.960  1.9866  2.3953  0.9975
 8062SOL     OW25636   5.007   1.662   0.579  0.3112  0.2096  0.0362
 8062SOL    HW125637   5.026   1.720   0.653  0.4559  2.0027 -1.3332
 8062SOL    HW225638   4.921   1.625   0.599  1.1010 -0.7610  1.9111
 8063SOL     OW25639   0.451   3.315   9.096  0.3474 -0.0898  0.1209
 8063SOL    HW125640   0.418   3.341   9.182  0.4414  2.1316 -0.4433
 8063SOL    HW225641   0.381   3.339   9.035  0.3158 -1.5635 -0.4544
 8064SOL     OW25642   5.776   7.783   5.894 -0.1526  0.5423 -0.2450
 8064SOL    HW125643   5.693   7.739   5.912  0.1270 -0.9794 -2.3450
 8064SOL    HW225644   5.837   7.746   5.957  0.1987 -2.6852 -2.2222
 8065SOL     OW25645   3.912   5.217   5.055  0.1645  0.0145  0.4431
 8065SOL    HW125646   3.998   5.215   5.096  0.4236  0.0018 -0.1016
 8065SOL    HW225647   3.872   5.133   5.080 -0.4418  0.7872  2.2764
 8066SOL     OW25648   6.429   4.453   8.037  0.5565 -0.3361 -0.7327
 8066SOL    HW125649   6.382   4.537   8.047 -2.4594 -1.9376 -0.1709
 8066SOL    HW225650   6.488   4.450   8.112 -0.1073  0.8142 -0.1175
 8067SOL     OW25651   0.915   3.478   8.879  0.5032 -0.2512 -0.6946
 8067SOL    HW125652   0.869   3.464   8.962 -1.6549  1.2397 -1.5541
 8067SOL    HW225653   0.999   3.516   8.906 -0.4901  1.0262  0.8339
 8068SOL     OW25654   7.671   3.659   0.097  0.4447  0.2353  0.2409
 8068SOL    HW125655   7.647   3.671   0.005  0.9201  0.1445  0.1012
 8068SOL    HW225656   7.742   3.596   0.095  1.8555  1.7482  0.4855
 8069SOL     OW25657   6.536   6.297   0.686 -0.2412  0.5466 -0.3017
 8069SOL    HW125658   6.591   6.363   0.729 -0.6051  0.1854  0.7166
 8069SOL    HW225659   6.531   6.225   0.747 -1.8686  0.5705 -0.3609
 8070SOL     OW25660   5.337   2.584   7.873  0.0053  0.1516  0.4551
 8070SOL    HW125661   5.421   2.563   7.914  0.6551  0.5292 -0.6323
 8070SOL    HW225662   5.327   2.518   7.805 -0.3624  0.3835  0.2840
 8071SOL     OW25663   5.090   7.942   6.637 -0.3145 -0.3822 -0.2401
 8071SOL    HW125664   5.178   7.903   6.630 -0.8917 -2.1354  1.2875
 8071SOL    HW225665   5.104   8.021   6.689  0.1598 -1.7600  1.8829
 8072SOL     OW25666   1.842   1.999   8.298  0.1279 -0.5466  0.0189
 8072SOL    HW125667   1.836   1.947   8.218  2.6347  0.9214 -1.2558
 8072SOL    HW225668   1.833   1.935   8.369  0.7953 -2.3800 -1.4684
 8073SOL     OW25669   4.303   8.412   9.239  0.4911 -0.2295 -0.6306
 8073SOL    HW125670   4.283   8.489   9.292 -1.4981 -0.5679 -0.8110
 8073SOL    HW225671   4.271   8.435   9.151  0.6424 -0.9409 -0.8739
 8074SOL     OW25672   7.732   1.782   1.559 -0.0918  0.0110  0.4454
 8074SOL    HW125673   7.654   1.836   1.544 -0.4149 -0.7949 -0.9212
 8074SOL    HW225674   7.700   1.708   1.611 -0.1269 -0.0612  0.3201
 8075SOL     OW25675   6.566   6.491   4.161 -0.4853 -0.1155  0.2672
 8075SOL    HW125676   6.490   6.443   4.130 -0.1515  0.0358 -0.8394
 8075SOL    HW225677   6.638   6.428   4.155 -0.0202  0.5226 -1.3182
 8076SOL     OW25678   8.379   3.460   4.165 -0.0508 -0.0696 -0.5823
 8076SOL    HW125679   8.369   3.554   4.150  0.6812  0.1493  0.2154
 8076SOL    HW225680   8.430   3.429   4.090  1.4199  0.5501  0.1262
 8077SOL     OW25681   4.819   3.791   1.040 -0.4652  0.4017 -0.0051
 8077SOL    HW125682   4.857   3.874   1.068 -0.0739 -0.1201  1.0577
 8077SOL    HW225683   4.766   3.814   0.963 -1.9921  1.9936  1.4291
 8078SOL     OW25684   5.764   7.226   0.591 -0.8395  0.2199 -0.3165
 8078SOL    HW125685   5.776   7.206   0.683  0.1173  0.2391 -0.4283
 8078SOL    HW225686   5.689   7.172   0.564 -1.0701  0.1595  0.4445
 8079SOL     OW25687   4.672   6.794   4.956 -0.3230  0.0453  0.5420
 8079SOL    HW125688   4.591   6.766   4.998  0.3304 -2.5395  0.2979
 8079SOL    HW225689   4.689   6.726   4.891  1.8987  0.6232  0.4494
 8080SOL     OW25690   2.462   3.887   2.190  0.2011 -0.6937 -0.2381
 8080SOL    HW125691   2.538   3.885   2.247  0.3782 -4.3644 -0.4050
 8080SOL    HW225692   2.484   3.953   2.124  1.7527  0.6581  1.5149
 8081SOL     OW25693   4.502   1.459   4.420  0.8038  0.5662  0.3002
 8081SOL    HW125694   4.570   1.516   4.458  0.1739  1.0356  0.7409
 8081SOL    HW225695   4.524   1.371   4.451  0.1209  0.9769  2.0686
 8082SOL     OW25696   6.963   8.069   1.325 -0.5514 -0.5180 -0.4709
 8082SOL    HW125697   6.947   8.019   1.405  0.4419  1.1115  0.7944
 8082SOL    HW225698   6.904   8.143   1.331  1.4941  1.1513  0.2245
 8083SOL     OW25699   8.187   3.077   0.321  0.0628  0.0098  0.8638
 8083SOL    HW125700   8.096   3.052   0.309 -0.0999  0.0691  1.8968
 8083SOL    HW225701   8.214   3.111   0.236 -1.0097  0.4337  0.6831
 8084SOL     OW25702   0.105   2.124   7.252  0.2952  0.3572  0.0153
 8084SOL    HW125703   0.108   2.132   7.157 -0.0376  1.6016  0.0909
 8084SOL    HW225704   0.191   2.154   7.282  0.2454  0.3834  0.1353
 8085SOL     OW25705   4.589   8.972   1.091  0.2486  0.0234 -0.3275
 8085SOL    HW125706   4.586   8.965   0.995 -1.3982  0.4551 -0.3460
 8085SOL    HW225707   4.654   9.039   1.108  0.9841 -0.4727 -1.1114
 8086SOL     OW25708   4.801   5.356   6.845 -0.1898 -0.4856  0.8695
 8086SOL    HW125709   4.843   5.437   6.873  1.4635 -0.9758 -0.0451
 8086SOL    HW225710   4.760   5.322   6.924 -1.5646  1.5683  1.1267
 8087SOL     OW25711   1.324   4.352   7.405  0.5689 -0.5130  0.4073
 8087SOL    HW125712   1.296   4.437   7.370  0.8941  0.2028  1.8060
 8087SOL    HW225713   1.243   4.313   7.441  0.3058 -1.0860 -0.7503
 8088SOL     OW25714   2.338   0.288   8.638  0.1312 -0.3186  0.1944
 8088SOL    HW125715   2.342   0.374   8.681 -2.3206 -0.5344  0.9994
 8088SOL    HW225716   2.413   0.287   8.579  0.5640  2.1353  0.6021
 8089SOL     OW25717   6.208   5.097   6.440  0.4366 -0.1462  0.0449
 8089SOL    HW125718   6.241   5.122   6.527 -0.9656 -0.8221  0.8093
 8089SOL    HW225719   6.271   5.032   6.409  0.8979  0.0190  0.6049
 8090SOL     OW25720   7.381   5.727   3.552  0.5513  0.1784  0.8422
 8090SOL    HW125721   7.444   5.661   3.523  0.0932 -0.0784  0.4130
 8090SOL    HW225722   7.423   5.769   3.626  0.6217 -0.9701  1.4759
 8091SOL     OW25723   8.772   4.157   7.205  0.3427  0.3048  0.0566
 8091SOL    HW125724   8.740   4.186   7.290 -2.5741  0.6841 -1.0877
 8091SOL    HW225725   8.783   4.237   7.154 -1.3518 -0.0994 -1.0089
 8092SOL     OW25726   0.674   3.908   8.893  0.4954 -0.2704  0.3178
 8092SOL    HW125727   0.600   3.966   8.908 -0.6042 -1.6557  0.4073
 8092SOL    HW225728   0.723   3.908   8.975  0.4764  0.4781  0.3309
 8093SOL     OW25729   2.729   3.556   7.512 -0.0094 -0.2776  0.3420
 8093SOL    HW125730   2.735   3.523   7.422 -0.2933 -0.1923  0.2921
 8093SOL    HW225731   2.660   3.504   7.552  1.0828 -1.3242  0.9529
 8094SOL     OW25732   1.674   1.651   6.218 -0.3052  0.2783 -0.0143
 8094SOL    HW125733   1.658   1.627   6.309 -0.4926 -0.0385 -0.1314
 8094SOL    HW225734   1.766   1.679   6.217 -0.5455  1.1127  0.4438
 8095SOL     OW25735   4.764   0.131   5.270 -0.2510  0.4499  0.2130
 8095SOL    HW125736   4.840   0.188   5.282 -0.3329  1.2510 -2.3459
 8095SOL    HW225737   4.798   0.043   5.283  0.9701  0.8323 -0.2307
 8096SOL     OW25738   8.120   4.240   0.736 -0.8160 -0.1358 -0.2337
 8096SOL    HW125739   8.167   4.189   0.670  0.6585  0.9409 -0.0821
 8096SOL    HW225740   8.086   4.175   0.798  0.6091 -0.9772 -0.2895
 8097SOL     OW25741   7.287   2.249   2.922  0.0140 -0.2192  0.0819
 8097SOL    HW125742   7.274   2.310   2.994  1.1238  0.3397 -0.1789
 8097SOL    HW225743   7.364   2.282   2.875  0.4735 -1.6480 -0.2237
 8098SOL     OW25744   4.673   2.367   1.100  0.1060 -0.0388 -0.1261
 8098SOL    HW125745   4.579   2.384   1.098  0.2768  0.9724 -0.3184
 8098SOL    HW225746   4.687   2.320   1.182 -0.5729 -0.2907 -0.1431
 8099SOL     OW25747   4.633   2.685   2.819  0.2665 -0.0011  0.0790
 8099SOL    HW125748   4.571   2.634   2.872 -0.1279  1.2837  0.8995
 8099SOL    HW225749   4.715   2.681   2.867  0.6187 -0.9806 -0.5674
 8100SOL     OW25750   4.242   7.801   5.985 -0.4010  0.2178 -0.5420
 8100SOL    HW125751   4.172   7.863   6.005  0.7173  1.4307 -0.2154
 8100SOL    HW225752   4.208   7.750   5.911 -0.7459  2.3711 -1.9797
 8101SOL     OW25753   5.575   3.167   0.325  0.5279 -0.0482 -0.4439
 8101SOL    HW125754   5.549   3.225   0.253  3.3235 -0.4840 -1.9619
 8101SOL    HW225755   5.636   3.105   0.285  1.6160 -0.7930  2.1478
 8102SOL     OW25756   1.522   1.035   2.763  0.0992 -0.5113  0.1079
 8102SOL    HW125757   1.532   1.004   2.673  0.2012 -0.6124  0.1523
 8102SOL    HW225758   1.600   1.001   2.808  0.8018  0.7553 -0.0979
 8103SOL     OW25759   8.450   5.517   2.556  0.0665  0.3934  0.4993
 8103SOL    HW125760   8.448   5.507   2.461 -0.3656  0.3582  0.5107
 8103SOL    HW225761   8.474   5.430   2.588  0.9631  0.5939  0.3928
 8104SOL     OW25762   8.099   1.345   2.802  1.0479  0.4202 -0.1430
 8104SOL    HW125763   8.051   1.266   2.777  0.7072 -0.0686  1.8768
 8104SOL    HW225764   8.175   1.345   2.745 -0.4299  0.2709 -2.2293
 8105SOL     OW25765   0.520   3.107   7.417  0.5818  0.2247 -0.0018
 8105SOL    HW125766   0.595   3.069   7.463  0.4623 -0.1572 -0.1230
 8105SOL    HW225767   0.505   3.049   7.343 -2.4970 -2.2201  2.3183
 8106SOL     OW25768   3.860   3.388   0.708  0.7931 -0.3351  0.0287
 8106SOL    HW125769   3.868   3.484   0.706 -1.0063 -0.1339 -1.6977
 8106SOL    HW225770   3.943   3.356   0.673  0.8590  0.6869 -0.8031
 8107SOL     OW25771   5.197   7.060   5.727 -0.0945 -0.3754  0.0989
 8107SOL    HW125772   5.241   7.120   5.786 -0.5561 -0.5778  0.6555
 8107SOL    HW225773   5.107   7.093   5.722  0.0029 -0.2029 -0.7027
 8108SOL     OW25774   0.859   2.156   2.229  0.1722 -0.3085 -0.1076
 8108SOL    HW125775   0.815   2.217   2.289  0.8767 -0.3549  0.4652
 8108SOL    HW225776   0.832   2.186   2.142 -0.4006  0.1176  0.2027
 8109SOL     OW25777   8.800   1.935   0.269  0.1947  0.0451  0.7700
 8109SOL    HW125778   8.759   1.984   0.198  0.9879  1.1744  1.0768
 8109SOL    HW225779   8.727   1.909   0.326 -0.4145 -0.6276 -0.2829
 8110SOL     OW25780   7.323   7.283   7.117 -0.1324  0.5048  0.2287
 8110SOL    HW125781   7.361   7.299   7.203 -0.1630 -0.2876  0.3914
 8110SOL    HW225782   7.352   7.195   7.092 -0.8739  0.3560 -0.1628
 8111SOL     OW25783   4.998   2.010   1.439  0.4866  0.2975 -0.0321
 8111SOL    HW125784   5.060   2.066   1.485  1.0344 -1.3414  1.3396
 8111SOL    HW225785   4.923   2.004   1.498 -0.3345  1.0255 -0.9853
 8112SOL     OW25786   8.218   1.475   0.323  0.3487  0.6370 -0.1047
 8112SOL    HW125787   8.190   1.560   0.288 -2.8796 -0.2345  0.0860
 8112SOL    HW225788   8.272   1.437   0.254  0.4121  2.1153 -0.9010
 8113SOL     OW25789   2.292   4.330   2.596 -0.4124  0.5015 -0.2484
 8113SOL    HW125790   2.209   4.363   2.562 -0.1381  1.7949  0.2790
 8113SOL    HW225791   2.276   4.318   2.690 -1.2706 -3.3576 -0.7383
 8114SOL     OW25792   1.175   1.862   7.040  0.1472 -0.5112 -0.2756
 8114SOL    HW125793   1.182   1.784   7.095 -0.8121  0.7876  1.8551
 8114SOL    HW225794   1.089   1.855   6.999 -0.4827 -0.0412  0.8988
 8115SOL     OW25795   4.695   0.058   0.886 -0.6560  0.4276  0.1797
 8115SOL    HW125796   4.718   0.005   0.962  0.3067 -0.2668 -0.5674
 8115SOL    HW225797   4.755   0.133   0.889  0.4820 -0.4109 -0.7312
 8116SOL     OW25798   6.137   0.422   2.276  0.0891 -0.1027  0.0792
 8116SOL    HW125799   6.070   0.487   2.299 -1.1869 -1.3199 -0.0683
 8116SOL    HW225800   6.122   0.403   2.183  0.4978 -0.5462  0.0982
 8117SOL     OW25801   5.745   3.865   5.207  0.5815 -0.2599 -0.1275
 8117SOL    HW125802   5.705   3.848   5.293 -0.8222 -0.1460 -0.7366
 8117SOL    HW225803   5.708   3.799   5.149  1.0239  0.0636 -0.7909
 8118SOL     OW25804   0.980   6.651   1.222 -0.2685  0.1257 -0.2636
 8118SOL    HW125805   0.958   6.564   1.253  0.0517  0.1145 -0.0630
 8118SOL    HW225806   0.944   6.711   1.288  2.7215  0.0323  1.6583
 8119SOL     OW25807   8.821   0.491   8.760 -0.1602  0.0629  0.4005
 8119SOL    HW125808   8.843   0.420   8.699  2.1923  1.1304 -0.0922
 8119SOL    HW225809   8.847   0.457   8.846 -1.7963 -0.7437  0.6217
 8120SOL     OW25810   3.101   1.374   1.741 -0.2873  0.7348  0.0608
 8120SOL    HW125811   3.053   1.293   1.728  0.6505  0.2723 -0.7224
 8120SOL    HW225812   3.126   1.373   1.833  0.7026 -0.4691 -0.1825
 8121SOL     OW25813   9.228   5.268   0.491  0.2370  0.6166  0.4457
 8121SOL    HW125814   9.136   5.288   0.476  0.4300  1.1551 -0.0832
 8121SOL    HW225815   9.227   5.187   0.540 -0.5196  0.5072  0.2680
 8122SOL     OW25816   3.908   3.554   8.195  0.1786 -0.1608 -0.2334
 8122SOL    HW125817   3.984   3.495   8.195  1.2817  1.1953 -1.3122
 8122SOL    HW225818   3.872   3.546   8.107 -1.2035 -1.0667  0.3795
 8123SOL     OW25819   1.751   7.507   2.789  0.2175  0.1783  0.2023
 8123SOL    HW125820   1.671   7.480   2.835 -0.3130  1.0127 -0.2025
 8123SOL    HW225821   1.822   7.472   2.842 -0.2916  2.5518  2.6360
 8124SOL     OW25822   3.437   3.218   6.386  0.1968  0.4026 -0.3754
 8124SOL    HW125823   3.437   3.279   6.459  0.3532  0.4921 -0.4492
 8124SOL    HW225824   3.497   3.257   6.322  0.7165 -0.0923 -0.1981
 8125SOL     OW25825   7.764   5.196   0.300  0.1956 -0.0592  0.1271
 8125SOL    HW125826   7.834   5.262   0.304  1.7108 -1.5736 -0.2774
 8125SOL    HW225827   7.688   5.241   0.336  0.6798  2.4924 -1.7324
 8126SOL     OW25828   2.039   5.035   2.628 -0.0811  0.2769 -0.0131
 8126SOL    HW125829   2.030   5.074   2.715 -3.6666 -1.8338  0.7698
 8126SOL    HW225830   2.056   4.942   2.645  0.7416  0.0858 -1.6552
 8127SOL     OW25831   3.255   2.759   2.625  0.3514  0.6015  0.4591
 8127SOL    HW125832   3.261   2.758   2.530  1.6603 -1.3803  0.4990
 8127SOL    HW225833   3.167   2.793   2.643 -0.9066 -1.2646 -1.5549
 8128SOL     OW25834   1.606   4.902   0.100 -0.8543  0.2563  0.0808
 8128SOL    HW125835   1.528   4.949   0.073  0.0075  1.8719  0.3020
 8128SOL    HW225836   1.679   4.953   0.065  0.1454 -2.3624 -2.0354
 8129SOL     OW25837   5.765   2.996   7.324 -0.6117  0.0569 -0.5691
 8129SOL    HW125838   5.791   3.005   7.416  3.4857  1.2698 -1.5948
 8129SOL    HW225839   5.744   3.085   7.296 -1.0456 -0.1696 -0.9701
 8130SOL     OW25840   7.784   7.197   5.747  0.2566 -0.1517  0.5270
 8130SOL    HW125841   7.705   7.227   5.791 -0.8622 -1.4865 -0.4540
 8130SOL    HW225842   7.837   7.158   5.816  0.2375  1.0385  1.2500
 8131SOL     OW25843   8.027   6.654   3.093 -0.2909  0.3079  0.0993
 8131SOL    HW125844   8.120   6.664   3.113 -0.5856  0.5843  1.4480
 8131SOL    HW225845   7.993   6.743   3.088 -0.4179  0.2186 -0.7864
 8132SOL     OW25846   1.172   6.284   8.144  0.2193  0.8177  0.5964
 8132SOL    HW125847   1.226   6.205   8.152 -4.0784 -2.5210  0.2432
 8132SOL    HW225848   1.179   6.326   8.230  2.5820  0.1483  0.8215
 8133SOL     OW25849   8.621   1.602   7.544  0.3286 -0.1233  0.7205
 8133SOL    HW125850   8.567   1.668   7.588 -0.7707 -0.4126 -0.1818
 8133SOL    HW225851   8.624   1.529   7.605  0.0924  0.0662  0.9622
 8134SOL     OW25852   1.404   5.531   7.856  0.8323  0.1990  0.1926
 8134SOL    HW125853   1.442   5.556   7.771 -0.0286  0.7168 -0.0490
 8134SOL    HW225854   1.348   5.604   7.879  2.8757  1.2010  2.4185
 8135SOL     OW25855   2.571   8.762   7.975  0.1750  0.1511 -0.6623
 8135SOL    HW125856   2.579   8.683   8.028 -0.3398 -0.4446 -1.4586
 8135SOL    HW225857   2.655   8.770   7.930 -0.0582 -0.3931 -1.1961
 8136SOL     OW25858   3.901   4.305   4.976  0.1070  0.5106 -0.3437
 8136SOL    HW125859   3.884   4.273   5.064  0.1472  0.4206 -0.3689
 8136SOL    HW225860   3.940   4.391   4.989 -0.0980  0.5945 -0.2801
 8137SOL     OW25861   1.521   6.214   4.367 -0.5429 -0.6292  0.0460
 8137SOL    HW125862   1.568   6.176   4.442  1.0917 -0.1901 -0.6975
 8137SOL    HW225863   1.548   6.306   4.366 -0.0791 -0.7554 -1.3834
 8138SOL     OW25864   3.537   5.833   5.195  0.6338  0.2893 -0.0675
 8138SOL    HW125865   3.567   5.795   5.113  0.6338 -0.5208  0.2988
 8138SOL    HW225866   3.539   5.928   5.180 -0.2244  0.1301 -1.2926
 8139SOL     OW25867   8.749   7.254   6.490 -0.2748 -0.0818 -0.6147
 8139SOL    HW125868   8.756   7.268   6.395  0.3600  0.3770 -0.4999
 8139SOL    HW225869   8.690   7.178   6.498  0.2246 -0.5661 -1.4013
 8140SOL     OW25870   7.728   8.762   0.527 -0.0115 -0.4178 -0.8782
 8140SOL    HW125871   7.645   8.806   0.545 -0.5795 -1.3980 -1.0285
 8140SOL    HW225872   7.715   8.720   0.442  1.0470  0.3601 -1.4479
 8141SOL     OW25873   6.643   5.498   5.935 -0.1334  0.5273 -0.5355
 8141SOL    HW125874   6.656   5.477   6.027 -0.0901  0.9271 -0.4485
 8141SOL    HW225875   6.555   5.466   5.915  0.9582 -2.3647 -1.1739
 8142SOL     OW25876   7.199   3.746   3.027 -0.4622  0.1080  0.1409
 8142SOL    HW125877   7.168   3.833   3.005 -1.7312 -0.5591 -0.8208
 8142SOL    HW225878   7.224   3.752   3.120  0.1340  1.6472 -0.1017
 8143SOL     OW25879   2.471   2.686   5.685 -0.7491  0.4768 -0.0143
 8143SOL    HW125880   2.527   2.743   5.736 -0.7889  1.4575 -1.0218
 8143SOL    HW225881   2.386   2.688   5.730 -0.3501  0.0282  0.7750
 8144SOL     OW25882   8.152   0.173   3.997 -0.1758 -0.3377  0.6833
 8144SOL    HW125883   8.110   0.174   3.911  0.5867  1.1149  0.2888
 8144SOL    HW225884   8.242   0.199   3.980  0.1152 -0.5058  1.8760
 8145SOL     OW25885   8.165   3.688   7.523  0.2472 -0.7533  0.7445
 8145SOL    HW125886   8.248   3.686   7.474  0.7486  0.2274  1.5207
 8145SOL    HW225887   8.126   3.772   7.501 -1.1217 -1.6345 -0.4709
 8146SOL     OW25888   4.449   6.387   5.951 -0.0656 -0.1950 -0.3553
 8146SOL    HW125889   4.366   6.434   5.940 -0.3468 -0.3330  1.0362
 8146SOL    HW225890   4.498   6.406   5.871 -2.2525 -1.8339 -2.2078
 8147SOL     OW25891   2.444   3.824   4.932 -0.6324  0.3920 -0.4226
 8147SOL    HW125892   2.415   3.877   4.857  0.9715 -0.9566 -2.1031
 8147SOL    HW225893   2.523   3.868   4.962  0.3645 -0.6249 -1.4412
 8148SOL     OW25894   6.611   4.386   1.999 -0.1637  0.0385  0.0345
 8148SOL    HW125895   6.534   4.438   2.021 -0.8420 -0.4513 -1.0811
 8148SOL    HW225896   6.613   4.385   1.903  0.8642 -0.4881  0.0445
 8149SOL     OW25897   7.632   6.899   4.528  0.0955 -0.1038  0.2751
 8149SOL    HW125898   7.631   6.804   4.527  1.5190 -0.1367 -0.4203
 8149SOL    HW225899   7.639   6.922   4.621 -1.9772 -0.5848  0.6099
 8150SOL     OW25900   3.694   2.458   2.845  0.9878 -0.2194  0.4461
 8150SOL    HW125901   3.626   2.458   2.777  1.5883  0.6743 -0.1793
 8150SOL    HW225902   3.647   2.437   2.926  0.3047 -1.6218 -0.2776
 8151SOL     OW25903   5.541   5.335   8.426 -0.0159 -0.5841 -0.3469
 8151SOL    HW125904   5.636   5.342   8.431 -0.0259 -0.3494 -0.5055
 8151SOL    HW225905   5.524   5.241   8.433  0.2947 -0.7261 -1.4041
 8152SOL     OW25906   3.366   4.757   2.645 -1.1145  0.2504  0.4826
 8152SOL    HW125907   3.317   4.734   2.566  0.3694 -1.2671 -0.0413
 8152SOL    HW225908   3.409   4.840   2.624 -0.0644 -0.5559 -0.6262
 8153SOL     OW25909   1.229   0.181   5.586 -0.0646  0.0561  0.0634
 8153SOL    HW125910   1.255   0.243   5.518 -0.2410 -1.1332 -1.1317
 8153SOL    HW225911   1.218   0.235   5.664  1.3272  1.2941 -0.5319
 8154SOL     OW25912   8.857   1.633   2.100 -1.0366  0.2441  0.3361
 8154SOL    HW125913   8.823   1.543   2.105  0.4122 -0.3461 -0.1642
 8154SOL    HW225914   8.916   1.640   2.175  0.8331 -0.0911 -1.0609
 8155SOL     OW25915   8.503   5.164   0.433 -0.8122 -0.3485 -0.3922
 8155SOL    HW125916   8.582   5.199   0.474 -0.8198 -0.1380 -0.5547
 8155SOL    HW225917   8.524   5.073   0.413 -1.4840 -1.0684  1.8875
 8156SOL     OW25918   3.792   7.395   1.567  0.0241  0.5112  0.3897
 8156SOL    HW125919   3.759   7.359   1.485  0.3774 -1.7501  1.1816
 8156SOL    HW225920   3.843   7.472   1.540 -1.7563  1.2073 -1.2570
 8157SOL     OW25921   2.579   3.274   5.155  0.0183  0.1654  0.1625
 8157SOL    HW125922   2.601   3.338   5.223  0.2320 -0.2799  0.5150
 8157SOL    HW225923   2.489   3.249   5.174 -1.1984  2.6720 -1.8214
 8158SOL     OW25924   2.986   8.626   7.162  1.0092  0.0487 -0.4255
 8158SOL    HW125925   2.951   8.544   7.128  0.1611 -0.7751  2.2268
 8158SOL    HW225926   2.909   8.675   7.191  1.4542  2.0739 -2.3792
 8159SOL     OW25927   7.234   9.086   0.294  0.3857 -0.2161 -0.4582
 8159SOL    HW125928   7.327   9.096   0.276  0.2699  0.9363 -0.5008
 8159SOL    HW225929   7.224   9.114   0.385  0.2963 -1.7939  0.0384
 8160SOL     OW25930   4.719   8.364   6.250 -0.1970 -0.0359  0.1865
 8160SOL    HW125931   4.697   8.313   6.172 -1.4137 -0.1262  0.5719
 8160SOL    HW225932   4.725   8.299   6.320  1.1677  0.0067  0.1478
 8161SOL     OW25933   7.293   5.860   5.658 -0.0752 -0.5414 -0.0980
 8161SOL    HW125934   7.201   5.878   5.673 -0.5454 -1.6667 -1.4410
 8161SOL    HW225935   7.306   5.771   5.691  0.7495 -0.0833  0.8692
 8162SOL     OW25936   2.923   7.815   1.701  0.6873  0.2279 -0.4190
 8162SOL    HW125937   2.943   7.891   1.756 -0.0736 -1.6988  2.7805
 8162SOL    HW225938   2.986   7.821   1.628  1.3700  3.2604  0.2787
 8163SOL     OW25939   2.371   5.117   1.955 -0.3492  0.7863 -0.2616
 8163SOL    HW125940   2.310   5.085   2.021  0.1855  0.7338  0.2102
 8163SOL    HW225941   2.407   5.039   1.914  2.2563  0.6238  2.0581
 8164SOL     OW25942   4.857   4.164   8.504  0.3771  0.2674  0.0483
 8164SOL    HW125943   4.888   4.211   8.582  1.7254  0.2440 -0.4434
 8164SOL    HW225944   4.791   4.222   8.466 -0.1546  0.3738  1.0820
 8165SOL     OW25945   2.658   5.369   6.456  0.1112  0.4438 -0.4318
 8165SOL    HW125946   2.701   5.285   6.466  0.8429  1.0370  2.1754
 8165SOL    HW225947   2.565   5.347   6.444  0.4602 -0.7318 -1.1245
 8166SOL     OW25948   2.719   3.030   1.487 -0.2445  0.1588  0.4554
 8166SOL    HW125949   2.769   2.972   1.430 -0.4192  1.2591 -0.8750
 8166SOL    HW225950   2.785   3.069   1.546 -0.0157 -0.7456  0.8069
 8167SOL     OW25951   1.219   1.226   7.798 -0.1143 -0.7226  0.3835
 8167SOL    HW125952   1.278   1.160   7.835 -0.2612 -0.4640  1.0763
 8167SOL    HW225953   1.227   1.302   7.855  0.4025  0.0473 -0.6752
 8168SOL     OW25954   5.327   4.507   8.448  0.3052 -0.3903  0.6219
 8168SOL    HW125955   5.350   4.578   8.508  0.0018 -1.0600  1.5533
 8168SOL    HW225956   5.236   4.487   8.469  0.0490 -0.3360 -0.3893
 8169SOL     OW25957   1.187   4.333   7.145  0.2362  0.0758  0.5921
 8169SOL    HW125958   1.159   4.283   7.221 -1.1680 -0.1168 -0.0376
 8169SOL    HW225959   1.200   4.268   7.076 -1.1626  0.4954 -0.0996
 8170SOL     OW25960   1.192   1.124   7.389  0.1978  0.1950 -0.1725
 8170SOL    HW125961   1.182   1.218   7.371  0.3950  0.1084 -0.7360
 8170SOL    HW225962   1.267   1.119   7.448 -0.8174  0.5319  1.2087
 8171SOL     OW25963   0.468   4.236   7.970  0.5038 -0.0117 -0.0405
 8171SOL    HW125964   0.487   4.159   7.917  0.2513 -0.7168  0.8688
 8171SOL    HW225965   0.554   4.276   7.987  0.7283 -0.5993  0.2276
 8172SOL     OW25966   0.079   8.656   1.970 -0.1975  0.2649  0.0604
 8172SOL    HW125967   0.005   8.598   1.954 -1.4637  1.1600  2.2184
 8172SOL    HW225968   0.107   8.636   2.060  2.4839 -0.3007 -0.7996
 8173SOL     OW25969   0.975   0.296   1.366  0.8705  0.2499  0.4550
 8173SOL    HW125970   0.937   0.349   1.437  0.9989  2.2640 -0.8820
 8173SOL    HW225971   0.907   0.233   1.343 -0.4791  1.7354  0.2120
 8174SOL     OW25972   4.183   1.098   3.512 -0.3027 -0.8003 -0.0792
 8174SOL    HW125973   4.267   1.091   3.558  0.4957 -0.8689 -1.4770
 8174SOL    HW225974   4.123   1.044   3.563  0.8062 -1.7327  0.3015
 8175SOL     OW25975   7.292   1.932   4.749 -0.1283  0.3188 -0.1621
 8175SOL    HW125976   7.257   1.915   4.836  0.2770  1.1359  0.1759
 8175SOL    HW225977   7.217   1.958   4.696 -0.4171 -0.4484 -0.1334
 8176SOL     OW25978   5.351   3.558   2.566  0.5766  0.2653 -0.0842
 8176SOL    HW125979   5.293   3.545   2.491 -0.0829 -1.6572  0.7216
 8176SOL    HW225980   5.418   3.619   2.534 -1.9167  2.7548 -0.9897
 8177SOL     OW25981   3.842   8.660   2.626 -0.2631 -0.4438  0.0866
 8177SOL    HW125982   3.760   8.656   2.675  0.1919  0.5687  0.9806
 8177SOL    HW225983   3.864   8.753   2.622  1.2651 -0.7478  0.6168
 8178SOL     OW25984   5.052   7.123   3.193 -0.0443  0.3962 -0.2987
 8178SOL    HW125985   4.982   7.086   3.139  0.0234  0.3384 -0.3467
 8178SOL    HW225986   5.033   7.093   3.281  0.5388 -0.5482 -0.4771
 8179SOL     OW25987   8.926   8.664   8.876 -0.0002  0.4078 -0.5471
 8179SOL    HW125988   8.896   8.574   8.860 -0.5602  0.4765  0.0405
 8179SOL    HW225989   8.936   8.702   8.789  0.5246 -0.3104 -0.8080
 8180SOL     OW25990   6.946   6.342   1.501  0.4174 -0.4173 -0.1249
 8180SOL    HW125991   6.896   6.392   1.437  1.5680 -0.4274 -1.0623
 8180SOL    HW225992   7.020   6.307   1.452  1.6389  0.0373  1.3134
 8181SOL     OW25993   3.867   1.963   7.575 -0.2057 -0.0488  0.3486
 8181SOL    HW125994   3.961   1.957   7.590 -0.1411 -1.6377 -0.5411
 8181SOL    HW225995   3.830   1.892   7.627 -0.8567  0.1850  0.2131
 8182SOL     OW25996   2.185   0.472   1.831 -0.6892 -0.5501 -0.3784
 8182SOL    HW125997   2.200   0.379   1.851 -0.6040 -0.4241  0.1474
 8182SOL    HW225998   2.270   0.503   1.799 -1.0226 -0.9414 -1.7293
 8183SOL     OW25999   8.242   2.748   2.285  0.1351 -0.2599  0.1511
 8183SOL    HW126000   8.147   2.742   2.297  0.1125 -0.4652 -0.1274
 8183SOL    HW226001   8.276   2.766   2.373  0.0150 -2.1109  0.6235
 8184SOL     OW26002   1.769   8.777   1.277 -0.3220  0.2547 -0.3320
 8184SOL    HW126003   1.705   8.724   1.229  0.3765 -0.4358 -0.5116
 8184SOL    HW226004   1.839   8.716   1.299  0.1618  0.9510  0.0892
 8185SOL     OW26005   8.136   2.408   5.769  0.1305  0.1544 -0.1708
 8185SOL    HW126006   8.225   2.423   5.803 -0.1046  0.3318  0.3658
 8185SOL    HW226007   8.150   2.381   5.678  0.8043 -1.1104  0.2861
 8186SOL     OW26008   4.812   4.551   9.047 -0.5263  0.0033 -0.1170
 8186SOL    HW126009   4.801   4.645   9.029 -3.0480 -0.4242 -1.3168
 8186SOL    HW226010   4.891   4.527   8.999 -0.5094  1.3010 -0.8110
 8187SOL     OW26011   2.213   3.956   5.128 -0.0624  0.1694  0.5660
 8187SOL    HW126012   2.225   3.862   5.124  1.1112  0.2461  1.6078
 8187SOL    HW226013   2.131   3.972   5.081 -0.0594 -1.3067  0.0050
 8188SOL     OW26014   4.352   2.873   4.802 -0.5397 -0.2800  0.3511
 8188SOL    HW126015   4.446   2.868   4.789 -0.4402 -2.1321  1.4352
 8188SOL    HW226016   4.317   2.797   4.755 -1.0663 -1.7385  2.9215
 8189SOL     OW26017   5.286   5.980   1.915 -0.0120 -0.2588  0.0737
 8189SOL    HW126018   5.208   5.996   1.968  0.0840 -0.9096  0.4185
 8189SOL    HW226019   5.316   6.068   1.889 -1.0236 -0.0197 -0.3200
 8190SOL     OW26020   7.121   0.461   4.931  0.1002  0.0371  0.0478
 8190SOL    HW126021   7.171   0.532   4.971  0.5472 -1.0807  1.5637
 8190SOL    HW226022   7.162   0.381   4.965 -2.6005 -0.9543  1.2544
 8191SOL     OW26023   6.942   1.189   5.970 -0.2205  0.7278  0.4531
 8191SOL    HW126024   6.869   1.192   5.909  1.3845 -0.8171 -1.7021
 8191SOL    HW226025   7.002   1.257   5.939  0.1172  0.7013  1.0336
 8192SOL     OW26026   7.651   6.798   2.096 -0.0689  0.4197 -0.3937
 8192SOL    HW126027   7.677   6.762   2.181 -2.8584  1.2866  0.9640
 8192SOL    HW226028   7.641   6.722   2.039 -1.0840 -0.5166  0.9687
 8193SOL     OW26029   8.457   1.754   2.893  0.3080  0.0295  0.0228
 8193SOL    HW126030   8.444   1.731   2.985 -1.3779  0.0293 -0.1778
 8193SOL    HW226031   8.548   1.783   2.888  0.4366  0.0147  1.6807
 8194SOL     OW26032   0.512   6.460   4.729 -0.6655  0.2064 -0.0867
 8194SOL    HW126033   0.459   6.395   4.775 -1.0630 -0.2534 -1.1724
 8194SOL    HW226034   0.449   6.523   4.695 -0.4415  0.1332 -0.6409
 8195SOL     OW26035   8.943   2.760   3.646  1.1022  0.6877 -0.2740
 8195SOL    HW126036   8.933   2.855   3.650  0.9936  0.7158 -1.0566
 8195SOL    HW226037   8.927   2.730   3.736  0.1353  1.3175 -0.2242
 8196SOL     OW26038   5.601   4.977   4.353 -0.1873  0.5426 -0.3443
 8196SOL    HW126039   5.599   4.932   4.268 -2.6938  0.0286 -0.0789
 8196SOL    HW226040   5.667   4.929   4.404  0.0751 -0.2585 -1.3989
 8197SOL     OW26041   5.793   5.124   3.597  0.1591  0.4662 -0.1787
 8197SOL    HW126042   5.740   5.139   3.675 -0.8353 -0.4147 -0.6671
 8197SOL    HW226043   5.784   5.206   3.547 -0.3952  0.4910 -0.0519
 8198SOL     OW26044   7.778   6.298   8.630  0.1006 -0.1053  0.9560
 8198SOL    HW126045   7.790   6.229   8.695 -1.9297  0.2757  1.8027
 8198SOL    HW226046   7.712   6.356   8.668  0.5850  1.4418 -0.4341
 8199SOL     OW26047   2.905   2.076   6.481 -0.2683  0.2676 -0.3993
 8199SOL    HW126048   2.830   2.025   6.512 -0.9312 -0.2844 -2.7603
 8199SOL    HW226049   2.899   2.159   6.529 -1.0061 -0.6224  1.1399
 8200SOL     OW26050   8.407   3.799   2.257  0.2712 -0.2541 -0.4182
 8200SOL    HW126051   8.392   3.727   2.197 -1.3731  0.5488 -1.0340
 8200SOL    HW226052   8.366   3.875   2.214 -0.8158  0.3794  1.6026
 8201SOL     OW26053   5.572   0.177   3.384 -0.2833  0.5435  0.5345
 8201SOL    HW126054   5.548   0.097   3.430 -0.7700 -0.1225 -0.8147
 8201SOL    HW226055   5.663   0.194   3.410 -0.1256 -0.5270  0.7327
 8202SOL     OW26056   9.032   6.328   2.009  0.0787 -0.2691 -0.5515
 8202SOL    HW126057   9.115   6.365   2.038 -0.6182 -0.2513  1.6597
 8202SOL    HW226058   8.990   6.398   1.959 -0.0554  1.0090  1.2687
 8203SOL     OW26059   3.947   1.955   0.283  0.3917  0.1502 -0.4441
 8203SOL    HW126060   3.917   1.868   0.308  1.8991  0.1865  1.7334
 8203SOL    HW226061   4.043   1.950   0.288  0.5235  1.7999 -0.7837
 8204SOL     OW26062   8.965   1.319   8.365 -0.8278  0.6326  0.2597
 8204SOL    HW126063   8.973   1.304   8.271  1.5928  1.6099  0.2444
 8204SOL    HW226064   8.946   1.412   8.374  0.5742  0.8952  0.7480
 8205SOL     OW26065   0.096   3.967   4.560 -0.4724 -0.0148 -0.1977
 8205SOL    HW126066   0.166   4.001   4.615  1.5939 -2.4733 -1.0965
 8205SOL    HW226067   0.118   3.996   4.471 -0.7854 -0.5011 -0.4397
 8206SOL     OW26068   6.270   1.255   3.358  0.6246 -0.3239 -0.1634
 8206SOL    HW126069   6.300   1.285   3.273  1.3079 -0.2108  0.1090
 8206SOL    HW226070   6.288   1.329   3.417 -1.7465  0.4249 -0.2682
 8207SOL     OW26071   7.964   4.578   6.113  0.0797 -0.0112 -0.5106
 8207SOL    HW126072   7.946   4.666   6.147  3.0424  0.0844  1.1348
 8207SOL    HW226073   7.979   4.525   6.191 -0.8222 -1.8459 -1.5063
 8208SOL     OW26074   4.528   1.117   5.481 -0.3495 -0.2419  0.0904
 8208SOL    HW126075   4.466   1.189   5.470  0.1600  0.1013 -0.6563
 8208SOL    HW226076   4.587   1.148   5.550  0.2635  0.3605 -0.6797
 8209SOL     OW26077   3.573   6.929   8.564  0.0968  0.1975 -0.3541
 8209SOL    HW126078   3.479   6.923   8.581 -0.3719  0.1965 -2.6335
 8209SOL    HW226079   3.603   6.839   8.565 -0.2524  0.0611 -1.1250
 8210SOL     OW26080   4.760   1.633   7.503  0.2346  0.5175  0.1818
 8210SOL    HW126081   4.726   1.559   7.553 -0.1301  0.4397 -0.1712
 8210SOL    HW226082   4.710   1.708   7.536 -1.7005  0.1374 -1.6252
 8211SOL     OW26083   8.257   8.075   0.442 -0.3409 -0.4828  0.4647
 8211SOL    HW126084   8.184   8.135   0.460 -1.2997 -1.6968  0.7689
 8211SOL    HW226085   8.304   8.069   0.525  0.2220  0.4284  0.2249
 8212SOL     OW26086   3.678   8.058   0.983  0.4541 -0.1258  0.3603
 8212SOL    HW126087   3.599   8.007   0.967  0.4151 -0.7731  2.3556
 8212SOL    HW226088   3.687   8.114   0.906 -1.9507 -0.0422  0.0791
 8213SOL     OW26089   2.990   2.553   2.588 -0.1681  0.2692  0.1733
 8213SOL    HW126090   2.951   2.629   2.545 -0.9617 -0.3764 -0.2830
 8213SOL    HW226091   2.937   2.479   2.558  1.6090 -0.6960 -0.7075
 8214SOL     OW26092   8.411   1.353   0.191 -0.0895  0.6083 -0.0007
 8214SOL    HW126093   8.500   1.321   0.178  0.0670  1.1983 -0.4052
 8214SOL    HW226094   8.355   1.281   0.161  0.2636  0.8470 -1.2878
 8215SOL     OW26095   8.022   3.409   0.467 -0.0979 -0.2834  0.3890
 8215SOL    HW126096   8.107   3.394   0.427  0.4280 -1.4840  1.8375
 8215SOL    HW226097   7.964   3.345   0.425 -0.4482  0.9112 -0.9961
 8216SOL     OW26098   6.975   4.588   2.599 -0.1885 -0.2141 -0.3135
 8216SOL    HW126099   6.969   4.516   2.536 -3.1348  0.5584 -1.0752
 8216SOL    HW226100   7.039   4.648   2.562  1.1097 -1.6498 -0.4800
 8217SOL     OW26101   7.368   8.357   3.877  0.3574  0.6770  0.1474
 8217SOL    HW126102   7.303   8.353   3.947 -0.5465  2.1703 -0.5660
 8217SOL    HW226103   7.379   8.450   3.860  2.8858  0.4864  0.3883
 8218SOL     OW26104   4.165   8.654   0.059 -0.4314 -0.0739  0.0435
 8218SOL    HW126105   4.253   8.684   0.037 -0.5504 -0.4175 -0.9333
 8218SOL    HW226106   4.162   8.656   0.155  0.5913  0.0646  0.0782
 8219SOL     OW26107   7.667   0.911   6.697 -0.2464  0.4021 -0.4451
 8219SOL    HW126108   7.599   0.977   6.686 -0.2392  0.7298  1.1857
 8219SOL    HW226109   7.739   0.941   6.641 -0.2730  1.7712  0.2059
 8220SOL     OW26110   2.271   6.841   6.182  0.2806  0.0599 -0.8955
 8220SOL    HW126111   2.228   6.860   6.099  0.0753 -0.7409 -0.9791
 8220SOL    HW226112   2.308   6.753   6.171 -2.4891 -1.4860  0.8981
 8221SOL     OW26113   5.020   7.609   5.731 -0.5087 -0.3479 -0.2603
 8221SOL    HW126114   4.945   7.551   5.735 -2.4612  1.9666 -0.6365
 8221SOL    HW226115   4.990   7.690   5.774  2.0358  0.4077  0.2467
 8222SOL     OW26116   8.167   1.492   8.371  0.4079  0.3573 -0.1476
 8222SOL    HW126117   8.162   1.467   8.279  0.7121  1.7786 -0.5772
 8222SOL    HW226118   8.166   1.409   8.418 -1.5604 -0.3476 -1.3187
 8223SOL     OW26119   1.569   8.140   4.321 -0.6466 -0.3091  0.3429
 8223SOL    HW126120   1.581   8.081   4.396 -1.4236  0.0383  0.7519
 8223SOL    HW226121   1.481   8.122   4.290 -0.4398 -0.2246 -0.2978
 8224SOL     OW26122   6.949   8.837   9.209 -0.4014  0.6462  0.1177
 8224SOL    HW126123   7.018   8.846   9.275  1.3014 -0.5940 -1.4033
 8224SOL    HW226124   6.949   8.744   9.187 -1.8905  0.8092 -0.6515
 8225SOL     OW26125   2.179   3.550   1.234 -0.3889 -0.3622 -0.7542
 8225SOL    HW126126   2.110   3.553   1.168 -0.5534 -1.3991 -0.6567
 8225SOL    HW226127   2.193   3.456   1.249  1.0109 -0.1587 -0.7338
 8226SOL     OW26128   6.819   1.812   7.154 -0.0500 -0.6506  0.3317
 8226SOL    HW126129   6.815   1.723   7.187  2.5918 -1.4760 -1.2853
 8226SOL    HW226130   6.748   1.817   7.089  0.7559 -2.1328 -0.7131
 8227SOL     OW26131   8.676   1.371   4.668 -0.0158  0.0232 -0.7576
 8227SOL    HW126132   8.617   1.372   4.592  0.7151 -1.2448 -1.3610
 8227SOL    HW226133   8.622   1.337   4.740  0.0062 -1.3273 -1.3555
 8228SOL     OW26134   0.474   8.703   2.224 -0.5728 -0.0730 -0.2769
 8228SOL    HW126135   0.529   8.630   2.197  2.3572  1.9738 -0.2160
 8228SOL    HW226136   0.434   8.734   2.142  1.0304  0.4504 -0.8914
 8229SOL     OW26137   5.195   2.830   5.437  0.2064  0.2730 -0.5495
 8229SOL    HW126138   5.272   2.797   5.484 -0.7010 -1.0782  0.0579
 8229SOL    HW226139   5.171   2.910   5.485 -0.1320 -0.5604  0.7265
 8230SOL     OW26140   8.873   3.058   0.798 -0.2712  0.1698  0.7532
 8230SOL    HW126141   8.783   3.089   0.802 -0.1077  0.9066 -0.7578
 8230SOL    HW226142   8.870   2.969   0.834 -2.2269 -1.1188 -2.2275
 8231SOL     OW26143   3.388   8.482   8.590  0.3365 -0.2905 -0.1660
 8231SOL    HW126144   3.358   8.396   8.561 -1.6524  0.0584  0.6893
 8231SOL    HW226145   3.481   8.471   8.606  0.0573 -2.4014  0.3039
 8232SOL     OW26146   5.389   1.293   3.338 -0.4367 -0.3351  0.1090
 8232SOL    HW126147   5.310   1.284   3.285 -0.4507 -1.2805  0.2707
 8232SOL    HW226148   5.413   1.203   3.361  1.3052 -0.1797 -0.8607
 8233SOL     OW26149   8.711   4.386   1.917  0.4368 -0.3263 -0.5309
 8233SOL    HW126150   8.625   4.348   1.901  0.2039  0.0682 -0.2219
 8233SOL    HW226151   8.723   4.449   1.846  0.4334 -0.3176 -0.5238
 8234SOL     OW26152   8.083   7.547   8.755 -0.2496 -0.0649 -0.5702
 8234SOL    HW126153   8.005   7.602   8.745 -0.0479 -0.0995 -2.8330
 8234SOL    HW226154   8.092   7.535   8.850 -2.6635  0.3837 -0.2197
 8235SOL     OW26155   7.896   0.021   2.045  0.6019  0.3594 -0.1904
 8235SOL    HW126156   7.873   0.041   2.135 -0.2576 -0.0294 -0.3181
 8235SOL    HW226157   7.843   0.080   1.992 -1.2677 -1.5130 -0.5392
 8236SOL     OW26158   0.054   7.643   1.213  0.2168 -0.2066  0.0701
 8236SOL    HW126159   0.027   7.607   1.128 -1.2018  0.6231  0.1379
 8236SOL    HW226160   0.043   7.571   1.274  0.8124 -0.6827 -0.3748
 8237SOL     OW26161   6.031   3.045   1.204  0.2842 -0.0813  0.3182
 8237SOL    HW126162   5.959   2.989   1.178 -0.3489  0.6913  0.3538
 8237SOL    HW226163   5.989   3.122   1.243  1.0781  0.8847 -0.6575
 8238SOL     OW26164   6.006   7.739   0.713 -0.0738  0.2074  0.3102
 8238SOL    HW126165   5.999   7.681   0.637 -2.3287  1.8394 -0.8506
 8238SOL    HW226166   5.920   7.779   0.721  0.8219  1.9680  2.2267
 8239SOL     OW26167   8.513   4.541   7.848 -0.2830  0.5170  0.3707
 8239SOL    HW126168   8.496   4.518   7.757 -1.4508 -0.6032  0.8356
 8239SOL    HW226169   8.609   4.543   7.855 -0.1173 -1.9029 -0.3235
 8240SOL     OW26170   3.771   2.417   1.794 -0.4268  0.5200 -0.4394
 8240SOL    HW126171   3.820   2.455   1.722  2.2563 -1.0936  0.3842
 8240SOL    HW226172   3.692   2.382   1.754  1.7295 -1.8100 -3.0035
 8241SOL     OW26173   4.817   8.008   5.017 -0.0747 -0.2490  0.6347
 8241SOL    HW126174   4.839   7.974   5.104 -0.2581 -0.7529  0.4852
 8241SOL    HW226175   4.900   8.043   4.984 -0.1896  0.7607  1.3683
 8242SOL     OW26176   2.427   1.293   1.313  1.4440  0.1218 -0.2365
 8242SOL    HW126177   2.409   1.363   1.251 -2.3925  1.1249  1.6773
 8242SOL    HW226178   2.410   1.331   1.399  2.1627 -2.3662  1.1231
 8243SOL     OW26179   6.137   6.757   4.072 -0.7006 -0.5874  0.0350
 8243SOL    HW126180   6.196   6.704   4.017  1.1211 -1.1764  2.3878
 8243SOL    HW226181   6.100   6.694   4.134  1.0460  0.6671  2.5094
 8244SOL     OW26182   9.251   3.533   7.526  0.5521  0.2350  0.0551
 8244SOL    HW126183   9.270   3.585   7.449  0.3334 -1.3419 -1.1223
 8244SOL    HW226184   9.168   3.489   7.505 -0.0692  0.5841  1.6317
 8245SOL     OW26185   4.477   1.021   7.550 -0.4716 -0.0648  0.8591
 8245SOL    HW126186   4.410   0.973   7.501  0.0839 -1.6303  1.5660
 8245SOL    HW226187   4.477   1.108   7.512 -1.6488 -0.5684 -0.3629
 8246SOL     OW26188   2.743   2.501   8.938 -0.4131  0.0426 -0.2913
 8246SOL    HW126189   2.820   2.461   8.978 -0.7110 -1.4368 -1.1437
 8246SOL    HW226190   2.678   2.501   9.008 -0.1422 -0.1912 -0.0341
 8247SOL     OW26191   5.610   1.896   1.817  0.0224  0.4073 -0.0010
 8247SOL    HW126192   5.543   1.839   1.780  0.3021 -0.8143  1.3168
 8247SOL    HW226193   5.569   1.983   1.817 -1.4267 -0.2368  0.4121
 8248SOL     OW26194   8.184   2.940   9.203  0.3191  0.4583 -0.5080
 8248SOL    HW126195   8.255   2.907   9.148  1.2146  0.1152  0.8114
 8248SOL    HW226196   8.113   2.876   9.192  1.3156 -0.8706  0.4764
 8249SOL     OW26197   3.542   8.708   6.990 -0.3770  0.0590 -0.1163
 8249SOL    HW126198   3.505   8.793   7.014 -0.3751  0.0350 -0.0278
 8249SOL    HW226199   3.635   8.715   7.012 -0.4680 -0.1305  0.3316
 8250SOL     OW26200   4.183   9.162   9.255 -0.2753 -0.1726  0.1686
 8250SOL    HW126201   4.169   9.068   9.248 -2.3192  0.1370 -0.6425
 8250SOL    HW226202   4.130   9.189   9.330 -0.3216  0.4190 -0.0693
 8251SOL     OW26203   0.076   1.575   3.972  0.0167  0.1477  0.1406
 8251SOL    HW126204   0.082   1.656   3.921  1.3741 -0.2818 -0.4306
 8251SOL    HW226205   0.155   1.526   3.948 -1.1081 -1.6671 -0.0814
 8252SOL     OW26206   3.780   3.426   6.534 -0.0937  0.1930  0.3302
 8252SOL    HW126207   3.852   3.487   6.552  0.3895 -0.3150  0.1590
 8252SOL    HW226208   3.754   3.393   6.620  1.7530 -1.7168  0.2361
 8253SOL     OW26209   5.298   1.217   6.785  0.0834 -0.6118  0.3348
 8253SOL    HW126210   5.377   1.176   6.749 -0.0890 -0.8923  0.2770
 8253SOL    HW226211   5.331   1.292   6.834  0.4141 -0.8973  0.5606
 8254SOL     OW26212   6.558   4.298   2.627 -0.1091  0.7601 -0.2263
 8254SOL    HW126213   6.629   4.290   2.691 -1.1183  0.3250  0.8544
 8254SOL    HW226214   6.541   4.209   2.598  0.7763  1.0121 -1.6290
 8255SOL     OW26215   7.193   3.631   5.815  0.3674 -1.1774  0.1471
 8255SOL    HW126216   7.261   3.569   5.789  0.8021  0.5391 -3.3111
 8255SOL    HW226217   7.158   3.664   5.733 -0.9014  2.0488  1.8276
 8256SOL     OW26218   7.853   4.527   7.239 -0.0416  0.7516 -0.3682
 8256SOL    HW126219   7.904   4.590   7.289  0.3572  1.1743 -1.2818
 8256SOL    HW226220   7.804   4.580   7.176  0.1945  0.1679 -1.0603
 8257SOL     OW26221   9.155   4.620   3.311  0.0056 -0.5001 -0.1812
 8257SOL    HW126222   9.184   4.589   3.397 -0.0260 -1.9866 -0.6765
 8257SOL    HW226223   9.082   4.678   3.330  1.2213  0.7414  0.8991
 8258SOL     OW26224   7.891   1.863   1.100 -0.3923 -0.1286  0.4797
 8258SOL    HW126225   7.917   1.828   1.185  1.3723  2.3357  1.0985
 8258SOL    HW226226   7.901   1.958   1.110 -1.6185  0.3435 -2.0251
 8259SOL     OW26227   7.448   4.393   7.686 -0.2416 -0.0531 -0.3375
 8259SOL    HW126228   7.417   4.351   7.765  0.8517 -0.2122  0.0326
 8259SOL    HW226229   7.457   4.322   7.622  0.8349 -0.2839  0.0424
 8260SOL     OW26230   8.563   4.551   6.978 -0.0791  0.7507  0.3115
 8260SOL    HW126231   8.532   4.607   7.049 -0.8667 -0.5645  1.0420
 8260SOL    HW226232   8.486   4.539   6.922  0.0876  0.3866  0.1600
 8261SOL     OW26233   5.738   3.421   2.622 -0.7592 -0.9697  0.5763
 8261SOL    HW126234   5.827   3.386   2.617 -0.8135 -0.9535 -0.7171
 8261SOL    HW226235   5.688   3.369   2.559 -1.3641 -0.0955  0.3191
 8262SOL     OW26236   4.991   0.382   1.793  0.3536  0.6536  0.6132
 8262SOL    HW126237   4.914   0.423   1.830 -0.5678 -0.3968 -0.0818
 8262SOL    HW226238   5.024   0.446   1.730  0.4006  1.3451  1.3274
 8263SOL     OW26239   1.389   6.152   2.637 -0.3402  0.8943  0.1981
 8263SOL    HW126240   1.367   6.150   2.730  0.9680  1.1692  0.5329
 8263SOL    HW226241   1.344   6.075   2.600  2.2323 -1.6131  1.8201
 8264SOL     OW26242   2.194   7.873   5.604  0.3674 -0.5213  0.4381
 8264SOL    HW126243   2.280   7.856   5.642 -0.5345 -0.4383  2.6825
 8264SOL    HW226244   2.167   7.788   5.569  0.6683 -0.9956  1.3058
 8265SOL     OW26245   2.912   2.190   3.871 -0.0980 -0.5369  0.2962
 8265SOL    HW126246   2.941   2.266   3.821 -0.7040 -0.7718 -0.4121
 8265SOL    HW226247   2.823   2.173   3.841 -0.7797 -0.2032  2.0072
 8266SOL     OW26248   8.369   6.400   0.178 -0.3868  0.2889  0.1601
 8266SOL    HW126249   8.410   6.314   0.172 -0.9203 -0.0900  1.4884
 8266SOL    HW226250   8.328   6.413   0.093  0.9122 -0.1205 -0.5575
 8267SOL     OW26251   0.428   9.237   4.423  0.1815 -0.0214 -0.2743
 8267SOL    HW126252   0.422   9.215   4.330 -1.6382  0.0355 -0.2075
 8267SOL    HW226253   0.384   9.165   4.468 -0.7985  0.9361  0.3666
 8268SOL     OW26254   5.776   7.070   2.620 -0.3413  0.2393  0.0720
 8268SOL    HW126255   5.754   7.158   2.650 -0.9074  0.4712 -0.9607
 8268SOL    HW226256   5.870   7.075   2.598 -0.2773  0.4710  0.4033
 8269SOL     OW26257   0.060   4.847   1.201  0.1199  0.1312 -0.1582
 8269SOL    HW126258   0.098   4.760   1.206  1.6804  0.7169 -1.1447
 8269SOL    HW226259  -0.026   4.838   1.243 -0.0385 -2.0092 -0.8317
 8270SOL     OW26260   2.986   0.918   5.465  0.0257  0.4814  0.0857
 8270SOL    HW126261   3.080   0.910   5.480 -0.1690 -0.9681  0.7500
 8270SOL    HW226262   2.977   0.916   5.369  0.7328  1.8945 -0.0371
 8271SOL     OW26263   5.486   4.712   5.694  0.2343  0.0444 -0.0413
 8271SOL    HW126264   5.431   4.658   5.751 -0.4543 -0.8548 -1.4858
 8271SOL    HW226265   5.491   4.797   5.738  0.3879 -0.8253  1.7282
 8272SOL     OW26266   2.682   1.286   4.950  0.2684  0.6464 -0.2637
 8272SOL    HW126267   2.663   1.367   4.902 -1.0307  1.2132  1.1111
 8272SOL    HW226268   2.736   1.315   5.024 -1.9603  0.6864  1.4545
 8273SOL     OW26269   5.360   2.424   0.288 -0.3355 -0.1399  0.3340
 8273SOL    HW126270   5.316   2.340   0.275 -0.2337 -0.0252 -0.8703
 8273SOL    HW226271   5.453   2.403   0.284 -0.2828  0.3174 -2.3528
 8274SOL     OW26272   1.698   1.191   3.482 -0.0178 -0.0640  0.2287
 8274SOL    HW126273   1.611   1.223   3.506 -0.4133 -1.3937  0.6829
 8274SOL    HW226274   1.699   1.193   3.387  0.1160  1.6027  0.2419
 8275SOL     OW26275   9.274   0.681   8.679  0.0644 -0.9039 -0.2046
 8275SOL    HW126276   9.298   0.631   8.601 -2.3098 -1.2387 -0.8165
 8275SOL    HW226277   9.198   0.732   8.652  0.7568  0.9859  1.2055
 8276SOL     OW26278   1.281   4.329   1.733  0.3648  0.0040 -0.6420
 8276SOL    HW126279   1.260   4.381   1.655 -1.0646  0.0275 -0.2566
 8276SOL    HW226280   1.340   4.385   1.784 -1.0983  1.2563 -0.2569
 8277SOL     OW26281   5.703   2.298   1.483 -0.4103  0.1932 -0.1750
 8277SOL    HW126282   5.694   2.206   1.504 -0.4195  0.3831  0.7105
 8277SOL    HW226283   5.616   2.325   1.454 -0.3926 -0.0876 -0.4887
 8278SOL     OW26284   0.410   4.125   4.360 -0.1841  0.3161 -0.1069
 8278SOL    HW126285   0.321   4.127   4.325 -0.6691  1.4409  1.1090
 8278SOL    HW226286   0.435   4.033   4.357 -2.4220 -0.4679  2.0015
 8279SOL     OW26287   4.815   7.205   2.799  0.2958  0.2026  0.0951
 8279SOL    HW126288   4.891   7.177   2.747 -0.8363 -1.6094 -0.6991
 8279SOL    HW226289   4.822   7.158   2.881 -0.0657 -0.1608 -0.0746
 8280SOL     OW26290   0.084   8.007   5.396  0.2127 -0.0604  0.2343
 8280SOL    HW126291   0.106   7.961   5.478 -0.0994  0.0038  0.3542
 8280SOL    HW226292   0.148   8.078   5.391  0.1259  0.0410  0.5121
 8281SOL     OW26293   2.748   2.863   0.950  0.0926  0.0311 -0.3302
 8281SOL    HW126294   2.741   2.771   0.925 -1.2401 -0.6245  2.1053
 8281SOL    HW226295   2.830   2.870   0.998 -0.1089 -0.0617  0.0355
 8282SOL     OW26296   2.407   7.405   3.594  0.0489 -0.0240  0.4889
 8282SOL    HW126297   2.321   7.365   3.581  0.3222 -0.5615  0.3044
 8282SOL    HW226298   2.389   7.485   3.643 -0.5099 -0.3643  0.8569
 8283SOL     OW26299   4.419   5.741   5.020 -0.2971  0.4781 -0.1464
 8283SOL    HW126300   4.439   5.676   4.952  0.9069  1.1776 -0.5103
 8283SOL    HW226301   4.469   5.818   4.993 -2.1233  1.7499 -0.0337
 8284SOL     OW26302   9.099   5.685   2.826  0.1512  0.0922 -0.0899
 8284SOL    HW126303   9.071   5.618   2.763 -0.1920  0.2801 -0.1372
 8284SOL    HW226304   9.019   5.712   2.870  0.3998 -0.0854  0.4800
 8285SOL     OW26305   3.854   1.273   1.677 -0.1727 -0.6177 -0.1843
 8285SOL    HW126306   3.908   1.274   1.756 -0.2282  0.3198 -0.1463
 8285SOL    HW226307   3.884   1.195   1.629  1.1644 -0.1737 -0.1215
 8286SOL     OW26308   8.837   8.418   3.631  0.1822 -0.4977 -0.5449
 8286SOL    HW126309   8.871   8.507   3.618 -1.1799  0.0597 -0.5508
 8286SOL    HW226310   8.863   8.395   3.720  0.0813  0.1350 -0.3447
 8287SOL     OW26311   8.948   0.651   4.245  0.0569  0.2282  0.4090
 8287SOL    HW126312   8.935   0.743   4.267 -1.0429  0.5788 -1.5222
 8287SOL    HW226313   9.041   0.636   4.258 -0.0296  1.0787  2.5049
 8288SOL     OW26314   1.058   2.088   1.834  0.1629 -0.7633 -0.1815
 8288SOL    HW126315   1.134   2.147   1.832 -0.1425 -0.3385 -2.6109
 8288SOL    HW226316   0.984   2.147   1.845 -0.0117 -0.8652 -0.7874
 8289SOL     OW26317   4.146   4.974   0.624 -0.0993 -0.4152  0.2154
 8289SOL    HW126318   4.127   4.883   0.602 -0.8154 -0.2363  0.0694
 8289SOL    HW226319   4.060   5.016   0.632  0.1874 -0.0065  1.3679
 8290SOL     OW26320   6.996   2.710   7.898  0.0435  0.1843 -0.0096
 8290SOL    HW126321   7.090   2.725   7.892 -0.0632  0.6355 -0.5581
 8290SOL    HW226322   6.962   2.730   7.810 -0.4146 -1.0202 -0.1327
 8291SOL     OW26323   1.298   5.265   7.658 -0.4024 -0.5742  0.0209
 8291SOL    HW126324   1.376   5.286   7.710  0.3362 -2.3303 -0.2782
 8291SOL    HW226325   1.292   5.336   7.594  1.1547 -0.5446 -0.1409
 8292SOL     OW26326   3.717   8.562   6.800 -0.5767  0.0270  0.3211
 8292SOL    HW126327   3.679   8.495   6.743 -1.4793  0.5298  0.3073
 8292SOL    HW226328   3.648   8.627   6.809  0.5157  1.3227 -0.2415
 8293SOL     OW26329   2.205   3.864   8.552 -0.1060 -0.1115 -0.4428
 8293SOL    HW126330   2.289   3.892   8.589  0.0828  0.7295 -1.4584
 8293SOL    HW226331   2.139   3.903   8.608  0.1723  1.5319 -1.2091
 8294SOL     OW26332   8.272   6.961   1.530  0.3008 -0.2646 -0.1028
 8294SOL    HW126333   8.265   6.903   1.454 -1.1176  2.4201 -2.1858
 8294SOL    HW226334   8.190   7.010   1.531  1.3325  1.5944  1.6355
 8295SOL     OW26335   7.357   2.488   8.623  0.0773  0.2047 -0.0398
 8295SOL    HW126336   7.414   2.412   8.612  0.5712  0.7803 -1.9248
 8295SOL    HW226337   7.268   2.452   8.616  0.2085 -0.4859  1.4179
 8296SOL     OW26338   2.535   6.793   1.521 -0.0147 -0.0936  0.1520
 8296SOL    HW126339   2.484   6.719   1.554  0.8560  0.1183  2.0607
 8296SOL    HW226340   2.507   6.868   1.573  0.2255  0.6110 -0.7095
 8297SOL     OW26341   2.306   2.603   1.407 -0.7045  0.2166 -0.0526
 8297SOL    HW126342   2.261   2.540   1.462 -0.2563 -0.3828 -0.3639
 8297SOL    HW226343   2.274   2.688   1.437  0.2331 -0.0344  1.7886
 8298SOL     OW26344   3.252   5.713   6.821 -0.8815  0.2004  0.4067
 8298SOL    HW126345   3.317   5.671   6.765 -2.0187  0.8740 -1.5172
 8298SOL    HW226346   3.263   5.670   6.906  2.0447  0.3029  0.1978
 8299SOL     OW26347   1.106   3.788   3.966  0.0815 -0.5676 -0.5156
 8299SOL    HW126348   1.113   3.761   4.057 -0.2974  1.2085  0.0830
 8299SOL    HW226349   1.163   3.865   3.959  0.3321 -0.8406 -1.8624
 8300SOL     OW26350   0.216   3.157   4.457 -0.0518 -0.6787 -0.2951
 8300SOL    HW126351   0.287   3.095   4.439  0.2210 -1.6369  3.2523
 8300SOL    HW226352   0.136   3.106   4.447 -0.0349 -0.5918 -0.8733
 8301SOL     OW26353   7.358   2.604   4.740  0.3686  0.4465 -0.0435
 8301SOL    HW126354   7.404   2.521   4.728 -0.1877  0.0044  0.7856
 8301SOL    HW226355   7.426   2.671   4.733  1.0134 -0.1502  0.4097
 8302SOL     OW26356   0.478   2.707   1.267 -0.7048  0.7146  0.2115
 8302SOL    HW126357   0.535   2.692   1.342  0.1299  0.8279 -0.3893
 8302SOL    HW226358   0.422   2.629   1.264 -0.5743  0.5916  0.7907
 8303SOL     OW26359   5.508   3.390   5.938 -0.0974 -0.7045  0.1235
 8303SOL    HW126360   5.460   3.377   6.020 -0.3147 -1.7434 -0.1439
 8303SOL    HW226361   5.483   3.477   5.909  1.6755  0.5942  2.2331
 8304SOL     OW26362   2.595   7.052   0.376  0.0472 -0.1684 -0.0420
 8304SOL    HW126363   2.566   6.984   0.316 -0.9465  1.2509 -1.2588
 8304SOL    HW226364   2.684   7.074   0.348 -0.1550  0.0034 -0.5519
 8305SOL     OW26365   8.465   2.708   0.546  0.0715  0.2313 -0.3111
 8305SOL    HW126366   8.452   2.649   0.620  0.7633 -1.0602 -1.1704
 8305SOL    HW226367   8.435   2.658   0.470  0.1949  1.1867 -1.0048
 8306SOL     OW26368   5.832   7.863   4.224  0.0286  0.0246  0.1609
 8306SOL    HW126369   5.918   7.893   4.196  0.6696 -1.2699  0.6797
 8306SOL    HW226370   5.846   7.827   4.311 -1.0883  0.0059  0.3532
 8307SOL     OW26371   4.271   8.504   3.985 -0.1168  0.5682 -0.2413
 8307SOL    HW126372   4.286   8.529   3.894  1.1815 -0.0697 -0.2340
 8307SOL    HW226373   4.350   8.533   4.032 -0.0043 -0.5934  0.3446
 8308SOL     OW26374   2.959   8.578   0.500  0.2984  0.4082  0.1310
 8308SOL    HW126375   2.971   8.489   0.465 -1.3997  0.1835  0.0233
 8308SOL    HW226376   3.016   8.632   0.445 -0.5133 -0.2784 -1.4713
 8309SOL     OW26377   9.112   4.084   2.281  0.4608  0.3930  0.3316
 8309SOL    HW126378   9.178   4.026   2.319 -0.4192  0.2191  1.6533
 8309SOL    HW226379   9.031   4.032   2.282  0.4908  0.1075 -2.4809
 8310SOL     OW26380   4.764   2.419   4.919  0.3914 -0.1047  0.2368
 8310SOL    HW126381   4.721   2.370   4.989  2.2765 -0.6570  1.0873
 8310SOL    HW226382   4.752   2.511   4.943 -0.8522 -0.2063  0.0746
 8311SOL     OW26383   7.623   3.168   2.411 -0.1653  0.4300  0.1154
 8311SOL    HW126384   7.685   3.113   2.459 -1.3254  0.0219  1.2171
 8311SOL    HW226385   7.562   3.105   2.372 -0.6134  0.8585  0.1174
 8312SOL     OW26386   3.258   3.649   3.648  0.8208 -0.8141 -0.2298
 8312SOL    HW126387   3.298   3.587   3.708 -2.5595 -3.3063 -0.2060
 8312SOL    HW226388   3.187   3.689   3.699  0.6377  0.3205 -1.3284
 8313SOL     OW26389   5.079   8.916   8.176  0.2206  0.4794 -0.2976
 8313SOL    HW126390   5.034   8.997   8.150 -1.2503 -0.1722  0.0683
 8313SOL    HW226391   5.091   8.869   8.093 -1.3879 -0.0967 -0.2423
 8314SOL     OW26392   7.077   4.123   8.260  0.1259 -0.3963 -0.2885
 8314SOL    HW126393   7.080   4.060   8.332 -0.4369 -0.8439 -0.6533
 8314SOL    HW226394   7.038   4.201   8.300 -0.3737 -0.7099 -0.1549
 8315SOL     OW26395   1.876   8.522   2.497  0.2711  0.5778 -1.0496
 8315SOL    HW126396   1.818   8.462   2.450  2.3227 -0.9351 -1.7703
 8315SOL    HW226397   1.941   8.465   2.538  1.9079  2.2608 -1.1943
 8316SOL     OW26398   3.879   8.916   8.873 -0.0656  0.9856 -0.1907
 8316SOL    HW126399   3.821   8.923   8.797 -1.1047  2.6693  0.7132
 8316SOL    HW226400   3.833   8.859   8.934  1.3446 -1.4551 -1.2372
 8317SOL     OW26401   3.389   5.644   2.291  0.0017  0.5809  0.0207
 8317SOL    HW126402   3.371   5.716   2.232 -3.0953  0.8345  1.1125
 8317SOL    HW226403   3.370   5.565   2.240 -1.7174  0.7641  0.3416
 8318SOL     OW26404   7.887   7.006   9.155  0.1014  0.1239 -0.1081
 8318SOL    HW126405   7.794   6.990   9.166  0.2403 -0.6673 -0.0052
 8318SOL    HW226406   7.896   7.039   9.066 -0.3121  0.5310 -0.0012
 8319SOL     OW26407   1.684   5.306   4.184  0.3802  0.0186 -0.0524
 8319SOL    HW126408   1.700   5.397   4.210  3.0675 -0.1409 -0.8779
 8319SOL    HW226409   1.657   5.263   4.265 -0.5604  1.4169  0.4358
 8320SOL     OW26410   1.014   1.471   5.187 -0.0141  0.8092 -0.0289
 8320SOL    HW126411   1.035   1.488   5.279  1.1824  1.7988 -0.4471
 8320SOL    HW226412   0.934   1.520   5.172  0.2079  1.2842  0.2992
 8321SOL     OW26413   1.367   7.446   5.165 -0.1713  0.2706  0.0135
 8321SOL    HW126414   1.339   7.455   5.256 -0.0832 -0.4898  0.1252
 8321SOL    HW226415   1.313   7.375   5.130  0.0165  0.3415 -0.4370
 8322SOL     OW26416   0.699   2.172   8.867  0.0199 -0.3776  0.6389
 8322SOL    HW126417   0.613   2.153   8.903 -0.1131 -0.1772  0.4351
 8322SOL    HW226418   0.687   2.255   8.819  0.4944  0.0353  1.2214
 8323SOL     OW26419   6.606   8.018   8.121  0.2265 -0.1096  0.5172
 8323SOL    HW126420   6.601   8.104   8.164 -0.7765  0.0652  0.0983
 8323SOL    HW226421   6.521   7.978   8.139  0.3988 -0.6970  0.0559
 8324SOL     OW26422   3.951   8.633   5.307 -0.1192 -0.3283 -0.3598
 8324SOL    HW126423   3.933   8.540   5.290 -1.9533 -0.0562 -0.1679
 8324SOL    HW226424   3.990   8.665   5.226  1.4252 -1.4476 -0.1009
 8325SOL     OW26425   0.082   0.196   6.601 -0.1220 -0.0205 -0.6252
 8325SOL    HW126426   0.174   0.192   6.630  0.2832  1.9674 -1.4567
 8325SOL    HW226427   0.065   0.289   6.588 -1.3931 -0.5089 -3.1505
 8326SOL     OW26428   6.578   2.914   4.054  0.8421 -0.4348  0.0624
 8326SOL    HW126429   6.574   2.846   3.987  0.2193  0.8489 -1.2773
 8326SOL    HW226430   6.651   2.970   4.026  0.9454 -0.2003  0.7838
 8327SOL     OW26431   6.442   5.026   4.154  0.6925 -0.1560 -0.4038
 8327SOL    HW126432   6.426   5.115   4.123  0.9375 -0.5984 -1.8867
 8327SOL    HW226433   6.378   4.973   4.106 -0.9023 -0.5576  2.0202
 8328SOL     OW26434   7.756   6.490   0.239  0.5603  0.5159 -0.3536
 8328SOL    HW126435   7.737   6.583   0.240 -0.3039  0.3439  0.3443
 8328SOL    HW226436   7.816   6.478   0.165 -0.9342  1.3081 -1.7443
 8329SOL     OW26437   1.489   0.336   6.391 -0.5023  0.0751 -0.3177
 8329SOL    HW126438   1.510   0.412   6.338 -1.8973 -0.1241 -1.2057
 8329SOL    HW226439   1.426   0.286   6.338 -0.0663 -1.3867  0.4881
 8330SOL     OW26440   5.675   5.974   9.105 -0.3664  0.4132  0.5244
 8330SOL    HW126441   5.607   5.918   9.070  3.0320 -2.3910 -2.3794
 8330SOL    HW226442   5.717   6.013   9.028  1.1244  2.3215  2.1705
 8331SOL     OW26443   0.095   0.831   3.640 -0.4189 -0.2366 -0.0708
 8331SOL    HW126444   0.037   0.907   3.653 -0.2024  0.0006 -0.4877
 8331SOL    HW226445   0.113   0.830   3.546  1.6502  0.7188  0.2759
 8332SOL     OW26446   3.246   0.499   3.029 -0.0339 -0.4875  0.2703
 8332SOL    HW126447   3.323   0.548   2.999 -0.1825 -1.6193 -2.1766
 8332SOL    HW226448   3.281   0.437   3.093  0.3025  1.9731  2.6586
 8333SOL     OW26449   2.353   7.685   1.472 -0.1734 -0.2722 -0.4368
 8333SOL    HW126450   2.276   7.694   1.416 -0.6270  2.8283  0.4767
 8333SOL    HW226451   2.412   7.754   1.441  0.5522 -0.0383  1.3877
 8334SOL     OW26452   8.588   4.104   6.944 -0.1896  0.5357 -0.5949
 8334SOL    HW126453   8.666   4.089   6.997  0.0950 -0.5546 -1.2656
 8334SOL    HW226454   8.609   4.180   6.889 -0.3723  1.4738  0.6001
 8335SOL     OW26455   4.401   3.845   2.648  0.3199 -0.3464 -0.2057
 8335SOL    HW126456   4.438   3.914   2.593  1.5123  2.1308  3.3170
 8335SOL    HW226457   4.330   3.808   2.596  0.5813  2.5284 -2.9194
 8336SOL     OW26458   4.747   6.930   3.835 -0.0010  0.0925 -0.0094
 8336SOL    HW126459   4.710   6.963   3.753  0.4206  0.5961 -0.0054
 8336SOL    HW226460   4.680   6.873   3.870 -0.6176  0.6835 -0.1920
 8337SOL     OW26461   8.570   3.126   7.464  0.1224  0.5010  0.0543
 8337SOL    HW126462   8.665   3.127   7.450 -0.0353 -0.6988 -1.3575
 8337SOL    HW226463   8.533   3.114   7.376 -1.3022 -0.1440  0.7034
 8338SOL     OW26464   2.835   3.126   0.448 -0.0894 -0.5859 -0.1308
 8338SOL    HW126465   2.924   3.158   0.429  0.5292 -0.8622  2.0653
 8338SOL    HW226466   2.790   3.131   0.364  2.1760 -1.0135 -1.4704
 8339SOL     OW26467   4.004   8.486   8.979  0.7201  0.1744 -0.3306
 8339SOL    HW126468   3.924   8.435   8.969 -0.7064  2.1964  0.1861
 8339SOL    HW226469   4.021   8.485   9.073  2.2359 -1.5089 -0.5682
 8340SOL     OW26470   5.726   1.500   5.352  0.3539 -0.2412 -0.3061
 8340SOL    HW126471   5.643   1.510   5.306  0.5272  0.5862 -0.4660
 8340SOL    HW226472   5.748   1.589   5.380  1.3056 -0.4167 -0.4724
 8341SOL     OW26473   8.610   8.449   6.487  0.2229  0.1408  0.0054
 8341SOL    HW126474   8.678   8.488   6.433 -0.2144  0.0695 -0.6083
 8341SOL    HW226475   8.639   8.358   6.500  0.8114  0.4229  0.7186
 8342SOL     OW26476   1.941   7.903   5.068  0.0372  0.0302 -0.1217
 8342SOL    HW126477   2.014   7.844   5.045 -0.1145  0.3666 -1.5518
 8342SOL    HW226478   1.976   7.956   5.140  1.0964 -0.0566 -0.5409
 8343SOL     OW26479   3.518   8.756   8.871  0.3177  0.6461  0.1268
 8343SOL    HW126480   3.557   8.670   8.854  0.5781  0.8082 -0.1163
 8343SOL    HW226481   3.568   8.816   8.815  0.4970  1.0366  0.6980
 8344SOL     OW26482   5.160   2.145   1.595 -0.1386  0.6033 -0.0144
 8344SOL    HW126483   5.254   2.128   1.591 -0.3627 -0.8546  0.0771
 8344SOL    HW226484   5.146   2.187   1.679  0.4634  1.1305 -0.1706
 8345SOL     OW26485   6.316   7.672   0.590  0.7180 -0.1671 -0.1982
 8345SOL    HW126486   6.221   7.664   0.594  0.4602  2.3828  0.2809
 8345SOL    HW226487   6.336   7.683   0.497  0.4747 -0.0752 -0.2391
 8346SOL     OW26488   3.892   3.365   4.261  0.4018 -0.1172  0.0374
 8346SOL    HW126489   3.831   3.350   4.334  0.2236 -0.4446 -0.1767
 8346SOL    HW226490   3.921   3.278   4.235 -2.1789 -0.3842 -2.5221
 8347SOL     OW26491   0.959   3.877   4.608 -0.0064  0.0192 -0.1072
 8347SOL    HW126492   0.992   3.889   4.697  0.8631 -0.1673 -0.3938
 8347SOL    HW226493   1.022   3.818   4.567  0.5681  1.4966 -1.4002
 8348SOL     OW26494   1.405   1.113   6.905  0.2785 -0.1117  0.1595
 8348SOL    HW126495   1.359   1.115   6.989 -1.5163 -0.4825 -0.7606
 8348SOL    HW226496   1.430   1.204   6.889 -1.6920  0.4197 -0.0989
 8349SOL     OW26497   6.688   2.314   8.387  0.0325 -0.2942  0.0624
 8349SOL    HW126498   6.642   2.346   8.310  3.3099 -1.3801 -2.5851
 8349SOL    HW226499   6.669   2.220   8.389 -0.7380 -0.1372  1.1826
 8350SOL     OW26500   8.765   4.406   3.640 -0.1762 -0.7740 -0.0944
 8350SOL    HW126501   8.690   4.386   3.696  1.2435 -1.7666  1.5205
 8350SOL    HW226502   8.731   4.471   3.577 -2.0228 -0.2021  1.4067
 8351SOL     OW26503   7.176   5.151   0.891  0.7618  0.1917 -0.1535
 8351SOL    HW126504   7.245   5.175   0.829  1.4232 -2.8180 -0.7439
 8351SOL    HW226505   7.111   5.220   0.882  2.1454  1.3530 -2.0845
 8352SOL     OW26506   1.487   5.088   0.565 -0.0951  0.4568 -0.1128
 8352SOL    HW126507   1.565   5.144   0.567  0.3742 -0.1555 -0.9078
 8352SOL    HW226508   1.501   5.029   0.491 -1.3676  0.4008 -0.3299
 8353SOL     OW26509   6.130   3.269   2.141 -0.0078 -0.4090 -0.1473
 8353SOL    HW126510   6.111   3.234   2.228  0.0230 -1.2267 -0.4616
 8353SOL    HW226511   6.065   3.338   2.128  0.3444  0.0976  0.7469
 8354SOL     OW26512   3.259   2.583   4.671  0.1458 -0.0897 -0.1577
 8354SOL    HW126513   3.274   2.489   4.673 -4.3656 -1.0169  0.1359
 8354SOL    HW226514   3.273   2.611   4.762 -0.8039 -1.0118  0.2944
 8355SOL     OW26515   3.552   0.111   4.586 -0.6290  0.0757  0.0796
 8355SOL    HW126516   3.557   0.158   4.502  1.4688 -0.3349 -0.0764
 8355SOL    HW226517   3.510   0.028   4.564  0.1908 -0.1619 -0.6458
 8356SOL     OW26518   3.280   3.272   7.917 -0.2054 -0.0138  0.5418
 8356SOL    HW126519   3.196   3.310   7.895  0.2582  1.5318  1.3075
 8356SOL    HW226520   3.274   3.253   8.011 -0.3761 -1.7631  0.2105
 8357SOL     OW26521   1.021   6.462   3.756 -0.1809  0.8947 -0.4476
 8357SOL    HW126522   1.074   6.485   3.679 -0.5048  0.2806 -0.8632
 8357SOL    HW226523   1.073   6.398   3.804  0.8417  2.6255  0.8569
 8358SOL     OW26524   2.076   6.929   7.370  0.4989  0.4742  0.3153
 8358SOL    HW126525   2.070   6.834   7.378  1.1521  0.4060  0.0089
 8358SOL    HW226526   2.089   6.946   7.277 -1.9290  1.0108 -0.0071
 8359SOL     OW26527   4.691   0.181   4.773  0.1280 -0.2672 -0.0749
 8359SOL    HW126528   4.778   0.222   4.778  0.0727 -0.0675 -0.6165
 8359SOL    HW226529   4.683   0.132   4.854  0.2571  0.6799  0.5286
 8360SOL     OW26530   7.071   6.577   3.659 -0.1009  0.2764 -0.2882
 8360SOL    HW126531   7.048   6.488   3.630 -1.0785  0.2650  0.4773
 8360SOL    HW226532   7.162   6.570   3.687 -0.1789 -0.5052 -0.1941
 8361SOL     OW26533   8.397   3.834   7.138  0.5000 -0.2943  0.0269
 8361SOL    HW126534   8.484   3.802   7.113  0.2797 -2.0287  1.3096
 8361SOL    HW226535   8.367   3.884   7.062  1.8502 -1.2346 -1.1723
 8362SOL     OW26536   6.751   6.142   3.492 -0.0779  0.3522 -0.5157
 8362SOL    HW126537   6.691   6.069   3.505 -0.5680  0.5680 -1.5101
 8362SOL    HW226538   6.809   6.139   3.568  0.9306 -2.0219 -1.2927
 8363SOL     OW26539   0.857   9.263   1.856  0.2801  0.4091  0.3364
 8363SOL    HW126540   0.810   9.201   1.912  0.8857  0.9224  1.4391
 8363SOL    HW226541   0.908   9.316   1.917 -1.1778  2.8365 -0.4415
 8364SOL     OW26542   7.853   3.995   0.461  0.0369  0.1086  0.1039
 8364SOL    HW126543   7.842   4.054   0.387 -1.3108  0.9205  0.9096
 8364SOL    HW226544   7.869   3.909   0.421 -1.7104  0.3122 -1.1713
 8365SOL     OW26545   0.678   0.259   5.105 -0.6188  0.0919  0.1883
 8365SOL    HW126546   0.614   0.330   5.106  1.9778  2.6388  1.5304
 8365SOL    HW226547   0.711   0.259   5.015 -0.6735  0.5847  0.1647
 8366SOL     OW26548   1.437   6.853   0.432 -0.1242  0.0903  0.6190
 8366SOL    HW126549   1.510   6.827   0.376  0.2499  0.5946  0.8654
 8366SOL    HW226550   1.394   6.771   0.455  0.2735 -0.1974  0.3433
 8367SOL     OW26551   1.071   4.110   0.368  0.0547  0.8000 -0.4423
 8367SOL    HW126552   1.016   4.179   0.330  0.1899  1.1702  0.0256
 8367SOL    HW226553   1.027   4.087   0.450  1.1821  1.9023  0.5125
 8368SOL     OW26554   6.474   5.573   8.034  0.3269 -0.0539  0.0999
 8368SOL    HW126555   6.516   5.660   8.032 -0.3997  0.3085  0.2234
 8368SOL    HW226556   6.488   5.542   8.123  0.5767 -0.0579  0.0602
 8369SOL     OW26557   2.324   2.880   6.320  0.3827 -0.1677 -0.1609
 8369SOL    HW126558   2.396   2.942   6.329  0.2143 -0.2526  2.9320
 8369SOL    HW226559   2.247   2.935   6.304  0.6874  0.1633 -0.5104
 8370SOL     OW26560   4.610   8.152   5.267 -0.0108 -0.1284  0.2430
 8370SOL    HW126561   4.696   8.170   5.231  0.3830  1.3560  1.7913
 8370SOL    HW226562   4.604   8.057   5.270  0.7174 -0.2921 -1.7499
 8371SOL     OW26563   8.917   0.568   2.728  0.1017  0.2330  0.2508
 8371SOL    HW126564   8.918   0.662   2.710 -1.3527  0.8627  2.8952
 8371SOL    HW226565   8.993   0.533   2.681  1.4045  2.9096  0.1941
 8372SOL     OW26566   2.470   4.455   1.759 -0.1565  0.3994  0.5365
 8372SOL    HW126567   2.492   4.412   1.842  0.2171 -0.0057  0.2391
 8372SOL    HW226568   2.555   4.472   1.718 -0.3258  0.8728  0.3718
 8373SOL     OW26569   0.108   3.514   3.600 -0.2164  0.1933  0.5589
 8373SOL    HW126570   0.146   3.459   3.668  0.9866  1.0610  0.6045
 8373SOL    HW226571   0.143   3.480   3.518  1.4455  1.5349  0.6554
 8374SOL     OW26572   7.925   1.887   8.640  0.1497  0.2022  0.3107
 8374SOL    HW126573   7.959   1.818   8.583 -1.9102  0.5948 -1.5723
 8374SOL    HW226574   7.907   1.844   8.723  0.1700 -1.2176 -0.4006
 8375SOL     OW26575   2.830   5.819   6.727  0.1908  0.1706 -0.4435
 8375SOL    HW126576   2.887   5.892   6.701 -1.6266  1.2947 -1.4709
 8375SOL    HW226577   2.836   5.757   6.654 -0.3725  0.5914 -0.8573
 8376SOL     OW26578   6.532   5.322   7.300  0.0236  0.3624 -0.2599
 8376SOL    HW126579   6.598   5.296   7.364  0.5207  0.1567 -0.8479
 8376SOL    HW226580   6.497   5.240   7.266 -1.3241  0.4412  0.8072
 8377SOL     OW26581   6.655   7.597   8.904 -0.2381 -0.2201 -0.9812
 8377SOL    HW126582   6.648   7.679   8.954 -0.3877 -0.9949  0.2975
 8377SOL    HW226583   6.625   7.621   8.816 -0.7105  0.9985 -0.5153
 8378SOL     OW26584   4.588   9.101   0.121 -0.2625  0.3767 -0.1188
 8378SOL    HW126585   4.652   9.076   0.188 -1.0890  0.4623  0.7163
 8378SOL    HW226586   4.573   9.195   0.136 -0.2891  0.4486 -0.5758
 8379SOL     OW26587   0.504   1.518   8.043  0.0021  0.3182  0.3442
 8379SOL    HW126588   0.554   1.591   8.081  1.0618  0.8857 -1.9810
 8379SOL    HW226589   0.424   1.559   8.011  0.6749  0.5772 -1.1221
 8380SOL     OW26590   0.482   4.420   7.438 -0.3516 -0.2804  0.7583
 8380SOL    HW126591   0.455   4.390   7.525  1.1423 -0.0588  1.3225
 8380SOL    HW226592   0.568   4.381   7.424 -1.0555 -1.2846 -1.1527
 8381SOL     OW26593   5.331   7.587   8.760  0.2328 -0.2337  0.0892
 8381SOL    HW126594   5.352   7.631   8.843  1.2317 -0.2129 -0.1594
 8381SOL    HW226595   5.395   7.622   8.698 -1.0395  0.3828 -0.9087
 8382SOL     OW26596   7.479   4.194   3.958 -0.2500 -0.1199  0.3276
 8382SOL    HW126597   7.498   4.284   3.982  0.9177 -0.4175  0.6130
 8382SOL    HW226598   7.561   4.147   3.977 -0.7547 -1.1813 -0.0588
 8383SOL     OW26599   1.640   2.687   2.210 -0.7091  0.1198  0.1415
 8383SOL    HW126600   1.735   2.701   2.217 -0.6071  1.2129 -2.4322
 8383SOL    HW226601   1.631   2.620   2.143 -1.7692 -0.7956  1.1616
 8384SOL     OW26602   9.015   7.874   7.847 -0.0588  0.2223 -0.1816
 8384SOL    HW126603   9.110   7.884   7.856  0.2550 -0.5479 -2.1686
 8384SOL    HW226604   9.002   7.780   7.838 -1.0747  0.2893  0.4542
 8385SOL     OW26605   7.878   4.678   0.976  0.1754  0.1593 -0.1600
 8385SOL    HW126606   7.958   4.704   0.931 -1.4875 -0.7425 -4.0724
 8385SOL    HW226607   7.808   4.719   0.925 -2.1225 -4.4019 -1.2225
 8386SOL     OW26608   8.730   9.188   4.476  0.0525  0.0955  0.1730
 8386SOL    HW126609   8.762   9.249   4.410 -2.5270 -0.0912 -1.3714
 8386SOL    HW226610   8.694   9.114   4.426  0.8896 -1.5808  1.9135
 8387SOL     OW26611   8.744   0.267   8.997  0.4773 -0.4339 -0.1250
 8387SOL    HW126612   8.827   0.312   9.012  0.5214 -1.0056  1.5159
 8387SOL    HW226613   8.762   0.205   8.926  0.7771  1.1168 -1.4517
 8388SOL     OW26614   3.892   4.098   4.488  0.1005  0.6418 -0.1466
 8388SOL    HW126615   3.826   4.157   4.452  0.8643  1.8436  0.3820
 8388SOL    HW226616   3.846   4.049   4.556 -1.3984 -1.7336 -2.6356
 8389SOL     OW26617   9.274   0.798   6.746  0.0382  0.2580 -1.0469
 8389SOL    HW126618   9.329   0.741   6.799  1.6840  2.7444  0.0859
 8389SOL    HW226619   9.327   0.819   6.669 -0.4984  0.4048 -1.3892
 8390SOL     OW26620   2.770   7.407   1.034  0.0475  0.1278  0.1728
 8390SOL    HW126621   2.701   7.342   1.048 -0.5916  0.8531  0.4754
 8390SOL    HW226622   2.736   7.462   0.963  0.3127  0.4957  0.3323
 8391SOL     OW26623   6.823   3.806   5.215 -0.1211  0.1142 -0.4339
 8391SOL    HW126624   6.804   3.787   5.123  2.0567  0.4778 -1.0189
 8391SOL    HW226625   6.868   3.890   5.213  0.4842 -0.1517  0.8986
 8392SOL     OW26626   7.762   6.566   2.637  0.0608  0.9249  0.2097
 8392SOL    HW126627   7.776   6.572   2.732 -1.3599 -2.2117  0.7503
 8392SOL    HW226628   7.847   6.539   2.602  0.2731  0.8234  0.7915
 8393SOL     OW26629   4.850   1.493   6.700 -0.2509  0.0984  0.2829
 8393SOL    HW126630   4.841   1.560   6.632  1.1017  1.2541  1.1636
 8393SOL    HW226631   4.911   1.430   6.663 -2.3972 -1.3308 -0.9999
 8394SOL     OW26632   5.543   7.924   6.859 -0.4212  0.1067 -0.0677
 8394SOL    HW126633   5.618   7.909   6.916 -1.1135 -1.0134  0.5697
 8394SOL    HW226634   5.581   7.959   6.778  1.1388 -3.2640 -0.9401
 8395SOL     OW26635   5.817   2.140   1.227 -0.0165  0.7588  0.1805
 8395SOL    HW126636   5.770   2.190   1.293  1.3881  1.8821  0.3913
 8395SOL    HW226637   5.761   2.144   1.149 -1.4228 -0.1119  1.1151
 8396SOL     OW26638   7.648   7.717   6.433  0.1049 -0.3900 -0.2958
 8396SOL    HW126639   7.676   7.667   6.509  1.3231 -0.9278 -1.0613
 8396SOL    HW226640   7.553   7.714   6.436  0.1131 -2.6032 -0.1778
 8397SOL     OW26641   1.982   2.210   6.533  0.4700 -0.0045 -0.3005
 8397SOL    HW126642   1.931   2.240   6.458 -0.8537 -0.2622  0.4640
 8397SOL    HW226643   2.002   2.290   6.582  2.7063  0.3582 -1.7135
 8398SOL     OW26644   1.838   5.870   0.973 -0.1710 -0.1532 -0.2653
 8398SOL    HW126645   1.824   5.925   0.895  0.0903  0.3682  0.0461
 8398SOL    HW226646   1.924   5.896   1.005  1.0727 -2.4580 -1.4759
 8399SOL     OW26647   3.081   8.325   5.846 -0.1190 -0.3673 -0.0774
 8399SOL    HW126648   3.094   8.395   5.910 -1.1661  1.6836 -1.9621
 8399SOL    HW226649   3.026   8.261   5.892 -0.0662  0.5731  1.3605
 8400SOL     OW26650   6.305   4.873   6.251 -0.4467  0.2153 -0.2102
 8400SOL    HW126651   6.399   4.864   6.237 -0.3640  0.9491 -0.1529
 8400SOL    HW226652   6.275   4.784   6.270  0.5181  0.2292  1.5240
 8401SOL     OW26653   1.831   5.306   1.752  0.1734  0.2382 -0.1134
 8401SOL    HW126654   1.889   5.374   1.787 -0.1007  0.2945  0.2338
 8401SOL    HW226655   1.842   5.311   1.657  2.1919 -1.0071 -0.0147
 8402SOL     OW26656   2.844   8.081   2.273  0.7718 -0.4860 -0.6928
 8402SOL    HW126657   2.828   8.104   2.182  0.5677 -0.4347 -0.6434
 8402SOL    HW226658   2.858   7.987   2.272 -0.5936 -0.7031 -0.5880
 8403SOL     OW26659   4.959   3.187   3.615  0.2656  0.2159  0.4226
 8403SOL    HW126660   4.979   3.152   3.702  1.9297 -0.8424 -0.3478
 8403SOL    HW226661   4.906   3.119   3.573  0.3927  0.2380  0.2243
 8404SOL     OW26662   5.378   4.564   7.558  0.0656  0.1383  0.4641
 8404SOL    HW126663   5.446   4.496   7.559 -0.0581  0.0247  0.9535
 8404SOL    HW226664   5.419   4.639   7.599 -0.6042 -0.4128  2.2312
 8405SOL     OW26665   1.245   4.980   2.496 -0.2063  0.2783  1.0396
 8405SOL    HW126666   1.199   4.896   2.509 -1.2682  0.6983  0.1771
 8405SOL    HW226667   1.230   5.001   2.404  1.3608  0.6782  0.8536
 8406SOL     OW26668   7.447   4.659   4.329 -0.1035 -0.3668  0.0907
 8406SOL    HW126669   7.413   4.727   4.271 -2.5527 -0.9329  0.7442
 8406SOL    HW226670   7.428   4.577   4.283  0.4467 -0.7039  0.4637
 8407SOL     OW26671   8.794   8.526   4.543  0.5191  0.0468 -0.0211
 8407SOL    HW126672   8.743   8.517   4.624  0.1357  0.1148 -0.2539
 8407SOL    HW226673   8.760   8.606   4.503 -0.8197 -1.1104 -1.3283
 8408SOL     OW26674   5.090   3.447   8.392 -0.4831 -0.9268  0.3264
 8408SOL    HW126675   5.090   3.524   8.336  0.6898 -0.1886  1.2943
 8408SOL    HW226676   5.026   3.467   8.461  0.0841 -0.6654  0.7771
 8409SOL     OW26677   8.356   0.270   1.104  0.4384  0.3399 -0.4121
 8409SOL    HW126678   8.384   0.212   1.034 -1.2174 -0.7892 -0.2112
 8409SOL    HW226679   8.332   0.351   1.060  0.0771 -0.1204 -1.0751
 8410SOL     OW26680   6.346   6.676   3.930 -0.1639 -0.0055 -0.4986
 8410SOL    HW126681   6.397   6.707   3.855 -0.8530 -0.3573 -1.1232
 8410SOL    HW226682   6.396   6.601   3.963 -0.2915 -0.3834 -1.1406
 8411SOL     OW26683   3.970   8.177   6.652 -0.8909 -0.7885  0.0928
 8411SOL    HW126684   3.916   8.104   6.683 -1.8943  0.5756  1.7072
 8411SOL    HW226685   3.964   8.243   6.721  2.0804 -0.1643 -0.0891
 8412SOL     OW26686   7.547   0.330   0.392  0.2522  0.2242  0.2845
 8412SOL    HW126687   7.542   0.394   0.321 -1.5786 -0.1326  0.0285
 8412SOL    HW226688   7.463   0.284   0.388  1.5046 -2.2400  0.4465
 8413SOL     OW26689   5.268   3.078   8.005 -0.1049 -0.0422 -0.1661
 8413SOL    HW126690   5.347   3.124   7.979 -1.0785  0.7525 -1.8948
 8413SOL    HW226691   5.234   3.128   8.079  0.6221 -0.0033  0.1532
 8414SOL     OW26692   8.411   2.375   3.399  0.3567  0.0860 -0.9565
 8414SOL    HW126693   8.495   2.328   3.401  0.6021  0.4798  1.9136
 8414SOL    HW226694   8.436   2.467   3.408 -0.3794  0.1814  0.2528
 8415SOL     OW26695   2.166   0.030   3.050  0.0365 -0.1461  0.1484
 8415SOL    HW126696   2.170  -0.037   3.119  0.9922  1.3686  1.6383
 8415SOL    HW226697   2.257   0.050   3.030 -0.2072  1.5112  0.5725
 8416SOL     OW26698   5.993   4.609   6.850 -0.0893  0.2469 -0.2422
 8416SOL    HW126699   5.933   4.675   6.884 -0.9810 -0.5041 -0.3300
 8416SOL    HW226700   5.939   4.552   6.795  0.6950 -0.4554 -0.3141
 8417SOL     OW26701   4.919   8.443   2.815  0.3794  0.0784 -0.3931
 8417SOL    HW126702   4.854   8.513   2.817  0.9548  0.6112  0.7829
 8417SOL    HW226703   4.921   8.409   2.904  0.8238 -0.7730 -0.7179
 8418SOL     OW26704   6.753   7.090   0.754 -0.1493  0.1709  0.6211
 8418SOL    HW126705   6.721   7.000   0.763  0.0600  0.1437  1.1139
 8418SOL    HW226706   6.718   7.119   0.670 -0.0306 -0.4467  0.3500
 8419SOL     OW26707   7.154   5.825   8.597  0.2530 -0.9410 -0.3159
 8419SOL    HW126708   7.126   5.911   8.565 -0.7984 -0.8201  0.8574
 8419SOL    HW226709   7.169   5.774   8.518 -1.3658 -0.3750 -1.0303
 8420SOL     OW26710   2.473   6.934   5.375  0.1513  0.2808 -0.1751
 8420SOL    HW126711   2.403   6.931   5.310 -0.6983  1.0219  0.6688
 8420SOL    HW226712   2.442   6.877   5.446 -0.0698  1.3442  0.6204
 8421SOL     OW26713   6.466   6.052   8.337  0.0457  0.2587  0.3182
 8421SOL    HW126714   6.522   6.127   8.357 -2.4758  2.4546 -0.4130
 8421SOL    HW226715   6.483   6.033   8.245 -0.5027  0.9836  0.0704
 8422SOL     OW26716   8.381   0.766   5.240 -0.5563  0.2960 -0.1100
 8422SOL    HW126717   8.407   0.734   5.154  1.6921  1.5745  0.0405
 8422SOL    HW226718   8.407   0.858   5.241  0.6892 -0.0010  2.3682
 8423SOL     OW26719   4.086   7.893   0.615  0.1236  0.1096  0.4061
 8423SOL    HW126720   4.084   7.982   0.580 -0.3189 -0.9592 -2.6127
 8423SOL    HW226721   3.998   7.878   0.648 -1.0305 -0.3449 -2.5576
 8424SOL     OW26722   2.762   0.455   3.065 -0.0593 -0.4617 -0.0734
 8424SOL    HW126723   2.845   0.496   3.090 -0.1349  0.4560 -1.2606
 8424SOL    HW226724   2.757   0.466   2.970 -0.7970 -1.9448 -0.2374
 8425SOL     OW26725   4.606   7.235   5.792 -0.0066  0.4577  0.3912
 8425SOL    HW126726   4.511   7.232   5.801 -0.1898  0.1795 -1.2276
 8425SOL    HW226727   4.625   7.175   5.719  1.1682  2.0583 -0.6957
 8426SOL     OW26728   7.260   5.781   4.292  0.5014 -0.5451 -0.0208
 8426SOL    HW126729   7.249   5.729   4.212  0.7330  0.3931 -0.6817
 8426SOL    HW226730   7.348   5.759   4.322  1.3484  0.8365 -1.3515
 8427SOL     OW26731   6.921   1.189   5.580  0.0330  0.1252 -0.1017
 8427SOL    HW126732   6.902   1.174   5.488 -0.6752  0.8832 -0.0838
 8427SOL    HW226733   6.993   1.252   5.580  0.9539 -0.8927 -0.1371
 8428SOL     OW26734   4.796   5.163   2.452 -0.2937 -0.1398 -0.3473
 8428SOL    HW126735   4.741   5.238   2.427  1.5776  1.4592  0.0349
 8428SOL    HW226736   4.763   5.136   2.537 -1.0378  0.2183 -0.5137
 8429SOL     OW26737   3.467   0.632   2.970 -0.4402 -0.4526  0.0726
 8429SOL    HW126738   3.453   0.691   2.895  1.0499 -0.8310 -0.5549
 8429SOL    HW226739   3.542   0.671   3.016 -0.8369 -0.6730  0.9102
 8430SOL     OW26740   9.164   8.792   4.330  0.4178  0.4460  0.3294
 8430SOL    HW126741   9.250   8.761   4.359 -0.1121 -0.7975  0.6371
 8430SOL    HW226742   9.121   8.714   4.294 -0.9771  0.7845  1.1709
 8431SOL     OW26743   2.138   4.826   4.536 -0.2045  0.1345 -0.8100
 8431SOL    HW126744   2.193   4.854   4.463  0.8765  0.6248  0.1521
 8431SOL    HW226745   2.175   4.872   4.612 -0.5473 -1.2572  0.2394
 8432SOL     OW26746   3.127   7.958   4.469  0.2547 -0.4456  0.0934
 8432SOL    HW126747   3.041   7.929   4.501  0.5284 -1.7369 -0.2663
 8432SOL    HW226748   3.163   7.881   4.425  0.4050  0.9115 -2.3006
 8433SOL     OW26749   4.303   1.616   5.392  0.2542 -0.5719 -0.4032
 8433SOL    HW126750   4.231   1.656   5.343 -0.0580 -1.1621 -0.4394
 8433SOL    HW226751   4.294   1.650   5.481 -1.3189 -2.1608  0.1190
 8434SOL     OW26752   6.850   2.601   4.911 -0.1647  0.5957 -0.0225
 8434SOL    HW126753   6.877   2.691   4.926  0.7027  0.5895 -1.4007
 8434SOL    HW226754   6.862   2.587   4.817 -0.0811 -1.0179  0.1917
 8435SOL     OW26755   8.359   2.891   4.125  0.1185 -0.6002 -0.2002
 8435SOL    HW126756   8.374   2.929   4.211 -0.2668 -1.1299  0.1053
 8435SOL    HW226757   8.387   2.959   4.064  1.2324 -0.5659  0.3363
 8436SOL     OW26758   5.223   2.798   8.080 -1.0487  0.2532 -0.8529
 8436SOL    HW126759   5.206   2.884   8.041  0.1262  0.3428 -1.1978
 8436SOL    HW226760   5.280   2.754   8.018 -1.1474 -0.5483 -0.3868
 8437SOL     OW26761   5.805   0.841   2.906 -0.0719 -0.1190  0.1329
 8437SOL    HW126762   5.772   0.884   2.985  0.7938 -2.0020  1.5885
 8437SOL    HW226763   5.768   0.753   2.909  0.4596 -0.4169 -1.2773
 8438SOL     OW26764   3.421   6.925   0.591  0.5648  0.4494 -0.3156
 8438SOL    HW126765   3.470   7.007   0.597  0.6433  0.4307 -0.6864
 8438SOL    HW226766   3.356   6.931   0.661  0.4997  0.8755 -0.4070
 8439SOL     OW26767   9.189   7.522   5.178 -0.1172  0.4586  0.6213
 8439SOL    HW126768   9.271   7.506   5.224 -0.7128  0.6131  1.7666
 8439SOL    HW226769   9.189   7.616   5.162  0.8135  0.2044 -1.1498
 8440SOL     OW26770   3.407   4.185   7.291  0.0812  0.1075 -0.0652
 8440SOL    HW126771   3.317   4.207   7.270  0.5199  0.6055 -1.5002
 8440SOL    HW226772   3.418   4.096   7.258 -0.1733 -0.3562  1.0571
 8441SOL     OW26773   3.581   3.898   1.669  0.5805  0.7077 -0.5140
 8441SOL    HW126774   3.498   3.939   1.695  1.4665  2.3673 -0.1712
 8441SOL    HW226775   3.557   3.808   1.646 -1.0830  0.7389  0.9099
 8442SOL     OW26776   4.422   2.624   1.296 -0.2467 -0.6826  0.3789
 8442SOL    HW126777   4.509   2.614   1.258 -0.0193 -0.2077  0.7718
 8442SOL    HW226778   4.386   2.702   1.254 -0.2800 -0.5830  0.5891
 8443SOL     OW26779   5.439   7.049   1.177 -0.0652  0.4187  0.3242
 8443SOL    HW126780   5.510   7.058   1.240  0.1585 -2.0677  0.4980
 8443SOL    HW226781   5.361   7.035   1.230  0.1916 -2.1306  0.1563
 8444SOL     OW26782   0.838   2.338   6.077  0.2411 -0.3607 -0.4041
 8444SOL    HW126783   0.871   2.421   6.114 -1.0807  0.0025  0.0273
 8444SOL    HW226784   0.754   2.325   6.121 -0.2813 -1.1470 -1.5964
 8445SOL     OW26785   4.004   1.164   7.865  0.3594 -0.8036  0.4900
 8445SOL    HW126786   4.001   1.187   7.772  1.2415  0.2977  0.7159
 8445SOL    HW226787   3.985   1.070   7.867 -1.5595 -0.4824 -0.6329
 8446SOL     OW26788   5.372   3.109   7.104  0.5634 -0.2412  0.8144
 8446SOL    HW126789   5.360   3.087   7.196 -1.3386  0.8614  0.8930
 8446SOL    HW226790   5.310   3.053   7.058  0.8220 -0.1094  0.2986
 8447SOL     OW26791   1.417   5.206   1.276  0.1003 -0.1553  0.5562
 8447SOL    HW126792   1.368   5.133   1.314  0.8000 -0.8078  0.2145
 8447SOL    HW226793   1.471   5.166   1.208 -1.8367  1.1086 -1.8897
 8448SOL     OW26794   5.424   1.336   7.864  0.0789  0.1002 -0.2320
 8448SOL    HW126795   5.367   1.269   7.826  1.3499  0.2872 -2.6342
 8448SOL    HW226796   5.432   1.311   7.956 -2.8655 -0.5993 -0.0465
 8449SOL     OW26797   5.439   3.316   2.135 -0.1273  0.0725 -0.2748
 8449SOL    HW126798   5.411   3.373   2.064 -0.0235 -1.6661 -1.7676
 8449SOL    HW226799   5.361   3.305   2.190 -0.5453  0.4780 -0.7804
 8450SOL     OW26800   1.236   0.639   1.987 -0.2167  0.1204  0.2661
 8450SOL    HW126801   1.330   0.644   2.005 -0.1928 -2.0963  1.0308
 8450SOL    HW226802   1.227   0.565   1.926 -1.4430  0.5643 -0.1241
 8451SOL     OW26803   3.212   8.575   1.177  0.0942 -0.7204  0.0259
 8451SOL    HW126804   3.230   8.563   1.270  1.2051  1.0760  0.0786
 8451SOL    HW226805   3.290   8.618   1.142 -0.6228 -0.6387 -1.5771
 8452SOL     OW26806   8.126   3.244   3.281  0.6558  0.2425 -0.3476
 8452SOL    HW126807   8.083   3.325   3.255 -0.2602 -0.4622 -1.1319
 8452SOL    HW226808   8.203   3.272   3.330  0.9124  1.5948 -1.4600
 8453SOL     OW26809   8.517   1.664   4.914 -0.0836 -0.0657  0.3825
 8453SOL    HW126810   8.480   1.745   4.947  0.4600  0.7762 -0.9926
 8453SOL    HW226811   8.471   1.595   4.962 -3.2379  0.8960 -1.0237
 8454SOL     OW26812   5.927   6.122   2.704 -0.9575 -0.0791  0.1757
 8454SOL    HW126813   5.849   6.176   2.691 -0.2521  0.9539  0.1257
 8454SOL    HW226814   5.912   6.078   2.788 -2.0189 -0.6699 -0.2990
 8455SOL     OW26815   9.018   6.039   4.263  0.6290  0.1687 -0.3899
 8455SOL    HW126816   9.086   6.098   4.233 -1.2033  1.8909 -1.3710
 8455SOL    HW226817   9.015   5.970   4.196 -0.5958  1.7379 -2.0527
 8456SOL     OW26818   8.480   2.731   9.230  0.0336  0.3849 -0.2588
 8456SOL    HW126819   8.410   2.768   9.284  0.0506  0.0025  0.0306
 8456SOL    HW226820   8.495   2.644   9.267 -1.6761 -0.9255 -2.4495
 8457SOL     OW26821   1.374   8.152   3.331 -0.0602 -0.0958 -0.4301
 8457SOL    HW126822   1.337   8.232   3.367  0.0591 -1.1053  2.1846
 8457SOL    HW226823   1.373   8.090   3.405 -0.0440 -2.4675 -2.2867
 8458SOL     OW26824   8.905   0.687   5.118 -0.1229  0.0477  0.3080
 8458SOL    HW126825   8.821   0.712   5.080  0.0683  1.2013  0.5752
 8458SOL    HW226826   8.895   0.595   5.141  0.3640 -1.3712 -4.1868
 8459SOL     OW26827   2.825   6.650   7.402 -0.2353  0.0545  0.2768
 8459SOL    HW126828   2.742   6.608   7.379  1.3101 -2.5659 -0.8955
 8459SOL    HW226829   2.881   6.638   7.326  1.6158  0.7555  1.4418
 8460SOL     OW26830   2.617   2.448   8.436  0.0577  0.2605 -0.3356
 8460SOL    HW126831   2.573   2.405   8.510 -2.0112  0.3560 -1.4514
 8460SOL    HW226832   2.619   2.541   8.460 -1.2654  0.3917 -0.6962
 8461SOL     OW26833   1.090   0.585   1.010  0.3798  0.1997  0.3665
 8461SOL    HW126834   1.055   0.510   0.962  0.6282  0.7863 -0.7664
 8461SOL    HW226835   1.033   0.658   0.985  0.1990  0.4094  1.3777
 8462SOL     OW26836   7.715   2.274   4.907  0.3657  0.2944 -0.2271
 8462SOL    HW126837   7.719   2.198   4.850 -1.2058 -0.7675  0.9692
 8462SOL    HW226838   7.700   2.237   4.994 -0.3899  1.9765  0.3956
 8463SOL     OW26839   1.879   0.709   1.325 -0.1982 -0.6450  0.2008
 8463SOL    HW126840   1.843   0.769   1.260  1.2688 -0.3263 -0.3407
 8463SOL    HW226841   1.910   0.765   1.395  0.3216 -0.8378  0.1236
 8464SOL     OW26842   8.345   3.788   2.907  0.2052 -0.2669  0.6548
 8464SOL    HW126843   8.390   3.814   2.988  1.3913  0.7825 -0.3003
 8464SOL    HW226844   8.371   3.854   2.843 -1.6285 -0.4265 -0.3097
 8465SOL     OW26845   2.917   0.925   2.947  0.1910 -0.4434  0.2600
 8465SOL    HW126846   2.983   0.995   2.947  0.3230 -0.5553 -0.7433
 8465SOL    HW226847   2.839   0.965   2.909  0.9400 -1.4000 -2.5230
 8466SOL     OW26848   8.994   3.030   0.547  0.1979 -0.1355  0.1535
 8466SOL    HW126849   8.941   3.051   0.624 -2.2549 -2.5804 -0.7179
 8466SOL    HW226850   9.083   3.022   0.581 -0.9408 -2.2856  3.0545
 8467SOL     OW26851   7.357   8.207   8.866  0.2768 -0.4073 -0.2818
 8467SOL    HW126852   7.319   8.121   8.847 -1.1610  0.1164  0.1105
 8467SOL    HW226853   7.302   8.243   8.936  0.7222  0.9260 -0.5828
 8468SOL     OW26854   5.351   1.851   2.765 -0.0444 -0.3955  0.3072
 8468SOL    HW126855   5.398   1.770   2.743  1.7376  0.4016  0.9261
 8468SOL    HW226856   5.344   1.898   2.682 -2.0153 -1.5761 -0.2605
 8469SOL     OW26857   8.612   2.951   4.940 -0.1776 -0.1677  0.4774
 8469SOL    HW126858   8.647   2.900   4.867  1.1375 -1.2556  1.8039
 8469SOL    HW226859   8.628   3.042   4.916  2.3869 -0.5705  0.3679
 8470SOL     OW26860   0.175   5.286   3.800  0.1156 -0.0487  0.3739
 8470SOL    HW126861   0.258   5.277   3.753  0.6141 -0.0126  1.2194
 8470SOL    HW226862   0.198   5.268   3.891 -0.4037  1.8595  0.9422
 8471SOL     OW26863   3.519   8.355   9.055 -0.3534  0.1307  0.6038
 8471SOL    HW126864   3.492   8.339   8.965 -1.2046  0.7480  0.7338
 8471SOL    HW226865   3.437   8.348   9.106 -0.1246  1.1198  1.1398
 8472SOL     OW26866   1.426   2.757   3.641  0.3443  0.6742 -0.7159
 8472SOL    HW126867   1.357   2.703   3.601  1.6312 -0.5274 -1.4325
 8472SOL    HW226868   1.381   2.834   3.674 -1.1009  0.7701 -2.7470
 8473SOL     OW26869   1.907   4.610   8.834  0.3748 -0.2103 -0.6250
 8473SOL    HW126870   1.939   4.570   8.915  0.6127 -0.4976 -0.8581
 8473SOL    HW226871   1.823   4.650   8.859  1.3963  1.5110  0.2653
 8474SOL     OW26872   7.642   2.791   3.246  0.3996  0.5701  0.1914
 8474SOL    HW126873   7.691   2.748   3.317  0.0863  0.6013  0.4290
 8474SOL    HW226874   7.612   2.873   3.285 -1.3611 -0.2417  0.6294
 8475SOL     OW26875   4.328   8.031   6.982 -0.1408  0.3763  0.0837
 8475SOL    HW126876   4.261   8.008   6.916  0.6640  2.9483 -1.7863
 8475SOL    HW226877   4.405   7.981   6.955  0.3579  1.8357 -1.4124
 8476SOL     OW26878   4.706   8.162   8.151  1.0326 -0.1914  0.0840
 8476SOL    HW126879   4.626   8.112   8.167  1.6811 -1.0675  0.7403
 8476SOL    HW226880   4.690   8.247   8.190 -0.7261  0.7619 -2.5147
 8477SOL     OW26881   0.465   0.433   1.348 -0.4091  0.0699 -0.3464
 8477SOL    HW126882   0.407   0.361   1.324 -0.4571 -0.5776  1.5675
 8477SOL    HW226883   0.416   0.512   1.324 -1.4603 -0.4944 -0.1477
 8478SOL     OW26884   1.766   6.597   4.045 -0.2022 -0.3971 -0.1470
 8478SOL    HW126885   1.833   6.638   4.100  0.4992  1.5573 -2.3103
 8478SOL    HW226886   1.809   6.519   4.010 -0.0191 -0.6383  0.5871
 8479SOL     OW26887   8.905   7.757   7.106 -0.1639  0.3038 -0.3351
 8479SOL    HW126888   8.909   7.666   7.136  1.0573  0.1892 -0.7938
 8479SOL    HW226889   8.813   7.782   7.119 -0.6109 -1.1126 -0.5665
 8480SOL     OW26890   3.067   7.016   2.123 -0.0748  0.0110  0.0810
 8480SOL    HW126891   3.073   7.094   2.068 -1.8068  0.5069  0.5287
 8480SOL    HW226892   3.094   7.046   2.210 -1.8104  0.4665  0.5153
 8481SOL     OW26893   1.820   2.375   7.053 -0.4239  0.5691  0.4736
 8481SOL    HW126894   1.846   2.455   7.007  1.9436  0.0020  0.7389
 8481SOL    HW226895   1.784   2.319   6.984  2.1517  0.1201 -0.6268
 8482SOL     OW26896   6.451   8.202   1.039 -0.3495  0.0915  0.1985
 8482SOL    HW126897   6.506   8.273   1.074  0.6085 -0.9208  0.8184
 8482SOL    HW226898   6.453   8.216   0.944 -1.5963  1.8829  0.3791
 8483SOL     OW26899   9.053   9.164   0.008  0.3552 -0.4391 -0.8560
 8483SOL    HW126900   9.003   9.234  -0.035 -1.1400  0.1938  1.7039
 8483SOL    HW226901   8.993   9.090   0.011  0.8587 -0.8522 -0.8942
 8484SOL     OW26902   0.872   0.195   0.429 -0.1234  0.2306  0.5134
 8484SOL    HW126903   0.812   0.155   0.493 -2.3927  2.2563 -0.2057
 8484SOL    HW226904   0.897   0.278   0.469 -0.3787  0.8421 -0.5641
 8485SOL     OW26905   0.855   6.104   7.143  0.3650 -0.5363  0.4146
 8485SOL    HW126906   0.931   6.068   7.098  0.7780  0.0674  0.6245
 8485SOL    HW226907   0.791   6.120   7.073  0.7792 -0.1580  0.1185
 8486SOL     OW26908   7.464   5.218   1.709  0.0359  0.2413  0.1297
 8486SOL    HW126909   7.399   5.230   1.779 -0.3568 -0.6198 -0.0782
 8486SOL    HW226910   7.528   5.288   1.724 -0.4796  0.5724  0.8569
 8487SOL     OW26911   0.460   7.822   3.982 -0.2783  0.1044  0.0332
 8487SOL    HW126912   0.381   7.831   3.928 -0.0706  0.5148 -0.2097
 8487SOL    HW226913   0.489   7.732   3.968  0.7714  0.6861 -1.9536
 8488SOL     OW26914   2.167   6.545   7.725 -0.1585  0.1559  0.1712
 8488SOL    HW126915   2.135   6.635   7.737 -0.5838 -0.0654  0.7501
 8488SOL    HW226916   2.104   6.491   7.773 -0.9011 -0.6204 -1.5879
 8489SOL     OW26917   5.010   3.512   1.679 -0.1822 -0.1305 -0.2819
 8489SOL    HW126918   5.040   3.439   1.735  2.3973  1.0780  0.0658
 8489SOL    HW226919   4.915   3.507   1.683 -0.1007 -1.6895  2.1244
 8490SOL     OW26920   7.703   2.803   7.939 -0.0002 -0.6151 -0.4036
 8490SOL    HW126921   7.778   2.820   7.882  0.8836 -0.8253  0.6587
 8490SOL    HW226922   7.677   2.713   7.920  0.8017 -0.9585  0.0793
 8491SOL     OW26923   5.520   4.473   2.250 -0.0056  0.4070 -0.1844
 8491SOL    HW126924   5.425   4.462   2.251  0.2355 -2.4608  0.9462
 8491SOL    HW226925   5.548   4.452   2.339  1.5927  3.4231  0.1782
 8492SOL     OW26926   1.698   6.092   5.663  0.3981  0.1768 -0.1236
 8492SOL    HW126927   1.773   6.082   5.604  0.0369  0.2508 -0.6000
 8492SOL    HW226928   1.730   6.061   5.748 -0.0872 -3.3703 -1.0627
 8493SOL     OW26929   9.161   2.433   6.438 -0.7419 -0.2280  0.2554
 8493SOL    HW126930   9.113   2.382   6.502  1.4365 -0.5732  1.7313
 8493SOL    HW226931   9.243   2.385   6.424 -0.0376  1.1734 -0.8273
 8494SOL     OW26932   2.080   2.941   6.135 -0.1260 -0.2300 -0.2736
 8494SOL    HW126933   2.071   2.866   6.076  2.3262 -0.2332 -0.7337
 8494SOL    HW226934   2.089   3.016   6.078 -0.6868  0.1794  0.1637
 8495SOL     OW26935   3.075   0.571   4.779 -0.1172  0.2604  0.1792
 8495SOL    HW126936   3.101   0.491   4.734 -1.8826 -0.6022  0.5996
 8495SOL    HW226937   3.130   0.574   4.857 -0.4795 -0.9073  0.4931
 8496SOL     OW26938   6.487   9.089   6.818 -0.6476 -0.3139 -0.5068
 8496SOL    HW126939   6.512   9.132   6.736 -1.9703 -0.7603 -1.1774
 8496SOL    HW226940   6.557   9.112   6.880  0.0369  0.5722 -1.5728
 8497SOL     OW26941   6.265   6.510   2.597 -0.6851 -0.0512 -0.0428
 8497SOL    HW126942   6.314   6.430   2.578 -1.5749 -0.5406 -0.2986
 8497SOL    HW226943   6.317   6.554   2.664  0.5581 -0.1432 -0.8960
 8498SOL     OW26944   8.546   0.832   0.910  0.5079 -0.2705  0.2365
 8498SOL    HW126945   8.454   0.816   0.886  0.7950  0.7918 -1.7553
 8498SOL    HW226946   8.541   0.905   0.973  0.0005  0.1898 -0.3150
 8499SOL     OW26947   4.120   5.814   9.080  0.7635  0.1280 -0.4210
 8499SOL    HW126948   4.137   5.726   9.047  2.1660  0.4370 -0.5922
 8499SOL    HW226949   4.075   5.859   9.007 -0.7847 -0.6739 -0.0091
 8500SOL     OW26950   2.353   4.712   6.483  0.2074  0.4912 -0.0502
 8500SOL    HW126951   2.415   4.731   6.412  0.6952 -1.0694 -0.0796
 8500SOL    HW226952   2.282   4.663   6.441 -0.7848  1.7553  0.0973
 8501SOL     OW26953   2.992   7.750   4.851  0.3847 -0.2115  0.0308
 8501SOL    HW126954   2.956   7.822   4.799 -1.3994 -1.2607 -0.2457
 8501SOL    HW226955   3.018   7.791   4.934 -1.6407  0.5746  0.3160
 8502SOL     OW26956   2.710   2.288   3.548 -0.6470 -0.1883  0.1119
 8502SOL    HW126957   2.726   2.243   3.465  2.3121  1.7987 -0.5566
 8502SOL    HW226958   2.654   2.362   3.526  0.0927  0.3069 -0.1300
 8503SOL     OW26959   8.816   2.726   0.140  0.0209  0.3131 -0.0343
 8503SOL    HW126960   8.786   2.815   0.121  1.7246  0.5175 -2.2921
 8503SOL    HW226961   8.895   2.738   0.193  2.3257  0.5173 -3.1897
 8504SOL     OW26962   6.180   3.389   7.819 -0.1747  0.2374 -0.3665
 8504SOL    HW126963   6.195   3.295   7.822  3.1381  0.6771  0.5578
 8504SOL    HW226964   6.262   3.426   7.787 -2.0822  2.7664 -2.9626
 8505SOL     OW26965   4.499   6.231   8.982  0.6963  0.1057 -0.7286
 8505SOL    HW126966   4.526   6.176   8.909  0.5955 -0.4248 -0.3770
 8505SOL    HW226967   4.421   6.188   9.017  1.0063  0.0914 -0.0249
 8506SOL     OW26968   9.209   0.787   8.213  0.3861  0.2836 -0.5361
 8506SOL    HW126969   9.122   0.826   8.204 -0.4424 -1.7397 -2.3111
 8506SOL    HW226970   9.251   0.837   8.283 -1.0883  3.2910 -1.6162
 8507SOL     OW26971   1.180   6.602   6.751  0.0455 -0.6454  0.3060
 8507SOL    HW126972   1.191   6.601   6.656 -2.1455 -2.9624 -0.0405
 8507SOL    HW226973   1.236   6.530   6.782  1.0746  0.3681  0.8428
 8508SOL     OW26974   6.376   0.078   2.161 -0.5025  0.2751 -0.0352
 8508SOL    HW126975   6.289   0.104   2.192 -0.4097 -0.0595  0.5215
 8508SOL    HW226976   6.432   0.083   2.238 -0.1132  0.0998 -0.2997
 8509SOL     OW26977   4.017   0.469   0.831  0.4409 -0.6234  0.0969
 8509SOL    HW126978   3.964   0.532   0.782  1.5154 -0.0370 -0.3476
 8509SOL    HW226979   4.100   0.515   0.848  0.8621 -1.5557  0.6695
 8510SOL     OW26980   3.064   8.930   4.392 -0.2620 -0.2926  0.3175
 8510SOL    HW126981   3.079   8.919   4.298  0.9743 -1.1972  0.5938
 8510SOL    HW226982   3.031   8.845   4.421  1.9370 -0.9412  1.1347
 8511SOL     OW26983   7.813   9.276   1.391  0.2634  0.2080  0.2838
 8511SOL    HW126984   7.874   9.262   1.464  0.9289 -0.3552 -0.3662
 8511SOL    HW226985   7.841   9.359   1.352  0.1432  0.3209  0.4351
 8512SOL     OW26986   5.286   2.750   6.353 -0.6175  0.0476  0.0276
 8512SOL    HW126987   5.219   2.767   6.286 -1.0300 -1.0438  0.1511
 8512SOL    HW226988   5.327   2.835   6.367 -0.4927  0.2991 -1.6522
 8513SOL     OW26989   8.403   6.025   0.262 -0.0537 -0.3912 -0.1622
 8513SOL    HW126990   8.413   6.078   0.182 -1.2144 -0.0009 -0.0655
 8513SOL    HW226991   8.489   5.986   0.275  0.1313 -0.5572 -1.6763
 8514SOL     OW26992   5.665   8.196   0.801 -0.0788 -0.4493  0.0474
 8514SOL    HW126993   5.744   8.192   0.746 -0.5835  0.8271 -0.8135
 8514SOL    HW226994   5.669   8.282   0.843  0.3830 -1.4611  2.2128
 8515SOL     OW26995   7.158   0.101   0.979  0.0369 -0.4353 -0.3372
 8515SOL    HW126996   7.173   0.035   1.047 -0.2829 -0.2525 -0.0858
 8515SOL    HW226997   7.098   0.164   1.019  0.5726  0.1739 -0.4679
 8516SOL     OW26998   0.608   8.769   3.002  0.0704 -0.2307 -0.0335
 8516SOL    HW126999   0.642   8.679   2.999  1.0086  0.0725  0.8651
 8516SOL    HW227000   0.551   8.776   2.925  0.8795 -1.2412 -0.7548
 8517SOL     OW27001   4.754   8.276   5.983  0.0343  0.2920  0.0951
 8517SOL    HW127002   4.830   8.228   5.948 -0.8030 -0.6978 -0.4119
 8517SOL    HW227003   4.746   8.353   5.926  0.9247  0.6597  0.4403
 8518SOL     OW27004   5.552   0.440   7.876  0.0378 -0.1614  0.5666
 8518SOL    HW127005   5.472   0.452   7.824 -0.4429  1.8936  1.6660
 8518SOL    HW227006   5.536   0.360   7.925 -2.1651  1.0443  2.0187
 8519SOL     OW27007   3.686   6.875   5.050 -0.0401 -0.5901 -0.7445
 8519SOL    HW127008   3.671   6.959   5.009 -1.9715 -1.0242 -1.0279
 8519SOL    HW227009   3.731   6.823   4.983 -1.3116 -0.6378 -1.5911
 8520SOL     OW27010   4.131   8.907   0.419  0.1145  0.3791 -0.4351
 8520SOL    HW127011   4.084   8.826   0.397 -1.0921  0.9825 -0.1950
 8520SOL    HW227012   4.068   8.977   0.401  1.8195  1.4620 -2.6410
 8521SOL     OW27013   5.844   5.949   1.660  0.1857  0.3287  0.3543
 8521SOL    HW127014   5.902   5.946   1.736 -0.7219 -2.2802  1.0669
 8521SOL    HW227015   5.876   5.880   1.602 -1.9525 -1.0219  0.6624
 8522SOL     OW27016   3.250   1.500   5.914 -0.6170 -0.0494  0.3432
 8522SOL    HW127017   3.287   1.463   5.834 -2.5904  0.0565 -0.6921
 8522SOL    HW227018   3.279   1.591   5.913  0.1142 -0.2815  0.2234
 8523SOL     OW27019   8.400   8.725   5.275  0.8218 -0.3220 -0.2020
 8523SOL    HW127020   8.316   8.684   5.295  1.3176 -0.8913  0.8010
 8523SOL    HW227021   8.399   8.738   5.180  1.1151 -3.8051 -0.8212
 8524SOL     OW27022   6.649   5.587   6.515  0.0798  0.7687  0.2112
 8524SOL    HW127023   6.633   5.520   6.581 -0.7142  0.2469 -0.4778
 8524SOL    HW227024   6.562   5.622   6.496  0.2025  0.5023 -0.9599
 8525SOL     OW27025   5.707   1.399   0.302 -0.3948  0.3750  0.0703
 8525SOL    HW127026   5.712   1.467   0.369  0.5055 -0.4246  0.8677
 8525SOL    HW227027   5.615   1.373   0.301 -0.2494 -0.3831  1.8721
 8526SOL     OW27028   8.169   0.448   3.890 -0.0924  0.6296 -0.1562
 8526SOL    HW127029   8.202   0.506   3.959  2.6661 -0.5611 -0.3376
 8526SOL    HW227030   8.144   0.368   3.937  2.5089 -0.4677 -0.5178
 8527SOL     OW27031   8.417   7.762   7.984  0.1424 -0.3426  0.5087
 8527SOL    HW127032   8.408   7.742   7.891  1.3849  0.3728  0.2210
 8527SOL    HW227033   8.460   7.684   8.021  0.2393 -0.3588  0.3641
 8528SOL     OW27034   1.400   0.651   2.471 -0.0300 -0.1813  0.1093
 8528SOL    HW127035   1.392   0.556   2.478  1.9175 -0.6083 -2.1267
 8528SOL    HW227036   1.336   0.675   2.404  0.7301 -0.1942 -0.6292
 8529SOL     OW27037   7.109   1.461   5.257  0.3909 -0.4309  0.4580
 8529SOL    HW127038   7.171   1.423   5.194  0.2920 -0.9695  0.6728
 8529SOL    HW227039   7.150   1.542   5.287  0.0367  0.3013 -0.9573
 8530SOL     OW27040   6.533   1.250   2.680  0.0432 -0.4097 -0.0592
 8530SOL    HW127041   6.563   1.249   2.771 -1.2989  1.6290  0.4734
 8530SOL    HW227042   6.440   1.231   2.685 -0.1214  0.1115 -0.9520
 8531SOL     OW27043   0.154   8.745   4.415 -0.1018  0.2897 -0.3702
 8531SOL    HW127044   0.236   8.793   4.424  0.6398 -0.7105 -1.5057
 8531SOL    HW227045   0.174   8.657   4.449 -0.6125 -0.0551 -0.9486
 8532SOL     OW27046   7.081   0.141   2.337  0.3964  0.0822 -0.4236
 8532SOL    HW127047   7.094   0.128   2.431  0.8229  0.2354 -0.4591
 8532SOL    HW227048   7.001   0.192   2.331  0.2842 -0.0562 -0.1494
 8533SOL     OW27049   4.311   2.247   5.612  0.2211 -0.1222  0.2471
 8533SOL    HW127050   4.291   2.270   5.703  0.1421  0.6054  0.0522
 8533SOL    HW227051   4.345   2.157   5.617  1.7902  0.4839  1.1866
 8534SOL     OW27052   8.563   2.583   8.878 -0.2092  0.2489  0.3384
 8534SOL    HW127053   8.578   2.677   8.883 -0.2186  0.2932 -0.4000
 8534SOL    HW227054   8.611   2.555   8.800 -0.6821 -0.2641  0.2281
 8535SOL     OW27055   5.693   4.485   6.531 -0.0643  0.6105  0.2700
 8535SOL    HW127056   5.691   4.466   6.437 -0.5805  0.0676  0.3855
 8535SOL    HW227057   5.619   4.545   6.545 -0.0184  0.6513  0.3384
 8536SOL     OW27058   2.264   2.508   2.414 -0.8552 -0.0232  0.2391
 8536SOL    HW127059   2.269   2.595   2.374 -2.1916  0.4871  1.0953
 8536SOL    HW227060   2.350   2.496   2.455 -0.9338  1.2693  0.8386
 8537SOL     OW27061   5.287   8.132   8.836 -0.4279 -0.0301 -0.9694
 8537SOL    HW127062   5.279   8.227   8.846 -1.2370 -0.2031  0.2323
 8537SOL    HW227063   5.317   8.120   8.746 -1.9622  1.2882 -1.6999
 8538SOL     OW27064   0.390   2.800   2.541  0.4608  0.2888  0.2430
 8538SOL    HW127065   0.392   2.849   2.459 -0.5123  1.7008  1.0199
 8538SOL    HW227066   0.303   2.758   2.541  1.0358 -0.9604 -0.1160
 8539SOL     OW27067   4.734   0.318   2.630 -0.3088  0.4338 -0.5741
 8539SOL    HW127068   4.703   0.229   2.613 -1.6943  0.5751  0.9758
 8539SOL    HW227069   4.677   0.374   2.578  0.1402  0.4676 -1.0388
 8540SOL     OW27070   1.839   8.496   6.610  0.0902  0.4542  0.5501
 8540SOL    HW127071   1.858   8.411   6.571  1.2295 -0.4514  2.8982
 8540SOL    HW227072   1.924   8.539   6.616 -0.2904  1.2075  0.5983
 8541SOL     OW27073   6.645   5.758   5.640 -0.2938  0.6325  0.1783
 8541SOL    HW127074   6.688   5.778   5.723 -1.2375  0.9565  0.6131
 8541SOL    HW227075   6.557   5.728   5.665 -0.0115 -0.9793 -0.6275
 8542SOL     OW27076   3.954   4.559   2.982  0.1130  1.0092  0.0085
 8542SOL    HW127077   3.969   4.588   3.073 -0.9680 -0.9060  0.8600
 8542SOL    HW227078   3.861   4.537   2.979  0.6410 -1.3755 -0.8028
 8543SOL     OW27079   7.675   6.405   2.890  0.0806  0.1355  0.0041
 8543SOL    HW127080   7.621   6.343   2.939  0.7014 -1.6504 -1.4367
 8543SOL    HW227081   7.653   6.491   2.926 -0.7378 -0.9091  2.1793
 8544SOL     OW27082   8.268   1.725   0.531  0.0606 -0.5698 -0.1010
 8544SOL    HW127083   8.303   1.811   0.508  0.2553 -0.8487 -0.8905
 8544SOL    HW227084   8.342   1.680   0.574 -1.0339  0.8885  3.7652
 8545SOL     OW27085   4.226   8.064   6.492 -0.8153  0.5301 -0.9541
 8545SOL    HW127086   4.310   8.059   6.538 -0.1033  0.4694 -2.2302
 8545SOL    HW227087   4.161   8.072   6.562  0.4436  3.7513  0.0160
 8546SOL     OW27088   6.193   6.586   6.989 -0.2015  0.1359  0.1171
 8546SOL    HW127089   6.102   6.555   6.984  0.0589 -0.9061  1.4354
 8546SOL    HW227090   6.217   6.602   6.897 -1.6497  0.2547 -0.2711
 8547SOL     OW27091   0.673   3.541   4.937  0.3137  0.3958 -0.1699
 8547SOL    HW127092   0.624   3.513   4.859  1.1932 -2.3272  0.1334
 8547SOL    HW227093   0.611   3.529   5.009  0.7033 -1.0272 -0.0341
 8548SOL     OW27094   3.156   4.167   2.831 -0.1875 -0.1998  0.2174
 8548SOL    HW127095   3.140   4.230   2.902  1.7935  0.5566  0.0439
 8548SOL    HW227096   3.249   4.148   2.837 -0.6664 -2.9211  0.0445
 8549SOL     OW27097   2.602   3.279   2.194  0.3872  0.4137 -0.0920
 8549SOL    HW127098   2.651   3.201   2.218 -0.4097 -0.7749 -2.0393
 8549SOL    HW227099   2.649   3.351   2.236  3.4474 -0.7094 -1.3039
 8550SOL     OW27100   8.975   0.915   9.151 -0.4872  0.5054  0.2843
 8550SOL    HW127101   8.999   1.002   9.184 -1.9142  0.7377  0.7825
 8550SOL    HW227102   8.908   0.932   9.086  0.0611 -0.1711 -0.4809
 8551SOL     OW27103   6.718   1.563   0.288  0.2514  0.3508  0.4342
 8551SOL    HW127104   6.795   1.533   0.240  0.4763  0.6718  0.5954
 8551SOL    HW227105   6.662   1.602   0.222  0.8964  1.4816  0.5316
 8552SOL     OW27106   3.622   5.798   0.741 -0.4755  0.4081 -0.6262
 8552SOL    HW127107   3.557   5.767   0.678 -0.1034 -0.5433 -0.5484
 8552SOL    HW227108   3.571   5.824   0.818 -0.6612 -2.7644  0.4681
 8553SOL     OW27109   9.250   3.559   5.076  0.3493  0.1278 -0.0416
 8553SOL    HW127110   9.284   3.484   5.027  2.1058  0.3923  0.6974
 8553SOL    HW227111   9.315   3.628   5.062 -0.1340  0.8278  1.0651
 8554SOL     OW27112   4.414   5.193   6.963  0.4268 -0.3117  0.0037
 8554SOL    HW127113   4.433   5.105   6.995 -0.1567 -0.0793  1.0315
 8554SOL    HW227114   4.322   5.207   6.984  0.1608  0.0701 -1.3114
 8555SOL     OW27115   8.400   2.524   6.655 -0.0571 -0.5555 -0.4040
 8555SOL    HW127116   8.443   2.460   6.599  0.9437 -0.0658 -0.2203
 8555SOL    HW227117   8.456   2.602   6.650  0.7130 -0.8573  2.1497
 8556SOL     OW27118   2.630   7.247   3.503 -0.4878  0.0082 -0.0257
 8556SOL    HW127119   2.578   7.169   3.484  0.0078 -0.4619  0.5042
 8556SOL    HW227120   2.565   7.314   3.526 -0.8439 -0.8094  1.4933
 8557SOL     OW27121   8.620   0.826   0.067  0.3158 -0.8188 -0.4383
 8557SOL    HW127122   8.617   0.754   0.003  0.0560 -1.8103  0.6610
 8557SOL    HW227123   8.713   0.831   0.092  0.4716 -0.2201 -1.1104
 8558SOL     OW27124   6.504   1.812   7.819  0.0208  0.0411 -0.0966
 8558SOL    HW127125   6.555   1.821   7.899 -1.8368  1.7221  1.0274
 8558SOL    HW227126   6.437   1.746   7.841  1.9347 -2.6086 -1.7521
 8559SOL     OW27127   6.466   0.659   6.361  0.3743  0.0409  0.0231
 8559SOL    HW127128   6.424   0.600   6.424  0.7085  1.0151  1.1853
 8559SOL    HW227129   6.499   0.600   6.293  1.5348 -1.2672  1.6085
 8560SOL     OW27130   1.361   1.534   6.355 -0.1988 -0.4136 -0.2339
 8560SOL    HW127131   1.314   1.450   6.354 -1.2008  0.1235 -1.2896
 8560SOL    HW227132   1.340   1.574   6.270 -0.1929  1.1503  0.4646
 8561SOL     OW27133   4.932   1.887   0.808  0.7045 -0.3250  0.5899
 8561SOL    HW127134   4.844   1.882   0.846  0.5019 -1.0349  0.0449
 8561SOL    HW227135   4.984   1.931   0.876  0.0561 -0.3934  1.1487
 8562SOL     OW27136   4.761   5.810   3.293 -0.3970  0.6380  0.2337
 8562SOL    HW127137   4.728   5.758   3.367 -1.3192  0.4733 -0.2809
 8562SOL    HW227138   4.830   5.756   3.256  0.3666  0.9073  1.2193
 8563SOL     OW27139   6.278   2.780   7.635 -0.1195  0.0803 -0.0230
 8563SOL    HW127140   6.220   2.810   7.565 -0.8637 -1.5878 -0.1728
 8563SOL    HW227141   6.221   2.771   7.711  0.7707  2.3331  1.0107
 8564SOL     OW27142   7.847   2.896   6.694 -0.4307  0.5214 -0.1840
 8564SOL    HW127143   7.835   2.983   6.732  0.4859  0.9825 -0.9221
 8564SOL    HW227144   7.901   2.910   6.617  2.5147 -1.0411  1.4104
 8565SOL     OW27145   8.710   4.201   5.868  0.2676  0.3436 -0.2595
 8565SOL    HW127146   8.705   4.160   5.782  2.7675  1.1478 -0.8747
 8565SOL    HW227147   8.804   4.206   5.887 -0.1342  1.9593  1.6484
 8566SOL     OW27148   6.504   4.554   3.928  0.1896 -0.3858  0.2528
 8566SOL    HW127149   6.514   4.594   3.842  3.0324 -1.4035  0.0182
 8566SOL    HW227150   6.541   4.618   3.989 -2.9595  0.9114  1.0238
 8567SOL     OW27151   8.173   7.975   2.859 -0.0230  0.6112 -0.3545
 8567SOL    HW127152   8.166   7.919   2.936  1.9707 -1.1445 -1.3365
 8567SOL    HW227153   8.119   7.933   2.792 -0.3014  1.1189 -0.4574
 8568SOL     OW27154   0.226   0.188   3.724 -0.5813 -0.2134 -0.5212
 8568SOL    HW127155   0.251   0.265   3.672 -0.8084 -0.9894 -1.8251
 8568SOL    HW227156   0.156   0.147   3.673 -0.6316 -1.1596  0.2853
 8569SOL     OW27157   8.767   5.970   5.809 -0.4086 -0.1142  0.6248
 8569SOL    HW127158   8.736   5.965   5.719 -0.9059  0.2938  0.7698
 8569SOL    HW227159   8.778   5.879   5.836  0.5978 -0.2452 -0.1308
 8570SOL     OW27160   1.684   2.970   3.347  0.0849 -0.0318  0.1921
 8570SOL    HW127161   1.613   3.016   3.302  0.5063 -0.3501 -0.8270
 8570SOL    HW227162   1.718   3.033   3.409 -0.6103  0.3766  0.1700
 8571SOL     OW27163   3.145   1.596   1.027  0.2463 -0.3802  0.2039
 8571SOL    HW127164   3.155   1.653   1.103 -0.1858 -0.7472  0.5355
 8571SOL    HW227165   3.234   1.564   1.009  0.1216 -1.6135  1.5839
 8572SOL     OW27166   7.401   4.126   1.127 -0.1841  0.0957  0.6949
 8572SOL    HW127167   7.488   4.155   1.155 -1.3414  1.7575  2.7735
 8572SOL    HW227168   7.414   4.097   1.036  2.6460 -0.3692  1.1456
 8573SOL     OW27169   2.772   7.528   2.094 -0.3297 -0.0832 -0.5331
 8573SOL    HW127170   2.801   7.536   2.185  0.1295  1.8448 -0.8044
 8573SOL    HW227171   2.689   7.479   2.099  1.1285 -2.6438  0.5872
 8574SOL     OW27172   4.659   0.374   4.197 -0.5318  0.5771  0.4556
 8574SOL    HW127173   4.622   0.338   4.278  0.0336 -2.2786 -0.4587
 8574SOL    HW227174   4.584   0.382   4.138 -0.7171  1.2922  0.7784
 8575SOL     OW27175   3.368   2.823   3.426  0.0171  0.0958 -0.0004
 8575SOL    HW127176   3.436   2.880   3.463  1.1360 -1.4109  0.3325
 8575SOL    HW227177   3.386   2.822   3.332 -0.8354  1.3139 -0.2102
 8576SOL     OW27178   6.612   2.131   1.936 -0.3883  0.0899 -0.3175
 8576SOL    HW127179   6.528   2.138   1.982  0.2290  1.0592  0.7098
 8576SOL    HW227180   6.671   2.188   1.986  0.9047 -0.6512 -0.9681
 8577SOL     OW27181   6.409   7.670   3.338 -0.5391 -0.3858 -0.5060
 8577SOL    HW127182   6.471   7.736   3.369 -0.1108 -0.6501 -0.7746
 8577SOL    HW227183   6.327   7.717   3.326 -0.7471 -0.3015  1.1131
 8578SOL     OW27184   1.741   3.474   8.920 -0.0348  0.7402 -0.1781
 8578SOL    HW127185   1.706   3.535   8.985  1.5245  0.5853  0.8668
 8578SOL    HW227186   1.728   3.517   8.836  0.6757  2.3371  0.4997
 8579SOL     OW27187   3.882   5.040   1.999  0.2258  0.0732  0.0776
 8579SOL    HW127188   3.955   5.007   1.947  1.6379  1.0622  1.3005
 8579SOL    HW227189   3.869   5.130   1.967 -0.2147  0.0196  0.1057
 8580SOL     OW27190   3.513   5.133   6.315  0.5946  0.4272 -0.0167
 8580SOL    HW127191   3.526   5.096   6.402  0.0098  0.1614 -0.0355
 8580SOL    HW227192   3.545   5.223   6.322  1.7199  0.0359  0.1176
 8581SOL     OW27193   3.859   6.449   7.943 -0.0366  0.1570  0.0920
 8581SOL    HW127194   3.822   6.372   7.898  0.5315 -0.2141  0.2569
 8581SOL    HW227195   3.852   6.428   8.036 -0.9181  0.7915  0.1802
 8582SOL     OW27196   7.588   2.713   2.982  0.5490 -0.5453 -0.0747
 8582SOL    HW127197   7.654   2.735   2.916  0.6460  0.0774  0.2255
 8582SOL    HW227198   7.608   2.769   3.057  0.6893 -1.5259  0.6514
 8583SOL     OW27199   8.228   8.269   7.153  0.5696  0.3877  0.4713
 8583SOL    HW127200   8.164   8.228   7.211  0.7313 -0.0963  0.3105
 8583SOL    HW227201   8.313   8.250   7.193  0.7198 -0.4192 -0.2015
 8584SOL     OW27202   0.249   0.551   6.225 -0.3441  0.0966 -0.2035
 8584SOL    HW127203   0.315   0.608   6.186 -0.6250  0.6829  0.1636
 8584SOL    HW227204   0.247   0.576   6.317 -1.2083  0.2160 -0.2463
 8585SOL     OW27205   1.363   1.131   5.546 -0.1558  0.1666  0.0232
 8585SOL    HW127206   1.273   1.138   5.514 -1.3078  1.6398  3.2038
 8585SOL    HW227207   1.378   1.214   5.592  1.7574 -1.2267  2.0984
 8586SOL     OW27208   4.227   1.599   8.729  0.5073 -0.0070  0.5386
 8586SOL    HW127209   4.284   1.561   8.795  0.8625 -0.7412 -0.1733
 8586SOL    HW227210   4.287   1.646   8.670  0.2244  0.4329  0.5985
 8587SOL     OW27211   0.428   7.760   3.603  0.6500 -0.1548 -0.0925
 8587SOL    HW127212   0.355   7.730   3.656 -0.1430  1.0186 -0.4680
 8587SOL    HW227213   0.505   7.751   3.659 -0.1876  1.2284  1.3470
 8588SOL     OW27214   4.107   1.550   0.295  0.4138  0.2308  0.4741
 8588SOL    HW127215   4.186   1.603   0.294 -0.1729  1.1482  1.2235
 8588SOL    HW227216   4.132   1.470   0.341  0.7323  0.8016  1.2977
 8589SOL     OW27217   6.518   2.954   1.629 -0.2801  0.2336 -1.2062
 8589SOL    HW127218   6.585   2.991   1.572 -0.1467  0.4234 -0.9277
 8589SOL    HW227219   6.564   2.931   1.709 -0.4634 -0.0543 -1.1826
 8590SOL     OW27220   2.021   8.433   6.956  0.1954 -0.7175  0.1346
 8590SOL    HW127221   1.948   8.398   6.905  0.6117 -0.8470 -0.3733
 8590SOL    HW227222   1.979   8.477   7.030 -0.5746  1.7194 -1.6371
 8591SOL     OW27223   5.288   8.187   0.054 -0.1186 -0.1671 -0.4326
 8591SOL    HW127224   5.210   8.148   0.094 -0.3915  0.8431  0.0558
 8591SOL    HW227225   5.351   8.116   0.050 -0.5315 -0.6149  0.6167
 8592SOL     OW27226   4.585   3.875   0.343 -0.0977 -0.2751 -0.4482
 8592SOL    HW127227   4.535   3.926   0.280  0.6637 -2.6229 -3.1605
 8592SOL    HW227228   4.673   3.869   0.305  0.6316 -1.1364  1.2465
 8593SOL     OW27229   3.392   1.416   4.153 -0.1533  0.2382  0.7021
 8593SOL    HW127230   3.351   1.406   4.067 -1.3724  0.3094  1.2569
 8593SOL    HW227231   3.402   1.327   4.186 -2.0417  0.2999  1.5398
 8594SOL     OW27232   8.313   3.671   3.420  0.0164  0.3780  0.1167
 8594SOL    HW127233   8.292   3.718   3.339  0.9920 -0.4143 -0.6239
 8594SOL    HW227234   8.326   3.740   3.485 -0.5043  1.0397 -0.4653
 8595SOL     OW27235   3.867   1.992   8.251  0.0993 -0.2359 -0.8006
 8595SOL    HW127236   3.861   2.021   8.342  1.9697 -3.0864  0.3692
 8595SOL    HW227237   3.803   1.921   8.244 -0.6696  0.5330 -2.0373
 8596SOL     OW27238   1.341   0.796   6.857  0.0446  0.1112  0.1471
 8596SOL    HW127239   1.262   0.750   6.828 -1.4554  3.2623 -1.2787
 8596SOL    HW227240   1.315   0.888   6.861  3.7441  1.3825 -0.7546
 8597SOL     OW27241   2.456   8.501   5.537 -0.2478 -0.2481  0.2149
 8597SOL    HW127242   2.543   8.523   5.571  0.0227 -0.5546 -0.2605
 8597SOL    HW227243   2.427   8.581   5.494  1.6393 -1.2519 -3.4003
 8598SOL     OW27244   7.484   1.696   7.715  0.1256  0.0507  0.3359
 8598SOL    HW127245   7.541   1.632   7.757  0.8593 -0.2151 -1.0194
 8598SOL    HW227246   7.536   1.776   7.710  0.3367 -0.1421 -0.7492
 8599SOL     OW27247   8.180   2.075   2.765 -0.1840 -0.5854  0.7066
 8599SOL    HW127248   8.184   1.989   2.808  0.0106 -0.6691  0.5259
 8599SOL    HW227249   8.271   2.101   2.755 -0.1557 -1.0872 -0.6723
 8600SOL     OW27250   1.190   7.136   3.208 -0.3557 -0.0934 -0.0382
 8600SOL    HW127251   1.238   7.157   3.127  0.6028  0.1964  0.5911
 8600SOL    HW227252   1.179   7.041   3.205  1.4781 -0.3445  0.4529
 8601SOL     OW27253   1.538   5.267   7.783 -0.0613 -0.8535 -0.3280
 8601SOL    HW127254   1.523   5.344   7.838 -0.9139 -1.0725 -0.2375
 8601SOL    HW227255   1.630   5.246   7.795 -0.0269 -0.3600  0.3177
 8602SOL     OW27256   0.362   4.798   8.963 -0.5282 -0.4702  0.0361
 8602SOL    HW127257   0.360   4.741   9.040 -0.4695 -1.1856 -0.4858
 8602SOL    HW227258   0.324   4.745   8.893 -1.6004  0.5551 -0.1819
 8603SOL     OW27259   2.192   1.288   8.647 -0.0193  0.3430  0.0252
 8603SOL    HW127260   2.234   1.327   8.570 -1.9905  1.4074 -0.5791
 8603SOL    HW227261   2.155   1.363   8.694 -1.4259 -0.5262  0.3720
 8604SOL     OW27262   8.341   0.260   4.615 -0.0662 -0.4901  0.1115
 8604SOL    HW127263   8.331   0.185   4.674 -0.6267 -1.5120 -1.2291
 8604SOL    HW227264   8.413   0.235   4.557 -1.6641 -1.0229 -1.7602
 8605SOL     OW27265   5.978   4.297   3.748  0.6625  0.2039 -0.3090
 8605SOL    HW127266   5.906   4.245   3.713 -0.5595  1.4428  0.2458
 8605SOL    HW227267   6.057   4.260   3.709 -0.3381 -0.7578 -1.4696
 8606SOL     OW27268   2.360   8.426   5.220 -0.2272 -0.0214 -0.1532
 8606SOL    HW127269   2.342   8.335   5.197 -1.7860  0.2068  0.0498
 8606SOL    HW227270   2.396   8.421   5.309 -2.0730 -0.3543  0.6288
 8607SOL     OW27271   1.966   9.112   3.565  0.4972  0.1544  0.8187
 8607SOL    HW127272   2.042   9.113   3.507  0.8120 -0.7656  1.1938
 8607SOL    HW227273   1.892   9.133   3.508  1.0089  0.9684  0.4292
 8608SOL     OW27274   1.312   1.531   1.987 -0.4589 -0.6985 -0.1321
 8608SOL    HW127275   1.326   1.515   1.894  1.2403 -1.0724  0.1529
 8608SOL    HW227276   1.308   1.627   1.994  3.3647 -0.3737 -0.1933
 8609SOL     OW27277   3.537   5.748   6.391  0.0244  0.2081  0.1593
 8609SOL    HW127278   3.534   5.803   6.313  0.3867  1.3319  0.9203
 8609SOL    HW227279   3.630   5.726   6.402 -0.0703 -0.2472  0.0766
 8610SOL     OW27280   0.316   4.242   2.876  0.7230 -0.2463 -0.0856
 8610SOL    HW127281   0.348   4.327   2.847  0.4561  0.0835  0.5810
 8610SOL    HW227282   0.395   4.191   2.894  0.9005  0.4321  1.1817
 8611SOL     OW27283   0.272   7.376   4.034 -0.4340  0.1051 -0.2722
 8611SOL    HW127284   0.275   7.322   3.955  0.0279 -1.5787  0.8550
 8611SOL    HW227285   0.185   7.417   4.031 -1.2172 -1.5029 -0.6799
 8612SOL     OW27286   2.491   8.825   3.202 -0.3443  0.2188  0.1400
 8612SOL    HW127287   2.573   8.837   3.154  0.7611  0.3222  1.9534
 8612SOL    HW227288   2.503   8.875   3.282 -1.9669 -0.2552  0.7134
 8613SOL     OW27289   4.871   1.926   2.595  0.3766  0.5848  0.4066
 8613SOL    HW127290   4.885   1.864   2.525 -3.6228  0.0163 -0.1218
 8613SOL    HW227291   4.895   2.011   2.558  2.4486 -0.1428 -0.0568
 8614SOL     OW27292   2.500   2.202   0.549  0.2543 -0.4487  0.0852
 8614SOL    HW127293   2.531   2.141   0.616 -0.6525 -1.5983 -0.5109
 8614SOL    HW227294   2.437   2.151   0.498 -2.3131  1.6422  0.9547
 8615SOL     OW27295   4.519   9.136   4.633  0.2283  0.4720 -0.5319
 8615SOL    HW127296   4.451   9.094   4.580 -0.8046  0.9910  0.3394
 8615SOL    HW227297   4.484   9.135   4.722  1.3665  0.7735 -0.0653
 8616SOL     OW27298   2.730   3.027   3.600  0.4346  0.3061 -0.0086
 8616SOL    HW127299   2.751   2.936   3.617  0.1070  0.0915 -0.7274
 8616SOL    HW227300   2.743   3.038   3.506 -1.9064  0.3531 -0.3820
 8617SOL     OW27301   3.847   6.024   8.604  0.5575  0.5523 -0.0174
 8617SOL    HW127302   3.838   6.114   8.635 -1.7463  0.3181  0.1032
 8617SOL    HW227303   3.827   5.970   8.680 -1.5237 -0.0323 -0.9271
 8618SOL     OW27304   2.833   5.901   6.357  0.3535  0.3915  0.0050
 8618SOL    HW127305   2.852   5.962   6.286 -0.7520  2.5084  1.4421
 8618SOL    HW227306   2.889   5.930   6.429  2.0972 -2.2467 -0.1490
 8619SOL     OW27307   0.970   5.220   6.572 -0.1054 -0.0898  0.1446
 8619SOL    HW127308   0.948   5.197   6.482 -1.6718  0.5598  0.3243
 8619SOL    HW227309   0.932   5.151   6.626  0.2847 -0.1533  0.3436
 8620SOL     OW27310   9.016   5.953   4.742 -0.0131  0.4369  0.1022
 8620SOL    HW127311   9.001   5.926   4.652 -0.6336 -2.2557  0.9397
 8620SOL    HW227312   9.098   6.003   4.739  0.3310 -0.1714 -1.8341
 8621SOL     OW27313   3.215   5.318   0.599 -0.3515  0.5076  0.0968
 8621SOL    HW127314   3.134   5.267   0.603 -0.7614  0.9947 -1.2774
 8621SOL    HW227315   3.194   5.400   0.642 -0.7595  0.8187 -0.6696
 8622SOL     OW27316   5.998   2.050   3.997  0.4629 -0.3057 -0.1699
 8622SOL    HW127317   6.055   2.127   4.000  0.3829 -0.2565  0.1523
 8622SOL    HW227318   6.026   1.996   4.071  0.1491 -0.3226 -0.0601
 8623SOL     OW27319   4.527   5.205   5.835  0.0312 -0.0823 -0.0295
 8623SOL    HW127320   4.442   5.231   5.799 -0.3753 -0.4248  0.6757
 8623SOL    HW227321   4.506   5.163   5.918  0.9340  0.3395  0.4209
 8624SOL     OW27322   2.384   1.307   9.068  0.4379  0.3840  0.0541
 8624SOL    HW127323   2.339   1.389   9.089 -1.4472 -0.5533 -0.0824
 8624SOL    HW227324   2.385   1.304   8.972  0.0423  0.0159  0.0600
 8625SOL     OW27325   2.698   3.330   7.943  0.1914 -0.4575  0.0280
 8625SOL    HW127326   2.711   3.423   7.964 -2.2233 -0.4227  1.7959
 8625SOL    HW227327   2.650   3.295   8.018 -0.1013 -2.8401 -1.1844
 8626SOL     OW27328   3.808   1.955   9.221 -0.5045  0.0655  0.1853
 8626SOL    HW127329   3.890   1.956   9.171 -0.9569 -1.1726 -0.6140
 8626SOL    HW227330   3.836   1.962   9.313  0.4740  0.0031 -0.0975
 8627SOL     OW27331   3.635   1.501   2.326 -0.5244 -0.0306  0.5976
 8627SOL    HW127332   3.691   1.578   2.316 -3.4954  2.2727  0.4481
 8627SOL    HW227333   3.667   1.459   2.406  1.6129  0.9392  0.3164
 8628SOL     OW27334   7.369   5.789   6.709  0.4045 -0.3155  0.5356
 8628SOL    HW127335   7.349   5.865   6.656  0.1235 -0.2277  0.7694
 8628SOL    HW227336   7.317   5.800   6.788 -1.1284 -1.6920 -0.2183
 8629SOL     OW27337   6.409   6.646   7.451 -0.1681 -0.4472 -0.1182
 8629SOL    HW127338   6.333   6.666   7.396  0.3548 -0.8807 -1.0174
 8629SOL    HW227339   6.484   6.675   7.400  0.4872 -2.8069 -0.6236
 8630SOL     OW27340   8.309   6.812   8.867 -0.1077  0.0149  0.4279
 8630SOL    HW127341   8.223   6.771   8.878 -0.0963 -0.4379 -0.9862
 8630SOL    HW227342   8.371   6.739   8.864  0.3327  0.3354  1.3823
 8631SOL     OW27343   8.004   4.335   3.857  0.0969  0.2779 -0.2775
 8631SOL    HW127344   8.026   4.255   3.810 -0.2088  0.8819 -1.4685
 8631SOL    HW227345   7.977   4.304   3.944  0.9685 -0.8232 -0.3706
 8632SOL     OW27346   1.221   5.510   7.524 -0.2929  0.1616  0.6028
 8632SOL    HW127347   1.228   5.500   7.429  0.4041  3.0598  0.2299
 8632SOL    HW227348   1.128   5.497   7.543 -0.2880 -1.4085 -0.2861
 8633SOL     OW27349   0.644   2.065   0.527 -0.1046  0.0708 -0.0546
 8633SOL    HW127350   0.689   2.030   0.604 -0.2463  0.3574  0.1584
 8633SOL    HW227351   0.612   2.151   0.555 -1.1912 -0.3252 -0.0533
 8634SOL     OW27352   0.927   8.404   8.262 -0.1086  0.0748  0.5085
 8634SOL    HW127353   0.910   8.479   8.319 -0.4434  1.0082 -0.7737
 8634SOL    HW227354   1.019   8.383   8.276 -0.5046 -0.6338  2.4166
 8635SOL     OW27355   8.547   3.735   4.276 -0.0789  0.3821  0.6004
 8635SOL    HW127356   8.560   3.655   4.224 -1.3762 -0.3530  1.3625
 8635SOL    HW227357   8.624   3.789   4.256  1.9167 -1.8867  1.6208
 8636SOL     OW27358   5.671   7.623   6.337 -0.4847 -0.0149 -0.0033
 8636SOL    HW127359   5.694   7.657   6.423  0.7640 -0.7900 -0.0088
 8636SOL    HW227360   5.606   7.555   6.355 -0.6756  0.2343  0.2631
 8637SOL     OW27361   1.644   3.532   7.487 -0.5625  0.1369 -0.2769
 8637SOL    HW127362   1.720   3.496   7.533  0.4600  1.9615 -0.4581
 8637SOL    HW227363   1.656   3.502   7.396 -0.8459 -0.7675 -0.0255
 8638SOL     OW27364   6.752   3.993   5.905  0.4930  0.1099  0.2369
 8638SOL    HW127365   6.846   3.998   5.920  0.7841  2.1385 -1.7063
 8638SOL    HW227366   6.743   3.987   5.810 -1.3425 -2.8642  0.4737
 8639SOL     OW27367   3.370   6.231   3.841  0.0794 -0.1489 -0.0942
 8639SOL    HW127368   3.365   6.205   3.933  1.6799 -2.2982 -0.5212
 8639SOL    HW227369   3.336   6.320   3.839  1.7735  0.7130  2.9102
 8640SOL     OW27370   0.076   7.818   8.044  0.0428 -0.0685 -0.0507
 8640SOL    HW127371   0.015   7.882   8.080 -1.2876 -1.7736  0.8441
 8640SOL    HW227372   0.079   7.837   7.950 -2.7380 -0.5749 -0.3240
 8641SOL     OW27373   2.214   8.426   6.278 -0.4037  0.2117 -0.9871
 8641SOL    HW127374   2.268   8.429   6.199 -0.2265  0.3719 -0.8631
 8641SOL    HW227375   2.169   8.342   6.274 -2.6487  1.3638 -2.7414
 8642SOL     OW27376   3.255   1.412   0.424  0.0999 -0.0605  0.7409
 8642SOL    HW127377   3.215   1.396   0.339  0.0352 -2.5320  1.1600
 8642SOL    HW227378   3.181   1.421   0.484  0.1645  0.2430  0.7797
 8643SOL     OW27379   4.064   0.182   6.648  0.5234 -0.1673  0.0145
 8643SOL    HW127380   4.134   0.171   6.584  0.3045  1.2479 -0.5162
 8643SOL    HW227381   3.985   0.196   6.594 -0.2530 -1.9522  0.5904
 8644SOL     OW27382   9.133   2.702   0.136  0.2338 -0.2050  0.1821
 8644SOL    HW127383   9.148   2.789   0.099 -1.3875  0.3071  0.6385
 8644SOL    HW227384   9.193   2.697   0.210  2.7342 -0.8202 -1.7277
 8645SOL     OW27385   2.839   5.073   1.291  0.3504  0.3631 -0.5314
 8645SOL    HW127386   2.765   5.087   1.350  1.3815 -0.2028  0.9551
 8645SOL    HW227387   2.801   5.030   1.214 -0.6690 -1.3220  0.8462
 8646SOL     OW27388   1.364   5.598   0.839 -0.5299 -0.0463 -0.2221
 8646SOL    HW127389   1.347   5.689   0.862  0.5267  0.1363 -0.1158
 8646SOL    HW227390   1.306   5.581   0.765 -1.0917  0.5579  0.0720
 8647SOL     OW27391   6.271   1.361   1.581  0.4286  0.5182 -0.1235
 8647SOL    HW127392   6.227   1.419   1.519  0.8469  1.3980  0.3873
 8647SOL    HW227393   6.265   1.407   1.665 -0.2665 -0.7284  0.5367
 8648SOL     OW27394   1.454   4.141   0.558 -0.0683 -0.6294  0.1925
 8648SOL    HW127395   1.506   4.072   0.518 -0.0459 -0.6152  0.1970
 8648SOL    HW227396   1.416   4.188   0.484  1.6023  0.6728  0.1177
 8649SOL     OW27397   0.888   5.152   3.777  0.2722 -0.2311 -0.0918
 8649SOL    HW127398   0.969   5.163   3.826 -0.2741 -0.5303  0.9046
 8649SOL    HW227399   0.836   5.092   3.830  0.2703 -1.8200 -1.7992
 8650SOL     OW27400   0.945   1.597   6.128 -0.1431 -0.9627 -0.3306
 8650SOL    HW127401   1.004   1.620   6.056  0.8045 -2.9051 -0.2439
 8650SOL    HW227402   0.986   1.636   6.206  0.4732 -1.3835 -0.4351
 8651SOL     OW27403   6.865   6.214   7.825 -0.3202  0.2238 -0.5127
 8651SOL    HW127404   6.861   6.300   7.866 -1.2657 -0.7020  1.4962
 8651SOL    HW227405   6.898   6.156   7.894 -1.5856 -1.3517 -1.1676
 8652SOL     OW27406   4.987   0.123   3.295 -0.2705  0.6132  0.2403
 8652SOL    HW127407   4.899   0.099   3.324 -0.3213 -0.6178 -0.8407
 8652SOL    HW227408   4.983   0.121   3.200  0.8384  0.9149  0.1631
 8653SOL     OW27409   5.497   0.710   8.401 -0.0393  0.4159 -0.2371
 8653SOL    HW127410   5.447   0.629   8.392  0.6547  0.0358 -0.7120
 8653SOL    HW227411   5.576   0.684   8.449  0.0960  0.8525 -0.2224
 8654SOL     OW27412   3.556   2.530   2.170  0.5848  0.1159  0.3937
 8654SOL    HW127413   3.621   2.460   2.177  0.9748  0.5706  1.5800
 8654SOL    HW227414   3.473   2.489   2.194 -0.0087 -0.9673 -2.9892
 8655SOL     OW27415   6.213   6.264   8.702  0.4028  0.4925 -0.3570
 8655SOL    HW127416   6.160   6.344   8.703 -0.0224  0.2085  0.6328
 8655SOL    HW227417   6.295   6.288   8.745  0.2658  0.3952 -0.0383
 8656SOL     OW27418   4.866   8.730   4.836  0.2176  0.3865 -0.1942
 8656SOL    HW127419   4.944   8.685   4.804  0.7996  1.3802 -0.1927
 8656SOL    HW227420   4.899   8.796   4.897 -0.4843  1.9657 -1.4769
 8657SOL     OW27421   4.827   8.880   7.918 -0.1595 -0.2562 -0.1972
 8657SOL    HW127422   4.759   8.940   7.949 -0.0582  0.2039 -0.8407
 8657SOL    HW227423   4.902   8.936   7.901  0.5030 -0.8093  0.8353
 8658SOL     OW27424   8.505   5.932   1.940  0.2319  0.1599  0.1255
 8658SOL    HW127425   8.462   5.869   1.882  2.3989 -1.3246  0.0455
 8658SOL    HW227426   8.440   6.002   1.951 -1.8286 -1.5261 -0.6725
 8659SOL     OW27427   6.701   1.387   5.912 -0.0733 -0.1886 -0.1504
 8659SOL    HW127428   6.716   1.414   5.821 -1.6911 -0.8337 -0.6276
 8659SOL    HW227429   6.647   1.309   5.905 -0.3561 -0.1458  1.3834
 8660SOL     OW27430   2.632   8.753   5.880 -0.4167  0.3311  0.2552
 8660SOL    HW127431   2.707   8.724   5.829 -0.8372 -2.6609  1.0951
 8660SOL    HW227432   2.560   8.758   5.817 -0.4436 -1.1929  0.1196
 8661SOL     OW27433   8.228   0.213   0.007  0.0775 -0.1843  0.3978
 8661SOL    HW127434   8.172   0.287   0.031 -0.7261 -0.5204 -0.3976
 8661SOL    HW227435   8.284   0.201   0.084  0.5074  1.4955  0.3906
 8662SOL     OW27436   5.990   1.145   3.276  0.7942  0.1600 -0.2357
 8662SOL    HW127437   6.036   1.168   3.195  1.9115  0.0647  0.3617
 8662SOL    HW227438   6.049   1.086   3.322  0.2233  0.2968  0.7049
 8663SOL     OW27439   7.753   1.755   7.381 -0.4827 -0.0673 -0.5194
 8663SOL    HW127440   7.828   1.791   7.428 -0.4209 -0.5368 -0.2541
 8663SOL    HW227441   7.693   1.830   7.371  0.2255  0.4294 -1.1721
 8664SOL     OW27442   0.613   7.541   7.185  0.2631 -0.6467  0.3055
 8664SOL    HW127443   0.524   7.542   7.149  0.9935  1.7738 -1.7782
 8664SOL    HW227444   0.610   7.601   7.259  0.6506  1.7484 -1.4937
 8665SOL     OW27445   0.753   4.234   2.793 -0.0188  0.2343 -0.0732
 8665SOL    HW127446   0.754   4.271   2.705 -1.8767 -0.9152 -0.6177
 8665SOL    HW227447   0.696   4.158   2.787 -0.9066  0.6209  2.3206
 8666SOL     OW27448   0.555   2.958   1.248 -0.6013 -0.5516  0.1105
 8666SOL    HW127449   0.523   2.875   1.283 -1.6057 -0.3775 -0.3593
 8666SOL    HW227450   0.481   2.993   1.199  0.9108 -1.1296 -2.8064
 8667SOL     OW27451   3.320   8.450   1.769 -0.5466  0.1480 -0.1757
 8667SOL    HW127452   3.264   8.492   1.703 -0.1014 -0.1485 -0.7465
 8667SOL    HW227453   3.330   8.360   1.738 -0.7284 -0.1319  0.5574
 8668SOL     OW27454   1.417   5.455   3.058  0.2170  0.1435  0.2185
 8668SOL    HW127455   1.459   5.406   2.988 -3.0686 -1.2004 -0.9769
 8668SOL    HW227456   1.339   5.405   3.080 -1.6674  3.2080  1.1735
 8669SOL     OW27457   8.964   2.019   7.514  0.6415 -0.1571 -0.5161
 8669SOL    HW127458   9.015   1.949   7.554  0.2093  0.2582  0.8079
 8669SOL    HW227459   8.873   1.997   7.533  0.5072  0.8223  0.0415
 8670SOL     OW27460   1.982   3.147   0.717  0.2206  0.0259 -0.0841
 8670SOL    HW127461   1.947   3.195   0.642  0.1221 -1.6327 -1.1473
 8670SOL    HW227462   1.935   3.064   0.717  1.3169 -0.6320  0.8744
 8671SOL     OW27463   1.940   9.133   2.115 -0.1274  0.3518 -0.0841
 8671SOL    HW127464   1.998   9.061   2.092  1.2652  1.3065  0.3194
 8671SOL    HW227465   1.938   9.133   2.211 -1.8099 -0.4310 -0.0822
 8672SOL     OW27466   8.975   5.046   4.826 -0.0130 -0.0693 -0.0838
 8672SOL    HW127467   9.034   4.979   4.862  0.4599  0.4766  0.1769
 8672SOL    HW227468   8.910   5.060   4.895  0.6232  0.6411  0.3928
 8673SOL     OW27469   5.785   5.180   1.330  0.1982  0.2541 -0.0396
 8673SOL    HW127470   5.817   5.151   1.416 -0.5336  0.2818  0.2557
 8673SOL    HW227471   5.713   5.240   1.351 -1.0216 -0.9393 -0.6824
 8674SOL     OW27472   4.803   0.374   7.155 -0.2705 -0.0632 -0.4589
 8674SOL    HW127473   4.894   0.370   7.184 -0.3048 -2.0050 -0.4886
 8674SOL    HW227474   4.798   0.309   7.085 -1.8682 -0.6167  0.1261
 8675SOL     OW27475   7.669   4.501   9.270  0.6873 -0.3205 -0.2381
 8675SOL    HW127476   7.659   4.507   9.175  1.3962  0.3545 -0.2785
 8675SOL    HW227477   7.663   4.592   9.300 -1.4221 -0.6559  0.5819
 8676SOL     OW27478   3.291   1.371   9.007 -0.0585  0.1314 -0.1916
 8676SOL    HW127479   3.278   1.331   8.921 -0.7864 -0.0480 -0.0048
 8676SOL    HW227480   3.224   1.331   9.063  0.2444  0.4321  0.3957
 8677SOL     OW27481   5.309   3.460   3.225 -0.2797 -0.3099 -0.5928
 8677SOL    HW127482   5.219   3.488   3.208  0.0032 -0.2666 -2.1841
 8677SOL    HW227483   5.349   3.454   3.139  1.0753 -0.9456  0.0432
 8678SOL     OW27484   8.755   3.244   8.874 -0.4938  0.1698  0.2897
 8678SOL    HW127485   8.784   3.179   8.938 -1.2067 -0.8629 -0.4041
 8678SOL    HW227486   8.762   3.199   8.790 -2.1677  0.5405 -0.0850
 8679SOL     OW27487   0.829   8.833   3.386 -0.9090  0.0716  0.3535
 8679SOL    HW127488   0.842   8.916   3.433 -1.4955 -0.0872  0.8108
 8679SOL    HW227489   0.818   8.859   3.295  0.3503  0.3785  0.2693
 8680SOL     OW27490   0.479   2.017   1.254 -0.0275  0.3640 -0.4537
 8680SOL    HW127491   0.563   2.057   1.275  1.0305 -1.3185 -1.2301
 8680SOL    HW227492   0.435   2.079   1.196  1.3305  0.6341 -1.2180
 8681SOL     OW27493   7.490   2.366   2.778 -0.0957  0.7098 -0.3436
 8681SOL    HW127494   7.416   2.395   2.725 -1.5317 -2.6872 -0.4536
 8681SOL    HW227495   7.535   2.303   2.722  1.2459  0.6704  0.7591
 8682SOL     OW27496   5.501   2.595   5.188 -0.0022  0.3095  0.1850
 8682SOL    HW127497   5.595   2.589   5.168 -0.2682 -0.9534 -0.7313
 8682SOL    HW227498   5.498   2.613   5.282  1.1930  2.9004 -0.1749
 8683SOL     OW27499   8.673   1.891   6.218 -0.3317 -0.0541 -0.2626
 8683SOL    HW127500   8.633   1.913   6.134 -3.2849 -0.4225  0.9095
 8683SOL    HW227501   8.629   1.811   6.245  0.2347  0.2775  1.8118
 8684SOL     OW27502   6.049   0.909   5.585  0.4471 -0.2830 -0.0597
 8684SOL    HW127503   5.963   0.890   5.546  0.6113  0.1348 -0.6445
 8684SOL    HW227504   6.037   0.992   5.630  0.5422 -0.2373 -0.1198
 8685SOL     OW27505   2.869   1.761   1.109  0.0574 -0.6910  0.1199
 8685SOL    HW127506   2.828   1.676   1.128 -0.3332 -0.6817 -0.6544
 8685SOL    HW227507   2.950   1.759   1.159 -0.0862 -1.4061  0.3459
 8686SOL     OW27508   9.092   9.131   1.614  0.0145  0.3038 -0.3302
 8686SOL    HW127509   9.123   9.118   1.524 -0.1656  0.6996 -0.4538
 8686SOL    HW227510   9.129   9.216   1.640  0.9455 -0.2928  0.3534
 8687SOL     OW27511   4.429   1.790   1.772 -0.6462  0.3189  0.1176
 8687SOL    HW127512   4.485   1.751   1.705  0.4362  0.5023  0.8746
 8687SOL    HW227513   4.478   1.867   1.802 -1.4067  0.5984  0.6668
 8688SOL     OW27514   6.632   2.169   0.695 -0.3032  0.3351  0.3639
 8688SOL    HW127515   6.605   2.109   0.625  2.7660 -1.4184  0.5266
 8688SOL    HW227516   6.566   2.157   0.763 -1.0968 -1.0213 -0.5901
 8689SOL     OW27517   7.321   5.074   7.542  1.0989  0.2213  0.0471
 8689SOL    HW127518   7.330   5.123   7.460  1.2192 -1.0484 -0.7300
 8689SOL    HW227519   7.279   5.135   7.602  1.1807  1.2428 -0.9077
 8690SOL     OW27520   1.330   3.444   1.262 -0.6013 -0.4070 -0.4196
 8690SOL    HW127521   1.330   3.537   1.285 -1.3905 -0.4501 -0.2289
 8690SOL    HW227522   1.240   3.425   1.236 -0.0884 -0.7328 -2.0587
 8691SOL     OW27523   7.430   7.712   8.258 -0.0722 -0.3533 -0.4988
 8691SOL    HW127524   7.336   7.694   8.262 -0.5091  1.7936  1.2329
 8691SOL    HW227525   7.438   7.802   8.290  2.5128 -0.1774 -1.4266
 8692SOL     OW27526   8.441   8.251   0.310 -0.8614  0.5194 -0.6298
 8692SOL    HW127527   8.503   8.186   0.276  0.4036  1.6975 -0.6866
 8692SOL    HW227528   8.368   8.200   0.344 -0.4937 -0.8693 -1.8089
 8693SOL     OW27529   1.468   8.032   9.271  0.0387  0.2606 -0.3512
 8693SOL    HW127530   1.464   8.066   9.182 -0.4853  0.0109 -0.4227
 8693SOL    HW227531   1.464   8.110   9.326 -1.5262  0.3188 -0.5056
 8694SOL     OW27532   9.261   3.554   8.288 -0.2543  0.1032 -0.4948
 8694SOL    HW127533   9.170   3.524   8.290 -0.1287 -0.2578  0.4710
 8694SOL    HW227534   9.312   3.473   8.280  0.1135 -0.0892  2.6534
 8695SOL     OW27535   2.526   5.049   8.657  0.2144  0.0639  0.5859
 8695SOL    HW127536   2.598   5.008   8.610 -1.2665 -0.1257 -1.6359
 8695SOL    HW227537   2.447   5.008   8.621 -1.0715  0.8031  2.3976
 8696SOL     OW27538   9.259   1.559   0.639 -0.5757 -0.2870 -0.3208
 8696SOL    HW127539   9.308   1.635   0.608  0.6916 -0.8920  0.1019
 8696SOL    HW227540   9.220   1.522   0.559  2.4052 -1.6612 -1.3083
 8697SOL     OW27541   5.277   2.544   6.566  0.2120 -0.0570  0.5319
 8697SOL    HW127542   5.266   2.626   6.518  2.1735  1.2658  2.2036
 8697SOL    HW227543   5.368   2.519   6.552  0.0806 -1.0940  1.3686
 8698SOL     OW27544   6.133   1.971   8.787  0.5410  0.2755  0.3352
 8698SOL    HW127545   6.203   1.908   8.771  1.9875  1.9042 -0.0448
 8698SOL    HW227546   6.136   1.986   8.882 -0.1373 -0.5543  0.5026
 8699SOL     OW27547   8.656   2.590   6.503  0.0665  0.0628 -1.1194
 8699SOL    HW127548   8.700   2.518   6.549 -1.7649 -0.7403 -0.5547
 8699SOL    HW227549   8.710   2.667   6.523  1.2057 -0.8706 -0.4497
 8700SOL     OW27550   1.190   2.608   3.494  0.2340  0.5804 -0.3825
 8700SOL    HW127551   1.213   2.548   3.424  0.6176 -0.5971  0.7111
 8700SOL    HW227552   1.141   2.678   3.451  1.5726  0.5701 -2.0028
 8701SOL     OW27553   6.975   3.495   2.573 -0.3766 -0.0723 -0.4521
 8701SOL    HW127554   7.062   3.520   2.543 -0.3861  1.6857  0.7873
 8701SOL    HW227555   6.927   3.578   2.576 -1.4195 -0.6912  0.9390
 8702SOL     OW27556   3.665   2.608   3.742  0.3517  0.4340  0.3852
 8702SOL    HW127557   3.572   2.633   3.736  0.3982  0.3032 -1.7136
 8702SOL    HW227558   3.691   2.592   3.651  2.8512  1.9443  0.7442
 8703SOL     OW27559   0.972   6.726   6.056 -1.0083 -0.4199  0.1248
 8703SOL    HW127560   0.941   6.799   6.111  0.6245  0.0018  0.5216
 8703SOL    HW227561   1.019   6.669   6.116  0.7471  0.0078 -0.7725
 8704SOL     OW27562   9.120   4.649   0.598 -0.0579  1.0179  0.4355
 8704SOL    HW127563   9.168   4.677   0.520 -1.9537  0.7055 -0.9118
 8704SOL    HW227564   9.183   4.595   0.647  0.5848 -0.5178 -1.9234
 8705SOL     OW27565   6.286   1.672   5.088 -0.0302 -0.0966 -0.7183
 8705SOL    HW127566   6.218   1.664   5.021  0.7594  0.6564 -1.6330
 8705SOL    HW227567   6.243   1.720   5.159 -1.0031 -1.2843 -0.4656
 8706SOL     OW27568   4.478   7.830   8.127 -0.2540 -0.1073 -0.2905
 8706SOL    HW127569   4.477   7.926   8.120  1.3877 -0.0724 -0.4351
 8706SOL    HW227570   4.552   7.803   8.073 -0.0532 -1.3762  0.5863
 8707SOL     OW27571   2.457   9.214   3.632 -0.2946  0.3219 -0.2701
 8707SOL    HW127572   2.404   9.269   3.689 -1.8143 -1.3601  0.0144
 8707SOL    HW227573   2.458   9.260   3.548 -2.3803  0.3262 -0.3374
 8708SOL     OW27574   6.071   0.800   6.157 -0.4270  0.0767  0.0818
 8708SOL    HW127575   6.110   0.888   6.159  0.2662 -0.1411 -1.9896
 8708SOL    HW227576   6.021   0.795   6.239  1.4604  1.4744  1.4222
 8709SOL     OW27577   2.218   3.813   1.061  0.3965 -0.3925  0.3585
 8709SOL    HW127578   2.133   3.776   1.040 -0.3469  1.0511  0.7147
 8709SOL    HW227579   2.254   3.841   0.977  0.6217 -1.1464  0.1880
 8710SOL     OW27580   1.941   0.699   5.485 -0.5835  0.5192 -0.2059
 8710SOL    HW127581   1.907   0.729   5.400 -0.4198 -0.7268 -0.7368
 8710SOL    HW227582   1.957   0.605   5.472  0.2058  0.4777  0.9678
 8711SOL     OW27583   5.694   5.156   1.073 -0.3887  0.2842 -0.0056
 8711SOL    HW127584   5.727   5.158   1.163 -0.5385 -0.1360  0.0593
 8711SOL    HW227585   5.646   5.238   1.063  0.0198  0.5448  0.1470
 8712SOL     OW27586   8.319   4.874   6.312  0.3564 -0.1623  0.4373
 8712SOL    HW127587   8.398   4.827   6.284 -0.7094 -1.4217 -0.6627
 8712SOL    HW227588   8.270   4.887   6.231 -0.8548  0.0070  1.1735
 8713SOL     OW27589   3.907   2.820   6.326  0.1710 -0.6398  0.3325
 8713SOL    HW127590   3.915   2.818   6.230 -0.9630 -0.3843  0.2169
 8713SOL    HW227591   3.846   2.750   6.347 -0.3941 -0.0300  0.7685
 8714SOL     OW27592   5.203   2.546   5.818 -0.4050  0.2498  0.2481
 8714SOL    HW127593   5.289   2.587   5.803 -0.0229  0.0375  1.6866
 8714SOL    HW227594   5.149   2.617   5.854 -0.0632 -0.1979  1.7140
 8715SOL     OW27595   3.323   8.639   8.312  0.1762  0.6573  0.0511
 8715SOL    HW127596   3.258   8.569   8.319  2.0402 -1.3159 -1.1154
 8715SOL    HW227597   3.322   8.681   8.398 -0.0096 -1.7611  1.3150
 8716SOL     OW27598   0.104   5.832   3.747 -0.1624 -0.3500  0.3545
 8716SOL    HW127599   0.013   5.851   3.723  0.0414 -0.0797 -0.2302
 8716SOL    HW227600   0.121   5.744   3.712 -0.0480 -0.2001  0.0347
 8717SOL     OW27601   3.506   6.487   4.318 -0.0102 -0.2932  0.1794
 8717SOL    HW127602   3.429   6.525   4.360 -0.1291 -1.9827  1.6500
 8717SOL    HW227603   3.550   6.561   4.277 -2.0501  0.8202 -0.1598
 8718SOL     OW27604   2.553   5.886   5.157 -0.4829 -0.4383 -0.0730
 8718SOL    HW127605   2.582   5.827   5.087 -0.0376 -2.0058  1.3493
 8718SOL    HW227606   2.473   5.846   5.190 -0.3473 -0.0843  0.7150
 8719SOL     OW27607   5.815   6.869   0.185  0.3312 -0.5683  0.4423
 8719SOL    HW127608   5.764   6.824   0.253 -2.6165 -0.5890 -1.5880
 8719SOL    HW227609   5.764   6.948   0.165  1.5417 -0.1461 -1.1659
 8720SOL     OW27610   4.592   2.247   2.555  0.4047  0.2858 -0.9003
 8720SOL    HW127611   4.501   2.278   2.557  0.6320  0.9669 -0.6502
 8720SOL    HW227612   4.644   2.328   2.558  1.0220 -0.1235 -0.5063
 8721SOL     OW27613   7.584   2.148   2.193 -0.5145 -0.4785 -0.0751
 8721SOL    HW127614   7.607   2.068   2.239  0.2185  0.9720  2.2347
 8721SOL    HW227615   7.495   2.133   2.160  0.2626 -2.8433 -1.2851
 8722SOL     OW27616   8.382   5.625   2.259 -0.0278 -0.1954 -0.7769
 8722SOL    HW127617   8.317   5.562   2.228 -0.3774 -1.0765  1.5659
 8722SOL    HW227618   8.333   5.707   2.268 -0.2464 -0.2798 -1.1672
 8723SOL     OW27619   4.447   7.311   5.424  0.4568  0.0640  0.2398
 8723SOL    HW127620   4.410   7.246   5.484  1.8184  0.0389  1.0901
 8723SOL    HW227621   4.470   7.260   5.346 -0.7261 -0.0171 -0.0774
 8724SOL     OW27622   3.186   2.120   3.902  0.0621  0.1219  0.9747
 8724SOL    HW127623   3.250   2.091   3.838  1.1726 -0.7365  2.4030
 8724SOL    HW227624   3.106   2.134   3.852  1.0089 -0.0411 -0.6440
 8725SOL     OW27625   0.819   5.521   6.087 -1.1045 -0.2254 -0.1464
 8725SOL    HW127626   0.759   5.480   6.150 -1.2318 -0.1858 -0.2421
 8725SOL    HW227627   0.899   5.469   6.093 -0.3788  0.9816  1.5395
 8726SOL     OW27628   7.974   0.122   8.191  0.2834  0.4062  0.0802
 8726SOL    HW127629   8.065   0.098   8.174  0.7602  2.3836 -0.4196
 8726SOL    HW227630   7.923   0.060   8.139  1.2936 -1.0237  0.7259
 8727SOL     OW27631   8.560   5.674   4.297  0.3218 -0.4809 -0.5014
 8727SOL    HW127632   8.591   5.588   4.271 -1.1579 -0.6323 -1.8990
 8727SOL    HW227633   8.531   5.715   4.215  0.0201  0.9253  0.2772
 8728SOL     OW27634   8.808   2.765   6.075  0.5516  0.0074 -0.6477
 8728SOL    HW127635   8.866   2.717   6.135  0.0551  0.3673  0.1351
 8728SOL    HW227636   8.722   2.762   6.118  0.1654  0.1774 -1.3990
 8729SOL     OW27637   7.024   3.190   8.809  1.1476  0.1305 -0.6847
 8729SOL    HW127638   7.076   3.205   8.730  2.3621 -0.3213  0.0069
 8729SOL    HW227639   7.062   3.112   8.848 -1.0634 -1.1447 -0.9596
 8730SOL     OW27640   5.998   5.313   5.547  0.2333 -0.4019 -0.0806
 8730SOL    HW127641   5.971   5.403   5.527 -0.6248 -0.3166  1.3119
 8730SOL    HW227642   6.026   5.316   5.638  1.8170 -1.2229 -0.5070
 8731SOL     OW27643   3.155   2.973   3.523 -0.8204 -0.4040  0.0185
 8731SOL    HW127644   3.115   3.037   3.465  1.4454  0.4875 -0.6236
 8731SOL    HW227645   3.210   2.919   3.466  1.1532  0.2473  1.2316
 8732SOL     OW27646   3.723   8.864   0.816 -0.2349  0.3389  0.0207
 8732SOL    HW127647   3.697   8.946   0.858  0.4803 -0.1515  1.4701
 8732SOL    HW227648   3.760   8.811   0.886  0.7061 -0.6550 -1.1743
 8733SOL     OW27649   8.137   2.665   6.643 -0.8286 -0.1045 -0.1996
 8733SOL    HW127650   8.221   2.668   6.689 -1.1501  0.4383  0.3629
 8733SOL    HW227651   8.158   2.626   6.558 -0.1107 -0.5137  0.1549
 8734SOL     OW27652   5.174   0.155   7.211 -0.0870  0.2085  0.6939
 8734SOL    HW127653   5.177   0.210   7.132 -2.0043 -0.3350  0.1711
 8734SOL    HW227654   5.255   0.105   7.208  1.4682  2.5341  0.8912
 8735SOL     OW27655   8.854   5.950   6.471 -0.1895 -0.8281 -0.1752
 8735SOL    HW127656   8.934   5.944   6.523 -1.2073  0.2574  1.5932
 8735SOL    HW227657   8.885   5.973   6.383  1.4646 -0.8915  0.3564
 8736SOL     OW27658   6.483   6.732   3.474 -0.2166  1.1081  0.6305
 8736SOL    HW127659   6.541   6.711   3.401  0.6581  2.2107  0.9735
 8736SOL    HW227660   6.439   6.650   3.495 -0.7353  0.8363 -1.3354
 8737SOL     OW27661   7.218   8.038   7.601  0.1851  0.4142 -0.0499
 8737SOL    HW127662   7.283   8.064   7.536 -1.1024  0.6777 -1.2913
 8737SOL    HW227663   7.135   8.073   7.567 -0.9166 -1.5352  0.4814
 8738SOL     OW27664   7.738   4.490   1.179  0.0587 -0.5535 -0.2648
 8738SOL    HW127665   7.794   4.543   1.122  2.8341 -1.1212  1.7224
 8738SOL    HW227666   7.767   4.512   1.268 -2.1178 -1.8112  0.8484
 8739SOL     OW27667   6.653   4.597   6.452  1.0008 -0.3641  0.1745
 8739SOL    HW127668   6.700   4.522   6.488 -0.7482 -1.3448  0.5325
 8739SOL    HW227669   6.653   4.661   6.523 -1.8810 -2.0460  1.8704
 8740SOL     OW27670   0.844   0.445   8.232  0.0275  0.5649 -0.0630
 8740SOL    HW127671   0.893   0.395   8.298  0.4950  0.5845 -0.3966
 8740SOL    HW227672   0.831   0.531   8.273 -2.0239 -0.2370  1.1139
 8741SOL     OW27673   3.262   6.777   0.373  1.1449 -0.3788 -0.5743
 8741SOL    HW127674   3.343   6.817   0.407  1.8783 -0.9518 -1.5689
 8741SOL    HW227675   3.290   6.733   0.292 -0.3085 -0.0113 -1.3026
 8742SOL     OW27676   6.366   5.094   3.810  0.4219 -0.4870  0.0718
 8742SOL    HW127677   6.312   5.097   3.731  0.4166  0.2773  0.0909
 8742SOL    HW227678   6.325   5.027   3.865 -0.1273 -0.3690 -0.1850
 8743SOL     OW27679   7.401   1.690   4.787 -0.2722 -0.3843 -0.1394
 8743SOL    HW127680   7.442   1.702   4.873 -0.2495 -1.5364  0.0334
 8743SOL    HW227681   7.365   1.776   4.765 -0.7547 -0.1966  1.2632
 8744SOL     OW27682   5.558   0.698   7.999 -0.0545 -0.8726 -0.4694
 8744SOL    HW127683   5.621   0.727   8.065  0.1313  0.0655 -1.0305
 8744SOL    HW227684   5.587   0.609   7.976  0.4221 -0.8568  0.0478
 8745SOL     OW27685   7.312   0.449   2.890 -0.3422  0.3717  0.0499
 8745SOL    HW127686   7.305   0.544   2.901 -0.9574  0.2694  0.6550
 8745SOL    HW227687   7.222   0.417   2.897 -0.1477 -0.2530 -0.1985
 8746SOL     OW27688   2.913   5.903   4.426 -0.1853  0.1126  0.1232
 8746SOL    HW127689   2.903   5.998   4.430  0.5633  0.1687  1.1172
 8746SOL    HW227690   2.875   5.878   4.342  1.5321  1.5244 -1.1575
 8747SOL     OW27691   4.279   2.767   3.481  0.8967  0.0393  0.6041
 8747SOL    HW127692   4.320   2.683   3.460 -0.8010 -0.8841  0.8189
 8747SOL    HW227693   4.224   2.787   3.405  0.2586  0.2630  1.1113
 8748SOL     OW27694   0.261   8.212   5.392 -0.0114  0.1841 -0.7190
 8748SOL    HW127695   0.230   8.301   5.374 -0.0205  0.2455 -0.4066
 8748SOL    HW227696   0.354   8.214   5.369  0.4416  0.7998  1.0477
 8749SOL     OW27697   5.830   2.029   5.887  0.0413 -0.6991 -0.2327
 8749SOL    HW127698   5.780   2.105   5.917  1.0760 -0.1488  0.1531
 8749SOL    HW227699   5.871   1.994   5.966  0.5104 -0.9518 -0.5820
 8750SOL     OW27700   4.262   5.525   8.002  0.0182 -0.4755  0.1119
 8750SOL    HW127701   4.349   5.541   8.039 -0.1640 -1.2067  0.8952
 8750SOL    HW227702   4.218   5.471   8.068 -0.4990 -1.4004 -0.9593
 8751SOL     OW27703   7.564   1.035   6.194  0.0058  0.0064 -0.6183
 8751SOL    HW127704   7.603   1.104   6.247 -2.7641  1.3575 -0.1519
 8751SOL    HW227705   7.561   1.072   6.106 -0.0879 -0.1249 -0.6696
 8752SOL     OW27706   2.148   3.233   4.313  0.2163 -0.0582 -0.1554
 8752SOL    HW127707   2.188   3.236   4.226 -0.8689  1.0121 -0.6481
 8752SOL    HW227708   2.079   3.167   4.305 -0.3856  0.5810 -0.3511
 8753SOL     OW27709   5.491   5.331   3.712 -0.5818  0.5027 -0.1356
 8753SOL    HW127710   5.496   5.372   3.798 -0.9270 -0.4693  0.3588
 8753SOL    HW227711   5.540   5.390   3.655  1.4643  0.0937  1.1140
 8754SOL     OW27712   7.893   3.191   5.032  0.0387  0.5283  0.1949
 8754SOL    HW127713   7.951   3.115   5.048  0.7923  0.3515 -2.8956
 8754SOL    HW227714   7.808   3.152   5.012  0.1076  0.5482 -0.1407
 8755SOL     OW27715   6.099   0.208   6.591 -0.1893 -0.2488 -0.0240
 8755SOL    HW127716   6.122   0.148   6.521  0.2685  0.0060 -0.0936
 8755SOL    HW227717   6.158   0.282   6.581 -0.5133  0.0595  0.2728
 8756SOL     OW27718   4.824   4.713   8.602 -0.1360 -0.4446 -0.0716
 8756SOL    HW127719   4.729   4.701   8.602 -0.4394  1.4990  1.3073
 8756SOL    HW227720   4.836   4.808   8.598  1.7983 -0.6829 -1.2111
 8757SOL     OW27721   7.147   3.196   1.092 -0.2325 -0.0585  0.5269
 8757SOL    HW127722   7.164   3.160   1.005  0.0985 -0.8885  0.9197
 8757SOL    HW227723   7.203   3.273   1.097  0.4268 -0.5149  0.3322
 8758SOL     OW27724   7.254   7.738   2.304 -0.2333 -1.2318 -0.0672
 8758SOL    HW127725   7.287   7.733   2.393 -2.4264 -1.9125  0.7656
 8758SOL    HW227726   7.164   7.769   2.312 -0.4889 -1.2834 -2.0425
 8759SOL     OW27727   3.539   7.726   6.715  0.0598 -0.3622  0.5967
 8759SOL    HW127728   3.620   7.714   6.666 -0.8581 -0.1822 -1.0539
 8759SOL    HW227729   3.556   7.687   6.800  2.6727  1.7681  1.1833
 8760SOL     OW27730   3.382   4.883   1.454  0.3653 -0.1145  0.3546
 8760SOL    HW127731   3.298   4.911   1.417  0.2997  0.8997  1.2273
 8760SOL    HW227732   3.372   4.789   1.468 -0.0022 -0.3233 -1.1364
 8761SOL     OW27733   8.245   2.901   5.569  0.2054  0.0943 -0.1768
 8761SOL    HW127734   8.252   2.806   5.577 -1.5112 -0.3053 -2.5273
 8761SOL    HW227735   8.298   2.923   5.493  0.1356  0.9546  0.0171
 8762SOL     OW27736   0.047   2.535   1.098  0.5966 -0.4253  0.1630
 8762SOL    HW127737   0.069   2.613   1.149 -1.2639 -0.4712  1.1291
 8762SOL    HW227738  -0.049   2.533   1.098  0.5786 -1.7235 -1.4037
 8763SOL     OW27739   7.948   8.120   5.132 -0.0320 -0.0728  0.4360
 8763SOL    HW127740   7.909   8.079   5.055  0.0157 -0.0614  0.4061
 8763SOL    HW227741   7.901   8.080   5.206 -0.9443  0.8206  0.3608
 8764SOL     OW27742   6.331   0.265   0.524 -0.0261  0.2233  0.2741
 8764SOL    HW127743   6.311   0.341   0.470 -0.7954 -0.2668 -0.1499
 8764SOL    HW227744   6.424   0.249   0.509  0.2544  1.3482  0.7330
 8765SOL     OW27745   7.059   5.503   4.225  0.6286 -0.3505 -0.6268
 8765SOL    HW127746   7.063   5.589   4.266  0.7319  0.9286 -3.1090
 8765SOL    HW227747   6.974   5.501   4.180  1.8276 -0.2707 -3.0425
 8766SOL     OW27748   6.848   6.071   5.743  0.2287 -0.2833  0.1823
 8766SOL    HW127749   6.849   6.142   5.680  2.1530 -1.1392 -0.8215
 8766SOL    HW227750   6.842   6.115   5.828  4.0260  1.3619 -0.1968
 8767SOL     OW27751   6.384   8.549   7.228  0.1572 -0.3253  0.3616
 8767SOL    HW127752   6.450   8.596   7.279 -0.3058  0.3239  0.3674
 8767SOL    HW227753   6.365   8.606   7.154  0.2890 -0.9362 -0.1578
 8768SOL     OW27754   1.623   6.833   4.143 -0.2282  0.2165 -0.1938
 8768SOL    HW127755   1.637   6.843   4.237 -0.5655  1.1139 -0.2263
 8768SOL    HW227756   1.660   6.747   4.121  0.5886  0.3614  0.6001
 8769SOL     OW27757   6.548   3.769   2.435  0.4843 -0.3026 -0.3867
 8769SOL    HW127758   6.463   3.813   2.431  0.2882 -0.7794 -2.3224
 8769SOL    HW227759   6.589   3.789   2.351  2.1877 -0.3277  0.3929
 8770SOL     OW27760   5.022   2.520   1.699  0.0539  0.1727  0.5253
 8770SOL    HW127761   4.948   2.534   1.758 -0.3130  0.3494  0.0359
 8770SOL    HW227762   5.067   2.443   1.734  0.0755  0.5142  1.2582
 8771SOL     OW27763   1.445   1.788   3.462 -0.3307  0.5576  0.3930
 8771SOL    HW127764   1.413   1.730   3.531 -2.4122  2.0504  0.7901
 8771SOL    HW227765   1.535   1.808   3.486 -0.4055 -0.5080  1.6058
 8772SOL     OW27766   2.709   2.142   1.223 -0.2584 -0.0985 -0.0218
 8772SOL    HW127767   2.725   2.065   1.278  0.9262  1.5904  2.1264
 8772SOL    HW227768   2.616   2.161   1.236 -0.8923 -1.8058 -1.5578
 8773SOL     OW27769   6.138   5.069   8.921  0.5207  0.2242  0.0365
 8773SOL    HW127770   6.203   5.088   8.854 -1.1112  0.6939 -1.5105
 8773SOL    HW227771   6.116   4.977   8.909 -1.2533  0.7802 -1.5611
 8774SOL     OW27772   4.797   2.815   2.383 -0.2781  0.0116 -0.3526
 8774SOL    HW127773   4.787   2.724   2.355 -1.3713  0.6519 -2.2463
 8774SOL    HW227774   4.733   2.825   2.454 -2.0148 -0.0883 -1.8300
 8775SOL     OW27775   6.271   6.746   5.728  0.1147  1.0926  0.0462
 8775SOL    HW127776   6.214   6.677   5.763  0.3530  1.6755  1.6929
 8775SOL    HW227777   6.217   6.794   5.666 -0.3325 -0.0121 -0.4440
 8776SOL     OW27778   1.787   0.060   2.039  0.7458  0.2194  0.2909
 8776SOL    HW127779   1.731   0.064   2.117  0.4939 -1.9181  0.2794
 8776SOL    HW227780   1.845  -0.014   2.054  0.3521 -0.5701 -1.7524
 8777SOL     OW27781   0.933   2.906   8.180 -0.4483  0.3064 -0.2431
 8777SOL    HW127782   0.984   2.980   8.147  0.1952  0.3782  0.8513
 8777SOL    HW227783   0.843   2.937   8.178 -0.3356  0.5979 -1.1458
 8778SOL     OW27784   0.496   2.322   0.931 -0.1173 -0.0975 -0.4708
 8778SOL    HW127785   0.524   2.414   0.930 -1.4828  0.3503 -0.8147
 8778SOL    HW227786   0.515   2.291   0.842 -1.1676  0.3690 -0.8770
 8779SOL     OW27787   1.533   2.348   7.118  0.1899 -0.0158  0.0959
 8779SOL    HW127788   1.570   2.280   7.062  0.3827 -1.4513  1.8842
 8779SOL    HW227789   1.601   2.415   7.122  1.4576 -1.3146  1.0541
 8780SOL     OW27790   8.739   5.884   5.539  0.5231  0.1976 -0.2291
 8780SOL    HW127791   8.705   5.848   5.457 -1.0378  0.1763  0.3956
 8780SOL    HW227792   8.737   5.979   5.525  1.8938  0.1597 -0.8198
 8781SOL     OW27793   6.609   3.840   7.604 -1.3339  0.3246 -0.1410
 8781SOL    HW127794   6.690   3.856   7.556 -1.0903 -0.9984 -0.2062
 8781SOL    HW227795   6.585   3.925   7.641 -0.0187  0.7613 -0.2678
 8782SOL     OW27796   0.032   1.346   8.861 -0.2884  0.2981 -0.1137
 8782SOL    HW127797   0.105   1.286   8.848  0.3425  1.3169 -1.5786
 8782SOL    HW227798  -0.044   1.298   8.830 -0.1276 -0.4907  0.6897
 8783SOL     OW27799   4.315   3.052   2.952 -0.3365 -0.3648  0.1591
 8783SOL    HW127800   4.308   3.147   2.961 -0.5740 -0.5207  1.9511
 8783SOL    HW227801   4.388   3.040   2.891 -0.6543  0.9611 -0.5261
 8784SOL     OW27802   1.368   6.134   1.526  0.1212 -0.4234 -0.5841
 8784SOL    HW127803   1.355   6.097   1.614  1.6365  1.8152  0.6758
 8784SOL    HW227804   1.430   6.076   1.484  0.2185 -0.9288  0.2368
 8785SOL     OW27805   8.673   9.174   4.765  0.4584  0.3591 -0.3041
 8785SOL    HW127806   8.622   9.094   4.773  1.6442 -0.4639 -0.7931
 8785SOL    HW227807   8.697   9.178   4.672 -0.6845  1.9852 -0.5733
 8786SOL     OW27808   6.888   7.591   6.191 -0.5348  0.4853  0.8212
 8786SOL    HW127809   6.793   7.585   6.200 -0.5916  0.1447  0.0725
 8786SOL    HW227810   6.909   7.681   6.215 -1.0943  0.6823  0.5666
 8787SOL     OW27811   1.280   3.522   0.093  0.3850  0.1985  0.0833
 8787SOL    HW127812   1.207   3.529   0.155 -1.1068 -2.9623 -1.1044
 8787SOL    HW227813   1.356   3.502   0.147 -0.2453  0.5759  1.1279
 8788SOL     OW27814   2.028   8.737   8.035 -0.4997 -1.1789  0.1678
 8788SOL    HW127815   2.086   8.722   7.960 -1.7354 -1.7952 -0.6962
 8788SOL    HW227816   1.956   8.789   7.999  0.0202  0.5425  1.4697
 8789SOL     OW27817   6.960   2.813   7.625  0.3094  0.2976 -0.1403
 8789SOL    HW127818   6.865   2.814   7.614  0.4265  0.5047 -1.2783
 8789SOL    HW227819   6.993   2.856   7.546  1.2816  1.8870  1.0787
 8790SOL     OW27820   1.259   5.167   2.847  0.4511 -0.6556 -0.0714
 8790SOL    HW127821   1.249   5.179   2.752  0.6729 -0.0385 -0.0236
 8790SOL    HW227822   1.187   5.108   2.871 -1.7769  1.8327 -0.1043
 8791SOL     OW27823   6.466   3.532   2.139  0.3896  0.1537  0.3919
 8791SOL    HW127824   6.437   3.488   2.059 -1.6601  1.3673  0.4067
 8791SOL    HW227825   6.460   3.465   2.207 -1.4789  0.0908  0.1960
 8792SOL     OW27826   9.199   5.604   3.238 -0.1499 -0.2489 -0.5017
 8792SOL    HW127827   9.264   5.568   3.178  2.8886 -1.5431  3.1570
 8792SOL    HW227828   9.161   5.527   3.281 -2.2995  0.6240 -0.7118
 8793SOL     OW27829   1.372   5.792   8.013  0.5047 -0.1951  0.4759
 8793SOL    HW127830   1.394   5.884   8.025  0.2763 -0.3813  2.5767
 8793SOL    HW227831   1.298   5.793   7.951  0.9617  0.9579 -0.0752
 8794SOL     OW27832   4.245   8.967   7.456  0.3234 -0.7152  0.6521
 8794SOL    HW127833   4.205   9.053   7.444  0.1615 -0.4102  3.0311
 8794SOL    HW227834   4.203   8.912   7.389 -0.2116  0.8224 -0.3267
 8795SOL     OW27835   7.369   4.882   3.305 -0.0241  0.4913  0.0900
 8795SOL    HW127836   7.410   4.864   3.390 -0.9051  1.2028  0.6853
 8795SOL    HW227837   7.395   4.972   3.285 -1.4575  1.0598  0.6103
 8796SOL     OW27838   5.930   4.636   6.389  0.1880  0.1659  0.0674
 8796SOL    HW127839   5.958   4.689   6.314  0.4314  0.3753  0.3008
 8796SOL    HW227840   5.913   4.549   6.352 -1.6294  0.7647 -0.5733
 8797SOL     OW27841   6.376   1.585   1.221  0.2187  0.4420 -0.2344
 8797SOL    HW127842   6.341   1.608   1.307 -0.8469  0.5490 -0.6729
 8797SOL    HW227843   6.310   1.527   1.183  2.1704 -2.3314  0.2686
 8798SOL     OW27844   4.054   8.420   5.844 -0.6503  0.6233  0.1257
 8798SOL    HW127845   4.006   8.357   5.790  0.1435 -0.1440  0.2842
 8798SOL    HW227846   4.138   8.431   5.800 -0.4368  0.8649  0.5833
 8799SOL     OW27847   1.953   2.971   5.247 -0.3885 -0.0969 -0.0831
 8799SOL    HW127848   1.998   3.019   5.317  0.6416  1.0866 -1.4810
 8799SOL    HW227849   1.899   2.906   5.293 -0.1666  0.9761  1.8051
 8800SOL     OW27850   2.700   9.034   3.613  0.7842 -0.5116 -0.5726
 8800SOL    HW127851   2.622   9.088   3.601  0.5182 -0.6301  0.4885
 8800SOL    HW227852   2.683   8.956   3.561 -0.2409 -0.9565  0.3885
 8801SOL     OW27853   0.850   7.537   7.928  0.7712  1.4607 -0.1958
 8801SOL    HW127854   0.930   7.571   7.887  0.9350  0.7534 -0.4681
 8801SOL    HW227855   0.789   7.527   7.855  1.3977 -0.7959 -0.4928
 8802SOL     OW27856   7.021   6.175   0.309 -0.2003 -0.4384 -0.0038
 8802SOL    HW127857   7.077   6.108   0.348  0.6713 -0.5992 -1.4549
 8802SOL    HW227858   6.977   6.216   0.383  0.3924 -1.5962  1.0229
 8803SOL     OW27859   3.858   1.598   2.499  0.2671 -0.1835  0.1053
 8803SOL    HW127860   3.874   1.661   2.428 -0.3140  2.8701  2.4713
 8803SOL    HW227861   3.944   1.563   2.520  0.7542  0.4878 -0.6945
 8804SOL     OW27862   6.130   1.669   8.175  0.0279 -0.4113  0.0230
 8804SOL    HW127863   6.099   1.741   8.230 -0.1519 -0.7979  0.4304
 8804SOL    HW227864   6.112   1.590   8.226  0.3770 -0.7360 -0.3473
 8805SOL     OW27865   0.811   2.575   7.020 -0.3231 -1.1052  0.3680
 8805SOL    HW127866   0.820   2.481   7.037  1.0963 -1.0350  0.1180
 8805SOL    HW227867   0.814   2.616   7.106  0.4077 -1.1990  0.3901
 8806SOL     OW27868   4.129   0.877   6.811 -0.3016 -0.0582 -0.1419
 8806SOL    HW127869   4.173   0.797   6.840  0.0378  0.5487  1.0747
 8806SOL    HW227870   4.173   0.948   6.857 -0.2726  0.9027 -1.5702
 8807SOL     OW27871   6.581   7.620   1.332  1.2063  0.0439  0.0689
 8807SOL    HW127872   6.529   7.588   1.406 -0.1854  1.3811 -0.2692
 8807SOL    HW227873   6.671   7.600   1.355  0.7995  0.3317  2.0936
 8808SOL     OW27874   6.971   5.916   1.931  0.2325  0.5826  0.5359
 8808SOL    HW127875   7.030   5.841   1.920  1.2351  1.2467  1.2090
 8808SOL    HW227876   7.029   5.993   1.927 -0.8402  1.3793 -0.7377
 8809SOL     OW27877   0.600   1.861   3.320 -0.2647  0.2913  0.7132
 8809SOL    HW127878   0.547   1.941   3.327  0.1144  0.4671  1.9671
 8809SOL    HW227879   0.652   1.861   3.401  1.8190  0.2499 -0.5570
 8810SOL     OW27880   1.825   8.832   4.007 -0.3131  0.1187 -0.0676
 8810SOL    HW127881   1.762   8.831   4.078 -0.4987 -0.4273 -0.2307
 8810SOL    HW227882   1.910   8.818   4.049 -0.2556  1.1503  0.1845
 8811SOL     OW27883   0.594   2.531   5.065  0.3821  0.0202 -0.2903
 8811SOL    HW127884   0.558   2.535   4.976  2.1189  0.1931 -1.0272
 8811SOL    HW227885   0.676   2.483   5.055 -0.2439 -1.5071  1.5489
 8812SOL     OW27886   9.220   3.638   5.558  0.0785 -0.5769 -0.3854
 8812SOL    HW127887   9.164   3.611   5.631  1.3675 -1.2043  0.4150
 8812SOL    HW227888   9.308   3.612   5.585  1.0055  1.7685 -0.9087
 8813SOL     OW27889   2.865   3.236   4.879  0.2665  0.4682 -0.0980
 8813SOL    HW127890   2.776   3.246   4.846  0.5429  0.8760 -0.7368
 8813SOL    HW227891   2.863   3.274   4.967 -0.0468  1.0403 -0.3457
 8814SOL     OW27892   3.970   5.981   5.637 -0.0169  0.1279 -0.2409
 8814SOL    HW127893   3.893   5.970   5.582  0.0340  0.1085 -0.3082
 8814SOL    HW227894   3.968   5.907   5.698 -1.0780  1.1112  0.9916
 8815SOL     OW27895   4.571   7.360   4.991 -0.5223  0.1133  0.2609
 8815SOL    HW127896   4.587   7.285   5.049  2.2920 -0.3529 -0.9543
 8815SOL    HW227897   4.487   7.340   4.950 -1.3887 -0.7470  2.2916
 8816SOL     OW27898   0.049   5.045   4.567  0.1377 -0.6619  0.8676
 8816SOL    HW127899   0.055   4.975   4.502 -0.1994  0.7810 -0.7714
 8816SOL    HW227900   0.114   5.021   4.633  3.0533 -0.4165 -1.7178
 8817SOL     OW27901   3.652   0.108   7.590 -0.3423 -0.3628  0.5180
 8817SOL    HW127902   3.562   0.075   7.593  0.2436 -1.9851  1.3474
 8817SOL    HW227903   3.661   0.160   7.670 -0.5154 -0.2750  0.4806
 8818SOL     OW27904   0.612   5.565   7.203  0.2373  0.6779  0.2617
 8818SOL    HW127905   0.700   5.547   7.170 -0.5348 -0.7620 -1.1446
 8818SOL    HW227906   0.556   5.561   7.126 -1.5927 -2.3611  1.5520
 8819SOL     OW27907   7.362   0.476   5.483  0.0153  0.0044  0.5604
 8819SOL    HW127908   7.277   0.510   5.513  0.0831 -0.2889  1.1080
 8819SOL    HW227909   7.411   0.463   5.564  0.1215 -1.0576  0.3375
 8820SOL     OW27910   0.833   8.426   1.553  0.0061  0.8051  0.2454
 8820SOL    HW127911   0.841   8.414   1.459  2.0936  1.1970  0.3060
 8820SOL    HW227912   0.881   8.507   1.570 -0.2463  0.6803  1.6467
 8821SOL     OW27913   7.453   2.303   1.685  0.7983 -0.1566 -0.4548
 8821SOL    HW127914   7.498   2.227   1.722 -0.6653 -0.9648 -0.2600
 8821SOL    HW227915   7.416   2.349   1.760  1.8539  0.9192 -0.5467
 8822SOL     OW27916   7.327   8.426   1.391  0.0665 -0.1882 -0.0224
 8822SOL    HW127917   7.286   8.354   1.342 -0.5817  0.8526 -1.0650
 8822SOL    HW227918   7.253   8.478   1.423  0.5001 -0.5357  1.6361
 8823SOL     OW27919   4.821   0.712   8.312  0.0645  0.1480 -0.5014
 8823SOL    HW127920   4.849   0.662   8.388 -0.0396 -0.5319 -0.9047
 8823SOL    HW227921   4.824   0.803   8.341  0.4348 -0.0742  0.1801
 8824SOL     OW27922   2.711   3.605   7.966  0.4086 -0.5606 -0.6747
 8824SOL    HW127923   2.655   3.633   8.039 -0.4760 -1.0441 -1.1584
 8824SOL    HW227924   2.798   3.601   8.004  0.2612  0.9158 -0.0862
 8825SOL     OW27925   3.344   2.017   7.957 -0.8512  0.2571  0.5200
 8825SOL    HW127926   3.375   2.106   7.937 -1.1729  0.5780  1.3895
 8825SOL    HW227927   3.381   1.998   8.043 -0.7310 -0.4849  0.3042
 8826SOL     OW27928   2.358   5.958   2.838 -0.0583 -0.1754 -0.0447
 8826SOL    HW127929   2.315   5.873   2.850 -0.9774  0.3648  0.6268
 8826SOL    HW227930   2.448   5.936   2.814  0.0651 -1.3491  1.3534
 8827SOL     OW27931   8.103   0.871   7.932  0.2663  0.1000 -0.1721
 8827SOL    HW127932   8.180   0.889   7.987 -0.0100  2.5677 -0.4648
 8827SOL    HW227933   8.109   0.777   7.912  1.6909 -0.3608  2.0421
 8828SOL     OW27934   1.828   5.359   2.516  0.4865  0.3112  0.4237
 8828SOL    HW127935   1.821   5.370   2.610  0.9091  0.9163  0.3931
 8828SOL    HW227936   1.897   5.421   2.490  0.7259 -0.2112 -0.2070
 8829SOL     OW27937   4.389   5.606   6.441 -0.2445 -0.5548 -0.1404
 8829SOL    HW127938   4.402   5.529   6.386 -0.0178 -0.7527  0.1867
 8829SOL    HW227939   4.465   5.661   6.422 -0.5752 -0.2612 -0.6203
 8830SOL     OW27940   6.192   4.455   2.394 -0.4050 -0.5488 -0.1321
 8830SOL    HW127941   6.243   4.521   2.441 -2.0880  0.1824  0.7300
 8830SOL    HW227942   6.115   4.502   2.362 -0.5652 -1.6184 -1.4364
 8831SOL     OW27943   3.049   0.071   8.464 -0.3897  0.2614 -0.0706
 8831SOL    HW127944   3.016  -0.018   8.474 -0.2122  0.1141 -0.7666
 8831SOL    HW227945   3.031   0.094   8.373 -0.0476  0.7815 -0.0160
 8832SOL     OW27946   6.605   8.115   7.854 -0.7607 -0.6044  0.1924
 8832SOL    HW127947   6.523   8.065   7.852 -1.3037  0.2571  0.2622
 8832SOL    HW227948   6.620   8.132   7.947 -1.9221  1.4492  0.0765
 8833SOL     OW27949   8.308   4.202   4.973 -0.2667 -0.8108  0.0418
 8833SOL    HW127950   8.340   4.179   4.886 -2.1444 -0.2678 -0.8370
 8833SOL    HW227951   8.299   4.118   5.018  2.6742 -0.9789  0.5218
 8834SOL     OW27952   5.799   3.961   2.205  0.0499  0.2695  0.0241
 8834SOL    HW127953   5.781   3.924   2.119  0.6426 -0.4043  0.1862
 8834SOL    HW227954   5.736   4.033   2.213 -2.6144 -1.9562  0.5563
 8835SOL     OW27955   1.442   5.792   5.950 -0.0154 -0.4878 -0.3329
 8835SOL    HW127956   1.415   5.877   5.914 -1.1478 -0.6051  0.2099
 8835SOL    HW227957   1.520   5.769   5.899 -1.2995 -0.4539 -2.4712
 8836SOL     OW27958   4.421   3.283   5.801  0.3711 -0.3426 -0.1022
 8836SOL    HW127959   4.508   3.243   5.811  1.1738  1.5305  0.8701
 8836SOL    HW227960   4.435   3.357   5.743 -1.0937 -1.3369 -1.8600
 8837SOL     OW27961   2.929   8.507   3.194 -0.5072  0.2857 -0.3540
 8837SOL    HW127962   2.994   8.530   3.128 -2.6777  2.0899 -2.0033
 8837SOL    HW227963   2.845   8.524   3.153 -2.0377 -0.5337  2.1861
 8838SOL     OW27964   2.368   6.328   7.142 -0.3156 -0.3316  0.2721
 8838SOL    HW127965   2.287   6.318   7.192  0.5982 -1.3221  1.6302
 8838SOL    HW227966   2.359   6.267   7.069 -0.7870 -0.4402  0.4170
 8839SOL     OW27967   0.684   0.639   1.786  0.4224  0.3838 -0.1404
 8839SOL    HW127968   0.652   0.587   1.713  0.5112  0.6920 -0.3980
 8839SOL    HW227969   0.672   0.730   1.759 -0.1842  0.5045  0.5060
 8840SOL     OW27970   3.635   0.938   7.087  0.3002  0.1035  0.2790
 8840SOL    HW127971   3.728   0.956   7.103  0.0513  1.9287 -0.1304
 8840SOL    HW227972   3.615   0.983   7.005 -0.3994 -2.3106 -0.9797
 8841SOL     OW27973   3.999   5.863   8.462  0.1776  0.2129 -0.2781
 8841SOL    HW127974   3.918   5.890   8.504  0.3475 -1.3345  1.1468
 8841SOL    HW227975   4.057   5.939   8.472 -0.3685  0.5235  0.6982
 8842SOL     OW27976   7.109   8.804   4.968  0.4428 -0.1803 -0.7172
 8842SOL    HW127977   7.096   8.724   4.918  0.6162 -0.9881  0.4770
 8842SOL    HW227978   7.136   8.774   5.055 -1.2236  1.0935  0.3101
 8843SOL     OW27979   8.561   9.128   1.770  0.0421 -0.3420  0.5542
 8843SOL    HW127980   8.647   9.153   1.737  0.0930 -1.8384 -0.4977
 8843SOL    HW227981   8.519   9.212   1.790  0.7761  0.5475 -1.3602
 8844SOL     OW27982   6.853   7.879   2.621  0.1161 -0.7044 -0.3767
 8844SOL    HW127983   6.798   7.894   2.699 -1.4791  1.8390 -1.8291
 8844SOL    HW227984   6.934   7.926   2.640  0.5648 -1.7974  0.5145
 8845SOL     OW27985   5.396   9.264   7.178  0.0083  0.3223 -0.1142
 8845SOL    HW127986   5.479   9.302   7.208 -0.1984  0.0389  0.8753
 8845SOL    HW227987   5.417   9.173   7.159 -0.3867 -0.2293  1.7972
 8846SOL     OW27988   3.997   9.168   6.518 -0.3914 -0.2996 -0.1846
 8846SOL    HW127989   3.919   9.206   6.559  0.2948 -0.0892  0.9856
 8846SOL    HW227990   4.069   9.220   6.553  0.3942 -1.4469 -0.0822
 8847SOL     OW27991   8.228   1.868   6.859  0.1023  0.4617  0.3105
 8847SOL    HW127992   8.201   1.946   6.907  0.2120  0.2294  0.7497
 8847SOL    HW227993   8.149   1.813   6.856 -0.5200  1.3813 -1.6136
 8848SOL     OW27994   1.018   5.062   3.251 -0.2428  0.2864 -0.3284
 8848SOL    HW127995   0.928   5.095   3.253 -0.0783  0.7455 -0.5460
 8848SOL    HW227996   1.048   5.069   3.342 -1.5462 -3.0022  0.4922
 8849SOL     OW27997   1.908   6.264   2.092  0.1653 -0.1265  0.5944
 8849SOL    HW127998   1.814   6.255   2.078  0.1970  1.2809 -0.9874
 8849SOL    HW227999   1.948   6.213   2.021  0.5353  0.4813  0.3493
 8850SOL     OW28000   2.161   1.204   2.516  0.6381 -0.1577 -0.4792
 8850SOL    HW128001   2.106   1.262   2.570 -0.3219  0.4913 -2.0759
 8850SOL    HW228002   2.182   1.257   2.439  1.3769 -1.2973 -1.0751
 8851SOL     OW28003   2.089   7.273   5.072 -0.3607 -0.5325 -0.7151
 8851SOL    HW128004   2.032   7.200   5.096 -0.1187 -0.9616 -1.4322
 8851SOL    HW228005   2.110   7.258   4.980 -0.5817  0.6161 -0.9731
 8852SOL     OW28006   5.109   3.155   4.168 -0.1090  0.0481  0.0059
 8852SOL    HW128007   5.154   3.221   4.221 -0.9839  0.2631  0.4997
 8852SOL    HW228008   5.176   3.123   4.108  0.2515  1.6305 -0.4880
 8853SOL     OW28009   7.766   3.167   0.599 -0.1196  1.1939  0.1154
 8853SOL    HW128010   7.742   3.253   0.632 -1.2028  0.3824  1.6027
 8853SOL    HW228011   7.849   3.147   0.642  0.1346  1.4871 -0.2344
 8854SOL     OW28012   1.650   7.219   5.512 -0.3591  0.7443 -0.0709
 8854SOL    HW128013   1.571   7.183   5.552 -0.8156  1.5247 -0.2407
 8854SOL    HW228014   1.618   7.286   5.452  0.5034  2.0474  0.8812
 8855SOL     OW28015   1.792   7.183   8.407  0.2647  0.2544  0.1062
 8855SOL    HW128016   1.849   7.146   8.475 -0.4621  1.5177  1.4796
 8855SOL    HW228017   1.750   7.257   8.450  0.2846  1.5335 -1.9753
 8856SOL     OW28018   8.960   4.212   6.097  0.0798  0.8615  0.7067
 8856SOL    HW128019   9.019   4.138   6.109 -0.2946  0.5323  0.5470
 8856SOL    HW228020   8.882   4.190   6.148 -0.1087  1.0586  0.5126
 8857SOL     OW28021   8.489   1.120   9.197 -0.2309  0.7234  0.7078
 8857SOL    HW128022   8.399   1.088   9.209  0.2057 -0.3118  1.3674
 8857SOL    HW228023   8.542   1.063   9.252  1.4051 -1.5538 -2.8108
 8858SOL     OW28024   5.279   0.899   2.659 -0.0717 -0.2235 -0.0292
 8858SOL    HW128025   5.352   0.948   2.698  0.5948 -1.1740 -0.0580
 8858SOL    HW228026   5.300   0.807   2.676 -1.3753 -0.5094  0.1542
 8859SOL     OW28027   5.854   5.848   4.521 -0.6074  0.4262 -0.1830
 8859SOL    HW128028   5.762   5.825   4.529 -0.2426 -0.5759  1.5624
 8859SOL    HW228029   5.877   5.887   4.605  1.0317 -1.1900  0.1892
 8860SOL     OW28030   7.806   7.906   2.946  0.5814 -0.2852 -0.3056
 8860SOL    HW128031   7.814   7.830   3.003 -0.4791  0.5258  1.0030
 8860SOL    HW228032   7.790   7.979   3.006 -0.1638  0.6869 -1.6244
 8861SOL     OW28033   3.326   3.664   4.689 -0.4792 -0.4488 -1.0623
 8861SOL    HW128034   3.390   3.683   4.620  0.8951 -1.6431 -0.1900
 8861SOL    HW228035   3.309   3.749   4.729  2.6617 -0.3340  0.3577
 8862SOL     OW28036   8.416   0.084   1.823  0.0986  0.3484  0.6117
 8862SOL    HW128037   8.381   0.157   1.772 -0.0102  0.6826  1.1563
 8862SOL    HW228038   8.342   0.052   1.874  0.5684  1.1390  1.8627
 8863SOL     OW28039   9.254   4.769   3.045 -0.4018  0.0331  0.0296
 8863SOL    HW128040   9.181   4.787   3.104  0.8112  0.9325  1.3216
 8863SOL    HW228041   9.280   4.679   3.066 -0.1278  0.2673  0.7091
 8864SOL     OW28042   8.420   7.029   7.910 -0.2413  0.7284 -0.3401
 8864SOL    HW128043   8.343   7.015   7.856 -0.4543 -0.2172  0.1814
 8864SOL    HW228044   8.442   6.942   7.944  0.8642  1.0332 -0.2238
 8865SOL     OW28045   6.412   3.598   7.213 -0.4626 -0.1949  0.1820
 8865SOL    HW128046   6.502   3.607   7.181 -0.6700  0.7563 -0.1699
 8865SOL    HW228047   6.368   3.678   7.184 -1.2480 -0.3338  0.9361
 8866SOL     OW28048   8.745   5.923   6.159  0.4045 -0.4905 -0.7428
 8866SOL    HW128049   8.693   5.875   6.094 -0.7921  0.9130 -0.8759
 8866SOL    HW228050   8.807   5.858   6.192 -2.4363 -2.7670  0.6026
 8867SOL     OW28051   4.633   4.416   5.228 -0.0077  0.3160  1.0051
 8867SOL    HW128052   4.602   4.360   5.157  0.5966  2.2901 -0.9839
 8867SOL    HW228053   4.568   4.486   5.234  0.0611  0.2916  2.2682
 8868SOL     OW28054   4.507   4.807   1.918 -0.5928 -0.7334  0.0493
 8868SOL    HW128055   4.545   4.742   1.977  1.0255  0.4151  0.3430
 8868SOL    HW228056   4.473   4.756   1.844 -0.9799 -2.0309  1.1017
 8869SOL     OW28057   1.282   4.630   7.393 -0.0152 -0.4476 -0.0881
 8869SOL    HW128058   1.267   4.700   7.331  0.6257  0.5829  0.8691
 8869SOL    HW228059   1.377   4.615   7.390 -0.0456 -0.7393  0.2705
 8870SOL     OW28060   0.957   1.166   7.737  0.1498 -0.5237  0.6115
 8870SOL    HW128061   0.954   1.121   7.652  0.7835 -0.5509  0.5954
 8870SOL    HW228062   1.050   1.187   7.749  0.0190 -0.2468  1.1574
 8871SOL     OW28063   2.160   1.292   6.274 -0.6596 -0.3096 -0.4956
 8871SOL    HW128064   2.151   1.254   6.187 -1.0955 -2.0594  0.2722
 8871SOL    HW228065   2.245   1.335   6.273 -0.6148 -0.4001 -1.7532
 8872SOL     OW28066   1.494   1.250   1.847  0.3459 -0.2670  0.0324
 8872SOL    HW128067   1.563   1.216   1.905  0.8274 -0.5868 -0.7112
 8872SOL    HW228068   1.422   1.188   1.856  0.1050  0.1263  0.8965
 8873SOL     OW28069   2.015   4.152   8.751  0.3807  0.3626 -0.0252
 8873SOL    HW128070   2.105   4.181   8.764  1.0065 -0.9190 -1.1791
 8873SOL    HW228071   2.018   4.057   8.766 -1.0364  0.4627  1.0791
 8874SOL     OW28072   7.453   3.659   5.073  0.4399  0.0292  0.5256
 8874SOL    HW128073   7.509   3.581   5.081  0.2451  0.0440  2.6276
 8874SOL    HW228074   7.364   3.623   5.068  0.5084  0.0551 -1.3325
 8875SOL     OW28075   1.080   0.879   4.970 -0.3757  0.4247 -0.4170
 8875SOL    HW128076   1.057   0.841   5.054 -0.0699  0.7341 -0.1900
 8875SOL    HW228077   1.115   0.806   4.919  0.0449  0.3647 -0.0462
 8876SOL     OW28078   1.384   2.951   5.707  0.1006  0.0646  0.2435
 8876SOL    HW128079   1.379   2.973   5.614  0.4334  1.0198  0.4476
 8876SOL    HW228080   1.292   2.947   5.735 -0.0002 -0.2128 -0.1131
 8877SOL     OW28081   8.579   1.610   1.285  0.2522 -0.5969  0.8186
 8877SOL    HW128082   8.520   1.678   1.254  1.5916  0.4518  0.4831
 8877SOL    HW228083   8.625   1.650   1.359  2.1821 -0.5081 -0.3405
 8878SOL     OW28084   1.882   6.624   1.174 -0.0373  0.2820 -0.2793
 8878SOL    HW128085   1.833   6.547   1.203  0.7439 -0.3483 -0.6133
 8878SOL    HW228086   1.826   6.663   1.107 -0.7256  0.3723  0.3301
 8879SOL     OW28087   7.985   0.912   3.683 -0.0563  0.0038 -0.1308
 8879SOL    HW128088   8.079   0.928   3.690 -0.1842  1.2514 -0.9096
 8879SOL    HW228089   7.979   0.825   3.641  0.7350 -0.2308  0.2224
 8880SOL     OW28090   0.449   5.719   4.987 -0.2482  0.3894 -0.1554
 8880SOL    HW128091   0.359   5.748   5.002  0.3333  2.4033 -0.3320
 8880SOL    HW228092   0.440   5.644   4.929 -1.8439  0.0727  0.4455
 8881SOL     OW28093   3.238   7.820   6.416 -0.5857  0.4806 -0.6151
 8881SOL    HW128094   3.172   7.820   6.486 -1.0705  0.5682 -1.0641
 8881SOL    HW228095   3.246   7.912   6.391  0.2968  0.5764 -0.0273
 8882SOL     OW28096   0.453   0.032   8.435 -0.1189  0.2048 -0.1665
 8882SOL    HW128097   0.469   0.126   8.422  0.0163  0.0929 -0.8590
 8882SOL    HW228098   0.371   0.015   8.388 -0.0452 -0.0634 -0.1974
 8883SOL     OW28099   4.935   5.481   8.163  0.5951 -0.4432  0.1534
 8883SOL    HW128100   4.952   5.387   8.162  2.4865 -0.1421 -0.5608
 8883SOL    HW228101   5.020   5.521   8.145 -0.5609  1.3318 -1.9454
 8884SOL     OW28102   4.380   5.906   4.450  0.4469 -0.7536  0.4853
 8884SOL    HW128103   4.328   5.963   4.392 -0.9136 -0.5737  1.8170
 8884SOL    HW228104   4.394   5.959   4.528  1.4274 -1.3355  0.7096
 8885SOL     OW28105   7.638   0.249   6.959 -0.0435 -0.2555 -0.4991
 8885SOL    HW128106   7.582   0.173   6.947  1.4005 -1.1806 -1.7260
 8885SOL    HW228107   7.625   0.301   6.879  1.6779 -1.0893 -1.3786
 8886SOL     OW28108   8.419   3.599   3.828 -0.3272 -0.3711  0.2369
 8886SOL    HW128109   8.436   3.693   3.841  0.2986 -0.3150 -0.8538
 8886SOL    HW228110   8.340   3.596   3.775 -0.0259 -0.4390 -0.2118
 8887SOL     OW28111   6.333   7.392   3.975  0.2954 -0.9195  0.1870
 8887SOL    HW128112   6.397   7.321   3.981  0.8118 -0.8501 -2.8300
 8887SOL    HW228113   6.266   7.358   3.915 -0.1702  0.6336 -0.2092
 8888SOL     OW28114   6.310   2.389   6.288 -0.1145  0.3643 -0.0396
 8888SOL    HW128115   6.381   2.441   6.252 -1.9432  2.3633 -0.9930
 8888SOL    HW228116   6.287   2.433   6.370 -0.8487  0.2805 -0.1946
 8889SOL     OW28117   5.835   0.152   6.621 -0.2945  0.6081  0.6754
 8889SOL    HW128118   5.824   0.112   6.535  1.2561  2.7531 -0.6250
 8889SOL    HW228119   5.925   0.184   6.621 -0.3364  0.9139  3.0210
 8890SOL     OW28120   4.498   0.224   4.352 -0.0027 -0.6706  0.0392
 8890SOL    HW128121   4.558   0.185   4.416 -1.2381 -1.4710  0.7360
 8890SOL    HW228122   4.497   0.163   4.278  0.7942 -0.1518 -0.4160
 8891SOL     OW28123   7.469   3.176   3.151  0.3124  0.4757  0.0955
 8891SOL    HW128124   7.465   3.084   3.125  1.2085  0.4784 -0.0960
 8891SOL    HW228125   7.540   3.180   3.215 -0.7623  0.7690  1.3038
 8892SOL     OW28126   3.252   8.637   6.921  0.1204 -0.0147  0.8824
 8892SOL    HW128127   3.171   8.688   6.930 -0.8205 -0.8190 -2.0957
 8892SOL    HW228128   3.309   8.692   6.867  0.3579 -0.7696  0.3614
 8893SOL     OW28129   0.352   8.597   5.959  0.1142  0.3971 -0.4450
 8893SOL    HW128130   0.321   8.613   5.870  0.0812 -2.4297 -1.0414
 8893SOL    HW228131   0.324   8.507   5.978  1.5672  0.3461  1.7956
 8894SOL     OW28132   3.567   0.331   1.332  0.1099 -0.2406 -0.6390
 8894SOL    HW128133   3.622   0.259   1.303 -0.6868 -1.2229  0.2221
 8894SOL    HW228134   3.532   0.303   1.417 -0.5547  0.9748 -0.4785
 8895SOL     OW28135   3.773   3.939   6.039 -0.1081  0.2217 -0.1480
 8895SOL    HW128136   3.814   3.902   6.118  0.3041  1.5430  0.2829
 8895SOL    HW228137   3.733   4.021   6.069 -1.9943 -0.3848 -0.8347
 8896SOL     OW28138   8.292   6.397   7.336 -0.0602 -0.3439 -0.0426
 8896SOL    HW128139   8.314   6.397   7.243 -0.7519  0.5895 -0.2292
 8896SOL    HW228140   8.376   6.400   7.381  0.2801  1.3418 -0.6963
 8897SOL     OW28141   2.109   8.997   2.998  0.5876  0.6882 -0.6910
 8897SOL    HW128142   2.097   9.079   2.949 -1.1104  0.2780 -1.0055
 8897SOL    HW228143   2.204   8.984   2.998  0.7227  0.9780 -3.4581
 8898SOL     OW28144   2.626   5.934   0.599  0.2936 -0.5076 -0.3953
 8898SOL    HW128145   2.560   5.878   0.641 -0.4529  0.4910 -0.1933
 8898SOL    HW228146   2.609   5.925   0.505 -0.0380 -0.3773 -0.3500
 8899SOL     OW28147   2.851   7.731   3.399 -0.4376  0.1919 -0.7177
 8899SOL    HW128148   2.889   7.643   3.397 -0.8251  0.0277 -1.0337
 8899SOL    HW228149   2.768   7.720   3.447 -0.6664  0.3135 -1.0833
 8900SOL     OW28150   6.952   6.777   5.814  0.0973  0.4681 -0.0048
 8900SOL    HW128151   6.877   6.742   5.766  0.7387 -1.3066  0.2423
 8900SOL    HW228152   6.920   6.860   5.850 -1.3641  0.3214 -0.8861
 8901SOL     OW28153   7.794   3.814   5.015 -0.3984 -0.2939 -0.4197
 8901SOL    HW128154   7.767   3.777   4.931  0.7466 -0.3250 -0.7906
 8901SOL    HW228155   7.764   3.751   5.080 -1.9547  0.0920 -0.7322
 8902SOL     OW28156   7.863   2.165   8.061  0.1499 -0.0704  0.1085
 8902SOL    HW128157   7.945   2.136   8.019 -0.4597  0.7718 -1.7717
 8902SOL    HW228158   7.885   2.171   8.154  2.2229  0.0900 -0.3338
 8903SOL     OW28159   0.219   4.116   8.065  0.1445 -0.2529  0.1185
 8903SOL    HW128160   0.159   4.150   7.998  0.6661  2.5321  0.9369
 8903SOL    HW228161   0.300   4.165   8.050  1.4752 -2.2191  0.5469
 8904SOL     OW28162   6.837   0.611   1.111 -0.1030  0.1706 -0.0329
 8904SOL    HW128163   6.768   0.604   1.045 -1.2514  2.1935  0.8397
 8904SOL    HW228164   6.918   0.618   1.060 -0.4822 -2.2037 -1.0801
 8905SOL     OW28165   3.556   2.668   0.895 -0.4913 -0.1766 -0.1071
 8905SOL    HW128166   3.517   2.743   0.852  1.0778 -0.0631 -1.4664
 8905SOL    HW228167   3.490   2.637   0.957 -1.6646  1.4989 -0.4771
 8906SOL     OW28168   2.364   0.233   5.080  0.2427  0.1586 -0.1235
 8906SOL    HW128169   2.439   0.182   5.050  0.5470 -1.5720  3.1281
 8906SOL    HW228170   2.391   0.324   5.068  2.2498 -0.4227 -0.4335
 8907SOL     OW28171   3.928   1.292   2.438 -0.0691 -0.1365  0.3183
 8907SOL    HW128172   3.988   1.304   2.511 -0.3397  0.4312  0.4527
 8907SOL    HW228173   3.977   1.320   2.361 -0.3781  0.9744  0.5115
 8908SOL     OW28174   7.714   0.646   7.917  0.2962  0.0607  0.0299
 8908SOL    HW128175   7.629   0.629   7.877 -0.5407  0.2420  1.6417
 8908SOL    HW228176   7.756   0.560   7.922  0.2464 -0.0195 -0.8227
 8909SOL     OW28177   5.876   7.806   3.897  0.4878  0.1616 -0.0707
 8909SOL    HW128178   5.832   7.888   3.916  0.7563  0.2067  0.3509
 8909SOL    HW228179   5.842   7.744   3.962  1.6803  0.4125  0.8358
 8910SOL     OW28180   5.556   7.037   9.154 -0.3092 -0.0546 -0.2308
 8910SOL    HW128181   5.557   7.084   9.238 -0.3560  1.1785 -0.9116
 8910SOL    HW228182   5.553   6.944   9.180 -0.8162  0.3071  1.1347
 8911SOL     OW28183   5.870   3.833   3.988 -0.4361 -0.1246 -0.0121
 8911SOL    HW128184   5.777   3.821   3.967 -0.6956 -0.5006  1.2745
 8911SOL    HW228185   5.876   3.923   4.020 -0.1244  0.2903 -1.1698
 8912SOL     OW28186   2.945   8.998   5.468  0.2582  0.1355 -0.1345
 8912SOL    HW128187   3.030   9.040   5.483  0.3483  0.3474 -1.2068
 8912SOL    HW228188   2.887   9.037   5.534  0.6766  0.9302 -0.2286
 8913SOL     OW28189   0.582   2.633   2.065 -0.1955 -0.4984  0.4887
 8913SOL    HW128190   0.599   2.539   2.051  0.6581 -0.2945  0.0476
 8913SOL    HW228191   0.668   2.669   2.088 -0.3852  0.2904 -0.0217
 8914SOL     OW28192   7.288   1.934   6.460 -0.4288 -0.0964 -0.9076
 8914SOL    HW128193   7.295   1.892   6.374  1.2622 -1.8104 -0.0080
 8914SOL    HW228194   7.240   1.871   6.514 -0.6450  0.5406 -0.3339
 8915SOL     OW28195   9.207   3.286   1.152 -0.3423 -0.1093  0.4510
 8915SOL    HW128196   9.219   3.381   1.145  0.0607 -0.0892  1.2820
 8915SOL    HW228197   9.115   3.271   1.129 -0.0662  0.3244 -1.0133
 8916SOL     OW28198   3.404   2.305   0.510  0.0558 -0.2268 -0.2211
 8916SOL    HW128199   3.369   2.319   0.598 -1.3097  0.0576 -0.7867
 8916SOL    HW228200   3.392   2.211   0.494  3.7387 -1.1406  1.2675
 8917SOL     OW28201   0.350   4.599   9.167 -0.3774  0.2703  0.4205
 8917SOL    HW128202   0.289   4.641   9.228  0.8990  0.5803  1.5102
 8917SOL    HW228203   0.425   4.574   9.220  1.0509  1.0780 -1.1034
 8918SOL     OW28204   2.245   6.751   6.430  0.1314 -0.5930 -0.3806
 8918SOL    HW128205   2.294   6.738   6.349 -1.6793 -2.4736 -1.2614
 8918SOL    HW228206   2.198   6.833   6.417  1.4147  0.1840 -0.3367
 8919SOL     OW28207   7.451   6.029   1.204 -0.4336 -0.1059  0.0450
 8919SOL    HW128208   7.467   6.006   1.296 -2.4587 -1.6118  0.0972
 8919SOL    HW228209   7.474   5.951   1.155  2.5207  1.3043 -1.0676
 8920SOL     OW28210   6.492   3.703   1.741 -0.1553  0.3206 -0.4022
 8920SOL    HW128211   6.465   3.635   1.679 -1.7218  0.0139  0.5386
 8920SOL    HW228212   6.410   3.746   1.766  0.3922  0.3695  1.4928
 8921SOL     OW28213   7.372   8.103   0.696 -0.2135  0.0864 -0.1318
 8921SOL    HW128214   7.355   8.020   0.739 -0.8956  0.9014  1.2156
 8921SOL    HW228215   7.468   8.110   0.694 -0.1255 -1.0460 -0.9445
 8922SOL     OW28216   0.803   7.163   3.405  0.1189  0.3507 -0.2243
 8922SOL    HW128217   0.863   7.089   3.409  1.2944  1.2624 -0.2307
 8922SOL    HW228218   0.780   7.181   3.497 -1.0873 -0.7058 -0.2925
 8923SOL     OW28219   8.143   8.822   4.947  0.7635  0.2446 -0.3585
 8923SOL    HW128220   8.067   8.780   4.909 -0.4660  0.3609  1.7789
 8923SOL    HW228221   8.108   8.900   4.991  1.8956 -0.2365  1.5501
 8924SOL     OW28222   9.111   8.830   3.934 -0.1142  0.9549  0.4802
 8924SOL    HW128223   9.083   8.776   4.008 -1.2565 -0.4071 -0.8814
 8924SOL    HW228224   9.088   8.919   3.960  1.7320  0.8652  2.7516
 8925SOL     OW28225   1.627   1.981   6.347 -0.1840 -0.3339  0.1811
 8925SOL    HW128226   1.676   1.988   6.265 -0.2671  0.7246  0.2109
 8925SOL    HW228227   1.558   1.918   6.328 -0.1737 -0.1355 -0.5523
 8926SOL     OW28228   1.130   4.742   1.301 -0.5157 -0.3352 -0.3661
 8926SOL    HW128229   1.094   4.656   1.281 -2.4553  0.8779 -2.5114
 8926SOL    HW228230   1.179   4.767   1.223 -1.1316  1.0389 -0.3458
 8927SOL     OW28231   6.594   4.910   2.458 -0.1911 -0.5864 -0.5139
 8927SOL    HW128232   6.574   4.837   2.399 -2.0999 -1.2582  0.8556
 8927SOL    HW228233   6.682   4.892   2.490 -0.2153 -1.6945 -1.0255
 8928SOL     OW28234   4.356   3.264   5.214  0.2258 -0.0120  0.1704
 8928SOL    HW128235   4.374   3.172   5.193 -0.6728 -0.8068  2.5559
 8928SOL    HW228236   4.388   3.275   5.303 -0.3871  1.7818  0.2078
 8929SOL     OW28237   8.150   2.553   2.806 -0.4260  0.1827 -0.4214
 8929SOL    HW128238   8.219   2.618   2.796 -0.7628  0.2638 -2.7110
 8929SOL    HW228239   8.194   2.475   2.840  0.6608  0.4844 -1.1017
 8930SOL     OW28240   6.764   3.407   7.325  0.2247 -0.0488  0.4408
 8930SOL    HW128241   6.759   3.413   7.230  0.2511  0.2677  0.4577
 8930SOL    HW228242   6.830   3.471   7.350  1.3517 -1.2252  0.5613
 8931SOL     OW28243   6.559   6.497   6.500  0.0580  0.1285  0.0077
 8931SOL    HW128244   6.592   6.586   6.492  0.3435  0.3361  2.5893
 8931SOL    HW228245   6.473   6.498   6.459  0.8885  1.0129 -1.8352
 8932SOL     OW28246   7.869   3.080   0.904  0.4078  0.4257  0.3188
 8932SOL    HW128247   7.786   3.039   0.878  0.3338  1.0271 -0.4342
 8932SOL    HW228248   7.860   3.094   0.998  0.0782 -0.4614  0.4375
 8933SOL     OW28249   6.322   8.090   4.332  0.3733  0.3781  0.2214
 8933SOL    HW128250   6.296   8.153   4.399 -0.9145 -0.9221  1.0156
 8933SOL    HW228251   6.292   8.128   4.250 -3.0892 -0.4047  0.9510
 8934SOL     OW28252   8.023   5.435   1.750  0.2373 -0.2383  0.2733
 8934SOL    HW128253   8.034   5.367   1.816 -1.3065 -1.3890 -0.5955
 8934SOL    HW228254   7.934   5.422   1.716  0.6963  0.8175 -1.4762
 8935SOL     OW28255   5.214   4.578   4.445  0.0061 -0.6790  0.9058
 8935SOL    HW128256   5.160   4.499   4.450 -0.6123 -0.4397 -1.1111
 8935SOL    HW228257   5.229   4.603   4.536 -2.3905 -1.3718  1.5516
 8936SOL     OW28258   1.937   8.918   0.831  0.0910 -0.6321 -0.0119
 8936SOL    HW128259   1.848   8.913   0.865 -0.0363 -0.8322 -0.3739
 8936SOL    HW228260   1.990   8.947   0.906 -0.5212  1.1427 -0.2150
 8937SOL     OW28261   0.393   2.559   4.223  0.2731 -0.1341  0.4759
 8937SOL    HW128262   0.420   2.616   4.295  1.1841 -0.0104  0.0465
 8937SOL    HW228263   0.474   2.536   4.178 -0.1813 -1.0011  0.0639
 8938SOL     OW28264   3.503   1.438   6.394 -0.1263  0.4280 -0.1211
 8938SOL    HW128265   3.580   1.486   6.363  0.6056 -0.4251  0.3129
 8938SOL    HW228266   3.429   1.490   6.364  0.6310  1.9882  0.5963
 8939SOL     OW28267   4.642   8.541   2.860 -0.2743 -0.5524 -0.1952
 8939SOL    HW128268   4.649   8.446   2.868 -0.0101 -0.4908  0.4454
 8939SOL    HW228269   4.623   8.571   2.949  0.5874  0.0647 -0.2008
 8940SOL     OW28270   8.924   3.126   3.148  0.4144  0.4727  0.0365
 8940SOL    HW128271   8.879   3.096   3.226  1.3437 -0.5084  0.2177
 8940SOL    HW228272   8.961   3.047   3.109  1.8615  1.2072 -0.1545
 8941SOL     OW28273   0.458   6.123   8.395  0.4477  0.0708  0.7417
 8941SOL    HW128274   0.465   6.194   8.331  1.7912  0.5076  1.3518
 8941SOL    HW228275   0.532   6.066   8.375  0.2948 -0.3177  1.2800
 8942SOL     OW28276   7.701   5.900   3.348 -0.3702 -0.0348  0.7343
 8942SOL    HW128277   7.620   5.948   3.328 -0.3597 -0.2720  0.0850
 8942SOL    HW228278   7.715   5.845   3.271  0.4321  0.0353  0.8248
 8943SOL     OW28279   3.545   3.254   5.989 -0.7941 -0.3881  0.2376
 8943SOL    HW128280   3.554   3.161   6.009 -0.2920 -0.2900  0.4756
 8943SOL    HW228281   3.605   3.298   6.049 -0.2790  0.0114 -0.5547
 8944SOL     OW28282   5.616   3.185   3.768 -0.4149  0.4011  0.3008
 8944SOL    HW128283   5.546   3.247   3.783  0.4194  1.7899 -1.2098
 8944SOL    HW228284   5.689   3.218   3.821  0.1984  1.0500 -0.9198
 8945SOL     OW28285   3.029   4.285   5.807 -0.3139  0.1470 -0.6240
 8945SOL    HW128286   3.001   4.376   5.797  1.1267  0.9212  1.6007
 8945SOL    HW228287   2.953   4.239   5.842 -0.5239  0.9111 -0.0628
 8946SOL     OW28288   5.030   0.791   1.552 -0.3582 -0.0025 -0.0789
 8946SOL    HW128289   5.112   0.838   1.568 -0.3006 -0.3768  0.7478
 8946SOL    HW228290   5.018   0.798   1.457  0.8467 -0.3047 -0.2803
 8947SOL     OW28291   0.262   6.019   4.844  0.4541 -0.0629 -0.3348
 8947SOL    HW128292   0.241   5.938   4.799 -2.4831  0.6605 -0.4767
 8947SOL    HW228293   0.212   6.015   4.926 -0.9729  2.1646 -1.0141
 8948SOL     OW28294   0.005   2.181   4.200  0.0424 -0.3031  0.5404
 8948SOL    HW128295  -0.050   2.164   4.123  0.0904  0.4246  0.3432
 8948SOL    HW228296  -0.025   2.117   4.265 -0.3640 -0.5645  0.1028
 8949SOL     OW28297   1.660   0.433   4.752 -0.1778 -0.2507  0.8197
 8949SOL    HW128298   1.652   0.503   4.688 -0.7421 -0.4851  0.6287
 8949SOL    HW228299   1.744   0.391   4.731  1.4034  1.8719  2.4697
 8950SOL     OW28300   2.143   2.351   7.027  0.3839  0.0823  0.7487
 8950SOL    HW128301   2.051   2.336   7.008 -0.0625  0.9772  2.0702
 8950SOL    HW228302   2.144   2.427   7.086  1.9931  0.3826  0.3972
 8951SOL     OW28303   0.188   8.470   5.394 -0.5202  0.3163 -0.4744
 8951SOL    HW128304   0.238   8.550   5.374  1.8179 -0.9995 -0.1733
 8951SOL    HW228305   0.114   8.474   5.333  0.6427  1.7145 -1.9140
 8952SOL     OW28306   5.630   0.388   6.479  0.2925 -0.5435 -0.4545
 8952SOL    HW128307   5.700   0.362   6.419  0.6356 -0.4501 -0.0995
 8952SOL    HW228308   5.634   0.324   6.550 -0.6893 -1.1846 -0.9581
 8953SOL     OW28309   9.185   7.710   4.088 -0.2415 -0.3469 -0.2581
 8953SOL    HW128310   9.231   7.788   4.060  2.4207 -0.9909  1.8812
 8953SOL    HW228311   9.119   7.742   4.151 -0.2070  0.2951 -0.5444
 8954SOL     OW28312   7.491   8.122   3.883  0.0447 -0.0911  0.2234
 8954SOL    HW128313   7.501   8.104   3.789  0.1672  1.5273 -0.0951
 8954SOL    HW228314   7.448   8.207   3.887  0.4391  0.0648  1.6333
 8955SOL     OW28315   6.569   5.420   5.506  0.0943 -0.3073 -0.0532
 8955SOL    HW128316   6.600   5.511   5.510 -0.4368 -0.1591  1.5441
 8955SOL    HW228317   6.646   5.370   5.480  0.8080  0.4276  0.5891
 8956SOL     OW28318   7.341   1.115   2.900 -0.4118  0.0842  0.6033
 8956SOL    HW128319   7.434   1.117   2.921 -0.6550  0.6258  1.7165
 8956SOL    HW228320   7.306   1.197   2.936 -0.7918  1.3995 -2.4758
 8957SOL     OW28321   6.823   4.618   8.329 -0.3396 -0.1078 -0.1067
 8957SOL    HW128322   6.907   4.635   8.285  0.0587  1.0890  1.0728
 8957SOL    HW228323   6.777   4.702   8.325 -0.6772 -0.2387  0.9444
 8958SOL     OW28324   2.046   7.763   1.049  0.2484  0.6231  0.1039
 8958SOL    HW128325   2.070   7.820   0.976  1.1228  0.6662  0.4235
 8958SOL    HW228326   1.966   7.719   1.019 -1.1443  2.8730  0.3179
 8959SOL     OW28327   6.015   5.788   9.000 -0.0048 -0.0668 -0.2323
 8959SOL    HW128328   6.102   5.826   9.015 -0.7755  0.7335  2.9990
 8959SOL    HW228329   6.033   5.700   8.966  2.0242  0.5294 -0.8241
 8960SOL     OW28330   2.627   9.239   6.635  0.4269 -0.2596 -0.0550
 8960SOL    HW128331   2.549   9.228   6.689  0.9750 -2.0552  0.4549
 8960SOL    HW228332   2.604   9.197   6.551 -0.1513  1.8347 -1.0051
 8961SOL     OW28333   4.105   2.914   6.526  0.6057 -0.2516  0.2507
 8961SOL    HW128334   4.062   2.838   6.486  0.7624  0.0422 -0.5081
 8961SOL    HW228335   4.109   2.894   6.619  1.3753 -1.5418 -0.0268
 8962SOL     OW28336   2.650   5.341   1.129 -0.0846  0.1521  0.1746
 8962SOL    HW128337   2.599   5.409   1.086  1.3075  0.8823 -0.4056
 8962SOL    HW228338   2.588   5.270   1.145 -1.2169  0.9200 -0.6688
 8963SOL     OW28339   3.915   1.287   6.761 -0.1728  0.1071  0.3695
 8963SOL    HW128340   3.969   1.333   6.696  0.4838  0.3148  1.0460
 8963SOL    HW228341   3.920   1.195   6.734  1.0266  0.0381  0.7506
 8964SOL     OW28342   3.553   3.157   2.553 -0.0811  0.0630  0.5571
 8964SOL    HW128343   3.474   3.111   2.524  0.2904  0.1586 -0.6515
 8964SOL    HW228344   3.539   3.248   2.527  0.2973  0.1376  0.6088
 8965SOL     OW28345   2.222   2.740   0.741  0.6181 -0.1907 -0.4517
 8965SOL    HW128346   2.300   2.796   0.735  0.0157  0.8176  0.6269
 8965SOL    HW228347   2.149   2.802   0.735 -0.0749 -0.9644 -0.0359
 8966SOL     OW28348   3.657   7.055   3.106  0.0950  0.9559  0.6282
 8966SOL    HW128349   3.588   7.060   3.041 -1.0436 -0.4539  1.6640
 8966SOL    HW228350   3.732   7.100   3.066 -0.6814  0.4830 -1.4454
 8967SOL     OW28351   8.288   6.020   9.202  0.2249  0.0652 -0.2680
 8967SOL    HW128352   8.234   6.004   9.125 -0.4432  0.4964  0.0930
 8967SOL    HW228353   8.226   6.018   9.275  0.8035 -0.0668  0.2319
 8968SOL     OW28354   0.886   6.660   0.566  0.0577 -0.2216  0.0660
 8968SOL    HW128355   0.857   6.596   0.631 -1.9188  0.0941 -0.4437
 8968SOL    HW228356   0.868   6.618   0.482 -0.9719  0.8448 -0.2724
 8969SOL     OW28357   2.176   7.103   2.937 -0.7227 -0.4687  0.5390
 8969SOL    HW128358   2.157   7.034   2.874  0.9436 -1.3001  0.9031
 8969SOL    HW228359   2.182   7.058   3.021 -0.5715  0.2589  0.9273
 8970SOL     OW28360   8.624   0.622   8.897 -0.6590 -0.1681 -0.0680
 8970SOL    HW128361   8.670   0.705   8.895 -0.7400 -0.0674  1.1424
 8970SOL    HW228362   8.656   0.574   8.821  0.1594  0.5700 -0.1985
 8971SOL     OW28363   7.242   6.890   4.010 -0.3300  0.1098  0.0315
 8971SOL    HW128364   7.210   6.952   4.076  1.7722  1.6080 -0.2540
 8971SOL    HW228365   7.259   6.944   3.933  0.9901 -0.9359 -0.4374
 8972SOL     OW28366   3.112   3.394   1.883 -0.1896 -0.0258 -0.4177
 8972SOL    HW128367   3.068   3.392   1.968  0.5743  0.9171  0.0194
 8972SOL    HW228368   3.042   3.405   1.819 -0.8405 -1.4373  0.0221
 8973SOL     OW28369   2.798   8.640   9.069 -0.1719  0.3430 -0.4402
 8973SOL    HW128370   2.831   8.664   8.983 -0.4151  1.2346 -0.2975
 8973SOL    HW228371   2.760   8.554   9.057  1.9496 -0.6309 -0.6751
 8974SOL     OW28372   4.253   4.728   8.742  0.4719 -0.1294 -0.3727
 8974SOL    HW128373   4.310   4.732   8.818 -0.3652  0.0381  0.2563
 8974SOL    HW228374   4.261   4.638   8.710 -1.3547 -1.1142  1.6518
 8975SOL     OW28375   8.208   4.919   0.028 -0.3483 -0.1986 -0.5661
 8975SOL    HW128376   8.203   4.971   0.107  2.6883 -0.2321 -0.2463
 8975SOL    HW228377   8.154   4.966  -0.036 -1.6495  0.6123  1.0740
 8976SOL     OW28378   3.423   4.095   2.851 -0.3398  0.0505  0.0640
 8976SOL    HW128379   3.502   4.134   2.816  1.4180 -0.9855  2.5896
 8976SOL    HW228380   3.430   4.106   2.946 -3.3389  0.0816  0.3755
 8977SOL     OW28381   0.926   4.451   2.318  0.4945  0.1305  0.0079
 8977SOL    HW128382   0.926   4.461   2.223 -1.4551  1.2131  0.0758
 8977SOL    HW228383   0.991   4.383   2.335 -0.5103 -1.5332 -2.2674
 8978SOL     OW28384   7.284   4.498   4.146  0.3129 -0.1803  0.0662
 8978SOL    HW128385   7.331   4.435   4.201  0.1054 -2.5735 -2.3026
 8978SOL    HW228386   7.194   4.465   4.143  0.2679  0.0142 -1.4571
 8979SOL     OW28387   5.973   4.802   7.795 -0.2157  0.6663 -0.2234
 8979SOL    HW128388   6.043   4.828   7.855 -0.2401 -0.1418  0.1561
 8979SOL    HW228389   5.958   4.710   7.813  0.4731  0.1077 -2.1576
 8980SOL     OW28390   4.911   4.174   6.525  0.4659 -0.0978  0.0498
 8980SOL    HW128391   4.962   4.238   6.475 -0.7340 -0.5447 -1.8739
 8980SOL    HW228392   4.899   4.101   6.464 -0.4492 -1.0105  1.2705
 8981SOL     OW28393   6.422   3.955   6.284  0.5412  0.2465  0.3397
 8981SOL    HW128394   6.476   3.923   6.212  0.2496 -1.5792  0.8873
 8981SOL    HW228395   6.473   3.938   6.363 -0.5712 -1.0150  0.8260
 8982SOL     OW28396   2.166   1.841   0.838  0.1530  0.0166  0.1559
 8982SOL    HW128397   2.117   1.859   0.919  0.5272  1.5544  0.0717
 8982SOL    HW228398   2.256   1.828   0.867  0.3265  0.7870 -0.0310
 8983SOL     OW28399   7.871   8.974   8.721 -0.1474 -0.5053 -0.7450
 8983SOL    HW128400   7.890   9.066   8.705  2.2658 -0.5768  1.1371
 8983SOL    HW228401   7.776   8.972   8.736 -0.4055  1.4882 -1.7568
 8984SOL     OW28402   6.602   8.089   4.282  0.0018 -0.3573  0.8190
 8984SOL    HW128403   6.601   8.120   4.191  2.5820 -1.8297  0.1693
 8984SOL    HW228404   6.511   8.069   4.303 -0.5826 -0.4782 -1.6175
 8985SOL     OW28405   0.353   3.885   5.588 -0.1856  0.1963 -0.0061
 8985SOL    HW128406   0.367   3.806   5.640 -1.2819  1.3526  2.2235
 8985SOL    HW228407   0.277   3.865   5.533 -0.2637 -0.4007  0.3144
 8986SOL     OW28408   1.582   3.392   2.948  0.2036 -0.2735 -0.5006
 8986SOL    HW128409   1.607   3.396   3.040 -1.1388  1.5510 -0.1657
 8986SOL    HW228410   1.655   3.347   2.905  0.5627 -1.7157  1.5219
 8987SOL     OW28411   2.751   3.370   9.057  0.1740 -0.5150 -0.7422
 8987SOL    HW128412   2.843   3.353   9.077 -0.4125  0.4200  3.8584
 8987SOL    HW228413   2.741   3.464   9.072 -1.5729 -0.6625 -0.8181
 8988SOL     OW28414   4.100   9.016   3.500 -0.6000  0.0119  0.0475
 8988SOL    HW128415   4.098   9.104   3.463 -1.1040 -0.0915 -0.1889
 8988SOL    HW228416   4.012   8.981   3.483 -0.4167 -0.5209  0.1687
 8989SOL     OW28417   5.548   8.074   2.267  0.3303  0.4397  0.4966
 8989SOL    HW128418   5.551   8.049   2.359 -1.4546 -0.4899  0.3437
 8989SOL    HW228419   5.586   8.000   2.220 -1.0122 -0.1883  0.3478
 8990SOL     OW28420   0.625   0.433   0.234  0.1795 -0.2504  0.3023
 8990SOL    HW128421   0.634   0.360   0.173  1.0420 -1.1196  1.4106
 8990SOL    HW228422   0.563   0.492   0.192  1.0072 -0.6331 -1.5571
 8991SOL     OW28423   2.981   4.293   1.188  0.3959  0.4613  0.2192
 8991SOL    HW128424   2.997   4.335   1.104  0.3240  0.3366  0.1413
 8991SOL    HW228425   2.918   4.223   1.167 -0.0867  0.8132  0.4793
 8992SOL     OW28426   5.646   9.090   2.708 -0.2147  0.0702 -0.3343
 8992SOL    HW128427   5.611   9.177   2.687 -0.0308  0.0705 -0.6545
 8992SOL    HW228428   5.618   9.035   2.635  3.3876  0.8315 -2.5713
 8993SOL     OW28429   5.519   3.142   3.367 -0.0267  0.9744 -0.3997
 8993SOL    HW128430   5.513   3.235   3.390  0.5966  1.4443 -1.9972
 8993SOL    HW228431   5.579   3.105   3.432  0.6444  1.9487 -0.4372
 8994SOL     OW28432   3.143   7.995   3.142 -0.0530 -0.4429 -0.0357
 8994SOL    HW128433   3.143   8.070   3.202 -0.2053  0.3771 -1.0310
 8994SOL    HW228434   3.066   8.008   3.087 -0.0770 -1.3410 -0.2374
 8995SOL     OW28435   8.576   4.399   2.870  0.0082 -0.3532  0.3166
 8995SOL    HW128436   8.641   4.451   2.823  1.4081 -0.8883  1.5751
 8995SOL    HW228437   8.626   4.328   2.910 -1.1983 -0.2913  2.0488
 8996SOL     OW28438   1.065   3.950   0.837 -0.1477 -0.2137 -0.0147
 8996SOL    HW128439   0.975   3.932   0.865  0.4082 -1.9452  0.7959
 8996SOL    HW228440   1.092   4.024   0.891 -0.6708 -0.5218  0.6941
 8997SOL     OW28441   2.193   8.186   6.997 -0.1648  0.2571 -0.2245
 8997SOL    HW128442   2.160   8.270   6.967 -2.0312 -0.3284  0.0517
 8997SOL    HW228443   2.193   8.131   6.918  0.1424  0.2448 -0.2164
 8998SOL     OW28444   3.331   7.245   4.780  0.0865  0.4127 -0.5003
 8998SOL    HW128445   3.336   7.150   4.773 -1.2967  0.2410  0.5871
 8998SOL    HW228446   3.409   7.270   4.830  1.2473  0.0375 -2.0404
 8999SOL     OW28447   1.932   2.749   4.683 -0.3588  0.0945  0.3637
 8999SOL    HW128448   1.849   2.786   4.714 -0.6947 -1.2429  1.1251
 8999SOL    HW228449   1.979   2.725   4.764 -0.0061 -0.8060 -0.0986
 9000SOL     OW28450   5.143   3.727   8.830  0.6413  0.7051 -0.4206
 9000SOL    HW128451   5.184   3.758   8.910  0.5049  1.0107 -0.4667
 9000SOL    HW228452   5.136   3.805   8.775  1.4308  0.3559 -1.0331
 9001SOL     OW28453   6.058   4.660   9.099  0.5305 -0.5818  0.0887
 9001SOL    HW128454   6.019   4.652   9.186 -0.7039  0.8439 -0.2737
 9001SOL    HW228455   6.050   4.573   9.060  2.2312 -1.5712  1.8128
 9002SOL     OW28456   3.167   0.520   1.363  0.2041 -0.0157 -0.8750
 9002SOL    HW128457   3.258   0.527   1.334  1.2293  0.5953  2.1411
 9002SOL    HW228458   3.172   0.476   1.448 -2.3682 -0.3041 -0.7910
 9003SOL     OW28459   3.586   4.356   8.563 -0.9373  0.0474 -0.0212
 9003SOL    HW128460   3.545   4.416   8.626 -1.7350 -1.2443  0.7433
 9003SOL    HW228461   3.664   4.324   8.608 -0.0232  1.1316 -0.7738
 9004SOL     OW28462   8.448   1.921   1.950  0.1584 -0.4338  0.1888
 9004SOL    HW128463   8.402   1.888   1.872  0.1339 -1.0077  0.4406
 9004SOL    HW228464   8.379   1.957   2.005 -0.0699 -1.6891  0.7642
 9005SOL     OW28465   6.309   4.585   2.891  0.2166  0.2110 -0.2616
 9005SOL    HW128466   6.341   4.598   2.980 -0.2567  0.7517 -0.1595
 9005SOL    HW228467   6.231   4.641   2.885 -0.6138 -0.9196 -0.5472
 9006SOL     OW28468   0.239   8.201   4.446 -0.0333  0.4637 -0.3988
 9006SOL    HW128469   0.265   8.165   4.531 -2.2551  1.3186  0.7531
 9006SOL    HW228470   0.225   8.125   4.391 -1.1734 -0.3110  0.8872
 9007SOL     OW28471   8.590   7.536   8.054  0.4245 -0.3304  0.1517
 9007SOL    HW128472   8.585   7.484   8.134  0.6271  0.8926  0.9970
 9007SOL    HW228473   8.541   7.486   7.988 -1.5428 -0.4060  1.5828
 9008SOL     OW28474   1.780   4.905   8.139 -0.0368 -0.0207 -0.3203
 9008SOL    HW128475   1.810   4.843   8.206 -1.0895 -1.6364 -1.2811
 9008SOL    HW228476   1.694   4.872   8.113  0.0586  0.9672 -1.9800
 9009SOL     OW28477   8.434   2.411   2.840  0.1607 -0.3264  0.0086
 9009SOL    HW128478   8.490   2.429   2.916  0.5635  1.7557 -0.7049
 9009SOL    HW228479   8.442   2.490   2.786 -2.2227 -0.6278 -0.8987
 9010SOL     OW28480   7.869   4.044   8.917  0.6016  0.0364  0.2212
 9010SOL    HW128481   7.799   3.998   8.962 -0.8616  2.1427  0.2423
 9010SOL    HW228482   7.911   4.096   8.986  0.1786  1.1196 -0.3218
 9011SOL     OW28483   4.004   6.554   6.571  0.0024  0.0322 -0.2603
 9011SOL    HW128484   4.073   6.593   6.626  0.4468 -2.1830  0.8439
 9011SOL    HW228485   3.940   6.624   6.561  1.4921  1.5514  0.2981
 9012SOL     OW28486   5.993   8.652   7.932 -0.1764  0.0261 -0.4895
 9012SOL    HW128487   5.988   8.722   7.997  0.6421 -1.8121  1.7444
 9012SOL    HW228488   6.074   8.668   7.885  0.7314 -0.1312  0.9596
 9013SOL     OW28489   7.173   7.034   2.505  0.0631  0.6348 -0.3834
 9013SOL    HW128490   7.236   7.047   2.576  0.3228 -0.0498 -0.4792
 9013SOL    HW228491   7.217   6.975   2.444 -0.6822  0.1043 -0.4248
 9014SOL     OW28492   9.051   3.203   2.783 -0.0948  0.4702 -0.0921
 9014SOL    HW128493   8.995   3.146   2.731 -0.7163  0.4052  0.6376
 9014SOL    HW228494   9.000   3.284   2.793 -0.3059  0.2101  1.0420
 9015SOL     OW28495   8.934   6.579   5.979 -0.1008  0.3313  0.2360
 9015SOL    HW128496   8.912   6.604   6.069 -0.8024  1.9625 -0.3478
 9015SOL    HW228497   8.850   6.577   5.934  0.3673  0.7103 -0.6617
 9016SOL     OW28498   2.388   0.301   4.509 -0.3828 -0.0900  0.0869
 9016SOL    HW128499   2.428   0.281   4.425 -0.6977 -1.5340  0.2556
 9016SOL    HW228500   2.377   0.396   4.509 -0.1319 -0.0468 -1.3786
 9017SOL     OW28501   1.272   6.720   0.163  0.4301 -0.5343  0.1237
 9017SOL    HW128502   1.227   6.644   0.200  0.4519  0.1757  1.6649
 9017SOL    HW228503   1.238   6.795   0.212  1.0844  0.3568 -0.7439
 9018SOL     OW28504   5.035   1.791   9.257  0.0545 -0.0178  0.0693
 9018SOL    HW128505   5.059   1.704   9.290  0.1380 -0.1021 -0.2168
 9018SOL    HW228506   4.941   1.795   9.269  0.1155  0.0500  0.5586
 9019SOL     OW28507   5.796   0.770   3.781  0.4155 -0.5627  0.4267
 9019SOL    HW128508   5.870   0.710   3.794  0.6428  0.0448  2.1843
 9019SOL    HW228509   5.796   0.825   3.859 -0.4341  1.0487 -0.6559
 9020SOL     OW28510   5.467   5.139   9.163  0.0162 -0.6682 -0.1670
 9020SOL    HW128511   5.421   5.176   9.087 -0.4145 -1.2745 -0.2121
 9020SOL    HW228512   5.449   5.201   9.234 -1.0908 -1.0208 -0.1244
 9021SOL     OW28513   3.816   4.196   0.901  0.5410  0.1571  0.6518
 9021SOL    HW128514   3.874   4.241   0.963 -0.2275  0.8773  0.8608
 9021SOL    HW228515   3.855   4.213   0.815  2.2575 -1.7882  0.9613
 9022SOL     OW28516   3.973   6.409   4.200 -0.2501  0.3753 -0.2830
 9022SOL    HW128517   4.018   6.375   4.277  0.5534  4.3185  1.2334
 9022SOL    HW228518   3.881   6.389   4.214  0.2132 -1.9009 -0.0793
 9023SOL     OW28519   4.620   4.848   7.619 -0.3930 -0.1736 -0.0498
 9023SOL    HW128520   4.551   4.805   7.669 -0.6363  0.3350  0.0628
 9023SOL    HW228521   4.658   4.911   7.680  0.2896 -0.5753 -0.0585
 9024SOL     OW28522   7.815   4.252   3.101 -0.1240 -0.3582  0.0689
 9024SOL    HW128523   7.730   4.268   3.140 -0.9226  2.5376 -2.4296
 9024SOL    HW228524   7.864   4.333   3.116  1.3509 -1.1012 -0.5147
 9025SOL     OW28525   1.775   6.718   5.380  0.0945  0.0089 -0.6726
 9025SOL    HW128526   1.750   6.740   5.469  0.7723  0.1986 -0.5245
 9025SOL    HW228527   1.701   6.748   5.326 -0.5890 -0.6721 -0.1277
 9026SOL     OW28528   3.709   7.188   3.533  0.2487  0.1630  0.1710
 9026SOL    HW128529   3.656   7.196   3.453  0.0944 -1.5899  0.0659
 9026SOL    HW228530   3.782   7.248   3.520 -0.8201  1.3794 -0.4095
 9027SOL     OW28531   0.004   2.742   8.780  0.3704 -0.3464  0.9465
 9027SOL    HW128532  -0.004   2.696   8.696 -1.5159 -0.0788  0.9543
 9027SOL    HW228533   0.099   2.749   8.794  0.7440 -0.0498 -1.3379
 9028SOL     OW28534   8.478   7.400   4.677 -0.0549 -0.2407 -0.0039
 9028SOL    HW128535   8.409   7.411   4.611  0.7656  0.2296 -0.7982
 9028SOL    HW228536   8.507   7.489   4.696  1.9940 -0.5161 -1.4891
 9029SOL     OW28537   4.497   3.927   6.743  0.6342 -0.0829  0.0471
 9029SOL    HW128538   4.570   3.976   6.705  0.8204 -0.7540 -0.4672
 9029SOL    HW228539   4.484   3.967   6.829  1.2315  0.4160 -0.0873
 9030SOL     OW28540   7.728   2.536   9.282 -0.2437 -0.0320  0.6267
 9030SOL    HW128541   7.668   2.490   9.223  1.4004 -0.7612 -0.5398
 9030SOL    HW228542   7.703   2.505   9.369 -1.5290 -0.3391  0.1835
 9031SOL     OW28543   6.026   6.787   3.573  0.0815 -0.0794  0.3042
 9031SOL    HW128544   6.114   6.823   3.566  0.4894 -1.1596 -0.5638
 9031SOL    HW228545   5.992   6.790   3.483 -0.4122 -0.5033  0.4716
 9032SOL     OW28546   5.337   0.308   8.953  0.9711  0.9565 -0.0706
 9032SOL    HW128547   5.244   0.314   8.931  0.5433 -0.5140  1.1629
 9032SOL    HW228548   5.341   0.338   9.044  1.0844 -2.2403  1.0931
 9033SOL     OW28549   2.136   8.054   3.156  0.4001  0.5501 -0.2449
 9033SOL    HW128550   2.204   8.121   3.154  0.6217  0.3162 -2.2086
 9033SOL    HW228551   2.184   7.971   3.151  0.0915  0.2064  1.5522
 9034SOL     OW28552   7.340   4.763   0.698  0.4971 -0.1520  0.2135
 9034SOL    HW128553   7.322   4.754   0.791 -0.4315  0.7130  0.1390
 9034SOL    HW228554   7.435   4.752   0.690  0.8277  1.4643  1.4959
 9035SOL     OW28555   6.066   8.494   6.207 -0.3673 -0.0815 -0.0727
 9035SOL    HW128556   6.012   8.569   6.228 -0.4930 -0.7005  2.1517
 9035SOL    HW228557   6.153   8.517   6.240 -0.1159 -0.4333 -0.4789
 9036SOL     OW28558   3.354   3.913   7.619  0.5658 -0.2145 -0.5708
 9036SOL    HW128559   3.370   3.845   7.684  0.6980 -1.7721 -2.1279
 9036SOL    HW228560   3.273   3.956   7.647  0.1434 -1.4407  0.1558
 9037SOL     OW28561   4.623   6.577   3.065  0.2495  0.7737  0.3466
 9037SOL    HW128562   4.529   6.588   3.080  0.2777  0.8460  0.4706
 9037SOL    HW228563   4.638   6.483   3.070  0.1465  0.7423  0.1083
 9038SOL     OW28564   9.192   2.955   8.572  0.3740 -0.5282 -0.2591
 9038SOL    HW128565   9.145   2.988   8.649 -1.0241 -1.5090 -0.6413
 9038SOL    HW228566   9.284   2.951   8.599  0.2447  1.2533  0.5892
 9039SOL     OW28567   3.200   0.679   1.667  0.3661 -0.0427 -0.1989
 9039SOL    HW128568   3.132   0.660   1.732  0.8841  1.0468  0.7094
 9039SOL    HW228569   3.158   0.739   1.605 -0.4425 -1.8889 -1.5046
 9040SOL     OW28570   4.183   6.463   6.941  0.5909 -0.1743 -0.3149
 9040SOL    HW128571   4.252   6.397   6.954  0.8117 -0.2635 -1.7857
 9040SOL    HW228572   4.101   6.413   6.947  0.7235 -0.4120 -0.4445
 9041SOL     OW28573   2.302   9.053   0.940 -0.4966  0.8075  0.9357
 9041SOL    HW128574   2.268   9.040   1.028  0.1478 -0.7168  0.9942
 9041SOL    HW228575   2.290   9.146   0.922 -0.6933  1.1205  2.6002
 9042SOL     OW28576   0.784   2.431   5.753 -0.0319  0.2169 -0.0413
 9042SOL    HW128577   0.860   2.431   5.811 -0.8973  0.6436  1.1269
 9042SOL    HW228578   0.739   2.514   5.773 -1.0367 -0.2297 -0.3979
 9043SOL     OW28579   0.288   5.066   7.642  0.9064  0.4319  0.1365
 9043SOL    HW128580   0.233   5.019   7.579  0.0517  0.2270  1.0112
 9043SOL    HW228581   0.304   5.152   7.601 -0.0691  0.4902 -0.1363
 9044SOL     OW28582   7.973   1.775   2.716  0.1151 -0.5328 -0.0503
 9044SOL    HW128583   7.941   1.687   2.737 -2.0152  0.0302 -0.7102
 9044SOL    HW228584   7.960   1.825   2.797 -1.8474 -0.0345 -0.6150
 9045SOL     OW28585   0.016   6.051   3.049 -0.3297  0.4450 -0.1373
 9045SOL    HW128586  -0.020   5.978   3.099  1.0950  0.5578  1.1343
 9045SOL    HW228587  -0.001   6.028   2.957  1.1125 -2.1294  0.1136
 9046SOL     OW28588   1.227   8.222   6.464  0.5272 -0.2177  0.0142
 9046SOL    HW128589   1.156   8.213   6.527 -1.1297 -2.5206 -2.0054
 9046SOL    HW228590   1.205   8.301   6.415 -0.0801 -0.3563  0.0633
 9047SOL     OW28591   4.356   8.695   8.187 -0.4951  0.0910 -0.5551
 9047SOL    HW128592   4.416   8.690   8.261 -1.3094  2.1593  0.3195
 9047SOL    HW228593   4.410   8.670   8.111  1.1658  0.7673  0.3483
 9048SOL     OW28594   9.239   1.847   6.659  0.4116 -0.1930 -0.4706
 9048SOL    HW128595   9.269   1.874   6.746 -0.6763  0.1129 -0.1680
 9048SOL    HW228596   9.269   1.917   6.601  3.8514 -1.8620 -0.9248
 9049SOL     OW28597   2.407   1.333   5.153  0.0631 -0.2338 -0.1014
 9049SOL    HW128598   2.474   1.272   5.184 -1.2814 -0.2819  3.0966
 9049SOL    HW228599   2.455   1.414   5.136  1.1226 -0.6141  0.9172
 9050SOL     OW28600   6.209   5.777   3.960  0.0635  0.0476  0.0449
 9050SOL    HW128601   6.154   5.851   3.983 -2.7396 -1.0540 -2.3952
 9050SOL    HW228602   6.204   5.773   3.864  2.6429 -1.4850 -0.1131
 9051SOL     OW28603   6.786   8.993   4.501  0.0225  0.2393  0.0864
 9051SOL    HW128604   6.840   8.951   4.569 -0.5100 -0.5898  0.0112
 9051SOL    HW228605   6.793   9.086   4.519 -1.1686 -0.0081  2.1197
 9052SOL     OW28606   6.981   8.679   2.311  0.7271  0.5993  0.3209
 9052SOL    HW128607   6.889   8.656   2.301  0.5502  1.5998 -0.5281
 9052SOL    HW228608   7.002   8.657   2.402  0.0024 -0.7841  0.1758
 9053SOL     OW28609   8.922   1.986   8.786 -0.6904 -0.5002 -0.2403
 9053SOL    HW128610   9.004   1.935   8.788 -0.5278 -0.3558 -1.7609
 9053SOL    HW228611   8.950   2.074   8.763 -1.0995  0.0381  1.1995
 9054SOL     OW28612   8.922   0.149   3.973  0.0866 -0.4897  0.2364
 9054SOL    HW128613   9.015   0.154   3.993  0.3510  1.0886 -1.2627
 9054SOL    HW228614   8.886   0.233   4.000 -0.9126 -1.0271  0.6808
 9055SOL     OW28615   7.936   1.514   2.588 -0.1207  0.2801  0.7981
 9055SOL    HW128616   7.941   1.569   2.509 -1.2698  0.7163  1.0161
 9055SOL    HW228617   7.934   1.425   2.554  1.3738  0.3530  0.4247
 9056SOL     OW28618   8.370   7.297   1.869  0.3443  0.0000  0.3509
 9056SOL    HW128619   8.333   7.315   1.783  0.4520  0.1576  0.3365
 9056SOL    HW228620   8.455   7.257   1.851  0.6238  0.5719  0.3825
 9057SOL     OW28621   5.205   1.239   3.913  0.8038 -0.9885 -0.3536
 9057SOL    HW128622   5.129   1.277   3.870 -0.5286  0.3497  2.8110
 9057SOL    HW228623   5.188   1.145   3.913 -0.2037 -0.8233 -0.8956
 9058SOL     OW28624   6.553   3.301   5.883 -0.0190  0.4059 -0.3629
 9058SOL    HW128625   6.544   3.354   5.962  0.4135  1.0702 -0.7508
 9058SOL    HW228626   6.645   3.277   5.880  0.2555  1.4989 -1.3529
 9059SOL     OW28627   3.400   1.809   1.069  0.2043 -0.3650  0.1439
 9059SOL    HW128628   3.326   1.748   1.068 -0.1311  0.0409 -0.3190
 9059SOL    HW228629   3.444   1.792   1.153 -0.0527 -1.0334  0.1527
 9060SOL     OW28630   5.468   3.421   5.061  0.2911  0.3311 -0.3492
 9060SOL    HW128631   5.406   3.354   5.034  1.0185 -0.7166  0.5008
 9060SOL    HW228632   5.496   3.394   5.148  1.6816  0.9542 -0.5751
 9061SOL     OW28633   5.787   0.907   7.346 -0.0490 -0.0385  0.6258
 9061SOL    HW128634   5.703   0.915   7.302 -1.0899 -1.2853  2.2587
 9061SOL    HW228635   5.766   0.871   7.432  2.3028 -2.0571  0.4832
 9062SOL     OW28636   1.945   6.119   0.061 -0.0155 -0.2797  0.3138
 9062SOL    HW128637   2.021   6.135   0.117 -0.0231  0.7469  0.0414
 9062SOL    HW228638   1.949   6.188  -0.005 -1.1931 -0.2125  0.2951
 9063SOL     OW28639   1.011   0.699   3.124  0.8311  0.3038  0.1087
 9063SOL    HW128640   1.047   0.688   3.212  2.3141  1.1237 -0.3698
 9063SOL    HW228641   1.027   0.615   3.081 -0.1512 -0.1987  0.6756
 9064SOL     OW28642   8.005   8.940   0.177 -0.3503 -0.5660  0.4648
 9064SOL    HW128643   7.987   9.029   0.149  1.2406 -0.2978  0.1757
 9064SOL    HW228644   8.007   8.889   0.096  1.1472 -0.3758  0.3434
 9065SOL     OW28645   7.118   2.770   3.740 -0.8606 -0.2859  0.2980
 9065SOL    HW128646   7.134   2.860   3.712 -0.4721 -0.9138 -1.7260
 9065SOL    HW228647   7.029   2.751   3.711 -0.4237 -0.9856 -0.6599
 9066SOL     OW28648   2.385   1.082   2.737 -0.9502 -0.6592 -0.3942
 9066SOL    HW128649   2.410   1.170   2.707  0.3626 -1.0589 -0.5465
 9066SOL    HW228650   2.322   1.098   2.806 -1.7984  0.3654 -1.3638
 9067SOL     OW28651   0.792   1.256   2.047 -0.4054 -0.2579  0.2928
 9067SOL    HW128652   0.823   1.220   2.131 -0.7284  1.6446  1.2844
 9067SOL    HW228653   0.859   1.230   1.984  1.9042  1.4206  1.8652
 9068SOL     OW28654   8.024   7.851   8.338  0.4156 -0.2588  0.0199
 9068SOL    HW128655   8.069   7.769   8.358 -0.1296 -0.1220  2.1191
 9068SOL    HW228656   7.993   7.882   8.423  1.1523  2.4553 -0.5778
 9069SOL     OW28657   1.784   5.637   6.437 -0.5116 -0.1138  0.0917
 9069SOL    HW128658   1.777   5.603   6.348 -2.4984 -2.7314  1.1191
 9069SOL    HW228659   1.695   5.666   6.458  0.6285  4.3105  0.0147
 9070SOL     OW28660   5.233   7.041   9.050 -0.3712 -0.1579 -0.2282
 9070SOL    HW128661   5.314   7.089   9.033 -0.3116  0.3485  1.3611
 9070SOL    HW228662   5.178   7.060   8.974 -0.0144  1.7384 -0.0605
 9071SOL     OW28663   8.414   7.014   2.963  0.4009  0.0321 -0.4023
 9071SOL    HW128664   8.362   6.976   3.034 -1.8064  1.4899 -1.1105
 9071SOL    HW228665   8.417   7.107   2.984  1.5186  0.1750 -1.1634
 9072SOL     OW28666   4.380   0.148   8.157  0.6688 -0.0486 -0.4580
 9072SOL    HW128667   4.422   0.223   8.115 -1.3245  0.4950 -1.5823
 9072SOL    HW228668   4.390   0.077   8.094 -0.0905  0.0908 -0.7433
 9073SOL     OW28669   2.019   5.034   2.905  0.1575  0.0565 -0.8032
 9073SOL    HW128670   2.044   5.052   2.996  1.0544 -1.3725 -0.7281
 9073SOL    HW228671   1.932   4.994   2.911 -0.0725  0.5797 -0.6362
 9074SOL     OW28672   6.188   1.601   6.991 -0.3291 -0.5285 -0.2704
 9074SOL    HW128673   6.146   1.540   7.051 -0.0219 -2.1430 -1.6281
 9074SOL    HW228674   6.260   1.552   6.953  0.6397  1.0630 -0.5808
 9075SOL     OW28675   6.966   0.974   0.045  0.0118  0.2634 -0.1840
 9075SOL    HW128676   6.934   0.898   0.093 -2.5361  0.8767 -0.7197
 9075SOL    HW228677   6.966   0.947  -0.046  2.2627 -0.0575 -0.1398
 9076SOL     OW28678   3.006   3.002   4.285  0.2571 -0.7046 -0.0128
 9076SOL    HW128679   3.053   2.944   4.225  1.9725  2.3079 -1.8211
 9076SOL    HW228680   3.073   3.062   4.317 -2.0372  3.6190 -2.4487
 9077SOL     OW28681   8.472   0.596   6.512  0.2144 -0.4061 -0.6472
 9077SOL    HW128682   8.518   0.635   6.438  1.3250  0.1361  0.2952
 9077SOL    HW228683   8.534   0.602   6.585 -1.4362  0.6335  0.7543
 9078SOL     OW28684   2.638   0.615   9.277  0.3226  0.3616 -0.1682
 9078SOL    HW128685   2.707   0.646   9.218  0.3792 -0.6032 -0.6367
 9078SOL    HW228686   2.686   0.574   9.349  0.2513  1.4281  0.5038
 9079SOL     OW28687   2.472   1.499   1.039 -0.0860 -0.0258 -0.0725
 9079SOL    HW128688   2.424   1.488   0.957 -0.7279  1.0826  0.1269
 9079SOL    HW228689   2.417   1.557   1.091  0.9047  0.2901  0.6529
 9080SOL     OW28690   7.458   8.240   4.887 -0.3829  0.0644 -0.3602
 9080SOL    HW128691   7.475   8.154   4.925 -0.2618  0.2294 -0.0357
 9080SOL    HW228692   7.428   8.222   4.799 -1.9677 -0.3792  0.2498
 9081SOL     OW28693   7.550   8.865   5.456  0.2505  0.3326  0.1680
 9081SOL    HW128694   7.491   8.797   5.489 -1.6001  0.8716 -1.7630
 9081SOL    HW228695   7.555   8.929   5.527 -0.3136 -0.4356  0.9186
 9082SOL     OW28696   3.550   6.725   0.351  0.0054  0.2451  0.4634
 9082SOL    HW128697   3.517   6.701   0.265  0.0417 -0.1611  0.5631
 9082SOL    HW228698   3.557   6.643   0.399  0.8421  0.3644  0.5578
 9083SOL     OW28699   8.675   8.441   1.061 -0.4102  0.1931 -0.0416
 9083SOL    HW128700   8.586   8.415   1.086 -0.1763 -0.7429 -0.1603
 9083SOL    HW228701   8.676   8.436   0.966 -0.5292  1.2272 -0.1094
 9084SOL     OW28702   4.898   0.720   6.949  0.1864 -0.3175  0.3291
 9084SOL    HW128703   4.876   0.792   7.009  0.4114 -0.1026  0.1570
 9084SOL    HW228704   4.976   0.680   6.988 -0.3098 -0.8686  0.7616
 9085SOL     OW28705   3.265   0.677   7.118 -0.4688  0.2886 -0.5669
 9085SOL    HW128706   3.198   0.615   7.089  0.1226 -0.0281 -1.3090
 9085SOL    HW228707   3.343   0.624   7.131  0.3104  0.9630 -2.1255
 9086SOL     OW28708   5.454   0.037   1.141 -0.1011  0.1021  0.2014
 9086SOL    HW128709   5.448   0.069   1.051  0.5378  1.0406  0.4720
 9086SOL    HW228710   5.548   0.041   1.162 -0.3674  1.0853  1.3073
 9087SOL     OW28711   3.256   4.138   9.071  0.4332 -0.0387 -0.2141
 9087SOL    HW128712   3.285   4.192   9.145  0.8786 -1.3862  0.6238
 9087SOL    HW228713   3.167   4.170   9.052  0.4449  0.5542  0.6732
 9088SOL     OW28714   2.779   3.153   4.102  0.3476  0.1147 -0.2284
 9088SOL    HW128715   2.788   3.147   4.007 -0.5258  3.5018 -0.6841
 9088SOL    HW228716   2.707   3.215   4.115  0.5179 -0.1571  2.6506
 9089SOL     OW28717   7.621   4.041   8.001 -0.4876  0.2692 -0.4220
 9089SOL    HW128718   7.695   4.005   8.049 -1.8921 -1.0121  0.8896
 9089SOL    HW228719   7.625   4.135   8.019  0.5552  0.1666 -0.0202
 9090SOL     OW28720   4.194   3.613   7.063  0.0887 -0.3466  0.0811
 9090SOL    HW128721   4.276   3.570   7.041 -0.1574 -0.0606 -1.5105
 9090SOL    HW228722   4.139   3.601   6.986 -1.0736  0.1757  0.8012
 9091SOL     OW28723   8.788   5.725   3.767 -0.8344 -0.0485  0.7984
 9091SOL    HW128724   8.871   5.759   3.800  0.1538 -2.4827  1.0813
 9091SOL    HW228725   8.802   5.712   3.673 -2.0174  2.3764  0.1994
 9092SOL     OW28726   4.073   5.189   9.087 -0.4164  0.2848  0.1315
 9092SOL    HW128727   4.118   5.161   9.007 -2.8539  0.9644 -1.5739
 9092SOL    HW228728   4.022   5.113   9.114  0.1302  0.1707  0.8885
 9093SOL     OW28729   4.490   1.813   8.089 -0.1023 -0.1943  0.2932
 9093SOL    HW128730   4.507   1.775   8.003 -0.4962 -1.2441  0.6623
 9093SOL    HW228731   4.406   1.776   8.116 -2.4729  3.7444 -0.8730
 9094SOL     OW28732   6.362   4.754   6.523  0.4428  0.1547 -0.1177
 9094SOL    HW128733   6.342   4.693   6.452  2.8684  0.4971 -1.1905
 9094SOL    HW228734   6.297   4.734   6.590 -0.9357 -1.2874 -1.7633
 9095SOL     OW28735   1.648   2.570   7.422 -0.8165  0.4354 -0.0729
 9095SOL    HW128736   1.684   2.592   7.336 -0.6619  1.3961  0.2298
 9095SOL    HW228737   1.726   2.552   7.476 -0.8458  1.1623  0.2187
 9096SOL     OW28738   3.901   6.557   8.673 -0.5029  0.0037  0.1435
 9096SOL    HW128739   3.958   6.596   8.739 -0.1496  0.0731 -0.2027
 9096SOL    HW228740   3.960   6.526   8.604 -1.0011  2.0756 -1.2883
 9097SOL     OW28741   5.496   7.703   2.360  0.0083 -0.1761  0.2379
 9097SOL    HW128742   5.585   7.669   2.350 -0.1136 -0.7633  1.0386
 9097SOL    HW228743   5.453   7.642   2.420 -0.6435  0.6285  0.6219
 9098SOL     OW28744   7.499   5.254   2.700  0.0339  0.2463 -0.6524
 9098SOL    HW128745   7.572   5.193   2.690  0.4567  0.5408  0.4484
 9098SOL    HW228746   7.530   5.336   2.663  0.8244  0.7680  1.0744
 9099SOL     OW28747   1.416   5.005   6.141 -0.4184  0.1223 -0.2303
 9099SOL    HW128748   1.485   5.045   6.193  0.1315 -0.5459 -0.4238
 9099SOL    HW228749   1.351   5.074   6.129 -0.4405  0.3583  1.1302
 9100SOL     OW28750   7.049   1.868   1.728 -0.1686 -0.3007  0.2468
 9100SOL    HW128751   7.040   1.874   1.823 -2.5229  0.4607  0.0481
 9100SOL    HW228752   7.106   1.942   1.705 -1.0670  0.6396  0.9404
 9101SOL     OW28753   3.055   6.929   6.355  0.0064 -0.0903 -0.8663
 9101SOL    HW128754   2.969   6.963   6.380  0.7553  1.7317 -0.6534
 9101SOL    HW228755   3.035   6.856   6.295 -1.6745  0.1221 -0.6114
 9102SOL     OW28756   4.503   1.157   2.901  0.3239 -0.3495 -0.2556
 9102SOL    HW128757   4.499   1.251   2.885  0.1314 -0.5554 -1.4670
 9102SOL    HW228758   4.521   1.118   2.816 -1.5301 -1.5482 -0.1580
 9103SOL     OW28759   8.408   0.540   5.581  0.1236 -0.1273 -0.2299
 9103SOL    HW128760   8.392   0.520   5.488 -0.2168  0.1103 -0.2213
 9103SOL    HW228761   8.485   0.597   5.580 -0.3888  0.5740 -0.4311
 9104SOL     OW28762   7.081   2.726   9.190  0.3579 -0.2255 -0.0828
 9104SOL    HW128763   7.168   2.735   9.228  0.9160  1.7536 -1.6182
 9104SOL    HW228764   7.037   2.809   9.211  0.4563  0.6845 -2.9515
 9105SOL     OW28765   7.684   3.847   2.033  0.0294 -0.1740 -0.5094
 9105SOL    HW128766   7.773   3.813   2.043  0.9108  2.4440  2.0872
 9105SOL    HW228767   7.696   3.939   2.008 -1.9905  0.0244 -0.9598
 9106SOL     OW28768   0.023   6.289   5.673  0.2195 -0.0425  0.5605
 9106SOL    HW128769  -0.008   6.366   5.722  0.7193  0.4298  0.1351
 9106SOL    HW228770   0.059   6.232   5.741  0.0182  0.1739  0.8580
 9107SOL     OW28771   3.917   7.352   2.748 -0.0114  0.3790  0.1311
 9107SOL    HW128772   3.973   7.319   2.678 -0.6561 -0.5579  0.0398
 9107SOL    HW228773   3.843   7.392   2.704 -0.2385  0.1146  0.2686
 9108SOL     OW28774   3.158   1.713   6.970 -0.0076 -0.2441 -0.3452
 9108SOL    HW128775   3.139   1.717   6.876  0.3173 -0.7509 -0.4374
 9108SOL    HW228776   3.225   1.645   6.977  0.1153 -0.0608  0.2308
 9109SOL     OW28777   7.296   9.232   0.539 -0.2334  0.1762 -0.3053
 9109SOL    HW128778   7.355   9.174   0.586 -0.7529  0.1140  0.2768
 9109SOL    HW228779   7.255   9.285   0.607 -0.7132  0.3434 -0.7186
 9110SOL     OW28780   9.100   2.894   4.050 -0.3834  0.2373  0.1601
 9110SOL    HW128781   9.162   2.962   4.022 -0.2022 -0.1146 -0.3105
 9110SOL    HW228782   9.156   2.823   4.080 -0.5575 -0.0083 -0.0887
 9111SOL     OW28783   1.651   4.920   5.841  0.3183 -0.2721  0.3104
 9111SOL    HW128784   1.583   4.983   5.815  0.1317 -0.6417 -0.1258
 9111SOL    HW228785   1.669   4.871   5.760 -0.6074 -1.7803  0.9762
 9112SOL     OW28786   4.282   7.074   7.766  0.2565 -0.2535  0.2570
 9112SOL    HW128787   4.347   7.013   7.730  0.2256 -0.9781  1.3969
 9112SOL    HW228788   4.232   7.022   7.828  0.0018  0.8549  1.0033
 9113SOL     OW28789   5.231   2.454   6.839 -0.3353  0.1674  0.2306
 9113SOL    HW128790   5.255   2.517   6.771 -0.4850  0.5072  0.4853
 9113SOL    HW228791   5.144   2.422   6.813  0.5829 -1.4838 -0.9899
 9114SOL     OW28792   7.106   8.501   3.587 -0.0300  0.0046 -0.4112
 9114SOL    HW128793   7.026   8.555   3.585  0.4837  0.8674  1.0971
 9114SOL    HW228794   7.175   8.562   3.561  0.1292 -0.8299 -2.0582
 9115SOL     OW28795   5.313   1.126   5.120  0.3873 -0.4855 -0.2313
 9115SOL    HW128796   5.251   1.134   5.193 -0.9696 -0.9444 -1.2701
 9115SOL    HW228797   5.377   1.195   5.135  0.0001 -0.4114  1.2561
 9116SOL     OW28798   0.083   5.986   5.085 -0.9415 -0.2992 -0.0505
 9116SOL    HW128799   0.141   6.015   5.155 -1.0677  0.6701 -0.3394
 9116SOL    HW228800  -0.005   6.000   5.119 -1.0899 -2.7779  0.8214
 9117SOL     OW28801   7.465   3.490   3.990  0.3885 -0.0980  0.0591
 9117SOL    HW128802   7.529   3.422   3.967 -0.4758 -0.4903 -1.2792
 9117SOL    HW228803   7.382   3.443   3.997 -0.5766  1.0023 -2.6720
 9118SOL     OW28804   8.526   2.619   4.735  0.9792 -0.3310  0.4501
 9118SOL    HW128805   8.464   2.636   4.805  1.2746 -0.6519  0.7981
 9118SOL    HW228806   8.474   2.581   4.665  0.6899 -0.0598  0.5170
 9119SOL     OW28807   2.139   0.512   8.328  0.0292  0.0615  0.4512
 9119SOL    HW128808   2.169   0.601   8.341  0.0421  0.3350 -1.2332
 9119SOL    HW228809   2.123   0.479   8.416 -2.6808  2.6518  1.0909
 9120SOL     OW28810   6.482   0.986   1.380  0.2003  0.4587  0.1035
 9120SOL    HW128811   6.471   1.032   1.464 -0.2948  1.1169 -0.3118
 9120SOL    HW228812   6.421   0.912   1.386  0.7882  0.0094  0.6593
 9121SOL     OW28813   8.965   0.950   6.151  0.6302 -0.1079 -0.0048
 9121SOL    HW128814   9.018   0.907   6.218  1.7653  0.2315 -0.6533
 9121SOL    HW228815   8.971   1.043   6.170  0.3224 -0.0625 -0.1224
 9122SOL     OW28816   3.144   1.902   0.851  0.0479 -0.3303 -0.1300
 9122SOL    HW128817   3.204   1.974   0.873  1.1300 -1.4118  0.6309
 9122SOL    HW228818   3.095   1.887   0.931  0.2550 -0.8199 -0.0915
 9123SOL     OW28819   2.800   4.872   5.091 -0.3092 -0.0194  0.3205
 9123SOL    HW128820   2.772   4.839   5.005 -1.0175  0.1338  0.4839
 9123SOL    HW228821   2.854   4.802   5.128  0.1955  0.0086 -0.3417
 9124SOL     OW28822   3.525   1.023   0.110  0.2931  0.0980 -1.3646
 9124SOL    HW128823   3.547   1.003   0.201  0.9401 -1.7339 -1.8927
 9124SOL    HW228824   3.560   0.950   0.060 -2.0858 -0.0999 -2.8763
 9125SOL     OW28825   8.736   8.279   7.035  0.3881 -0.3831  0.0894
 9125SOL    HW128826   8.687   8.223   7.095 -0.6240 -1.3998 -1.6074
 9125SOL    HW228827   8.701   8.367   7.050  1.1887 -0.3246  1.9663
 9126SOL     OW28828   2.957   6.056   7.926 -0.3543  1.0047  0.4059
 9126SOL    HW128829   2.912   6.007   7.995  0.4089 -0.9678 -0.4194
 9126SOL    HW228830   3.050   6.038   7.940 -0.1964  0.3707 -1.2245
 9127SOL     OW28831   3.698   3.265   3.082  0.0329  0.0600  0.1234
 9127SOL    HW128832   3.701   3.300   2.993 -0.4359 -3.2939 -1.3489
 9127SOL    HW228833   3.605   3.251   3.100  0.2279 -1.5240  0.0884
 9128SOL     OW28834   2.232   2.242   5.968  0.2235 -0.3900 -0.1117
 9128SOL    HW128835   2.240   2.253   6.063 -1.2599  0.8398 -0.0967
 9128SOL    HW228836   2.209   2.329   5.936  2.1987 -0.4230 -1.8112
 9129SOL     OW28837   2.818   2.502   1.468 -0.0046 -0.5503  0.1875
 9129SOL    HW128838   2.889   2.564   1.483 -0.0952 -0.2229 -0.6668
 9129SOL    HW228839   2.763   2.509   1.545  0.4088 -0.1463  0.4504
 9130SOL     OW28840   1.219   5.094   7.378  0.7715 -0.2096  0.8791
 9130SOL    HW128841   1.221   5.184   7.346  1.7419 -1.0926 -1.8548
 9130SOL    HW228842   1.229   5.101   7.472 -1.8285  2.6310  1.0993
 9131SOL     OW28843   0.870   4.210   0.915  0.8896 -0.1491 -0.0778
 9131SOL    HW128844   0.837   4.186   0.828  1.6423 -1.2909 -0.0602
 9131SOL    HW228845   0.814   4.164   0.976 -0.7139  1.9442  0.1587
 9132SOL     OW28846   6.820   5.001   2.262 -0.8488 -0.3240  0.0037
 9132SOL    HW128847   6.727   5.015   2.283 -0.7945  1.6323 -0.7823
 9132SOL    HW228848   6.866   5.029   2.341 -0.9130 -0.6328  0.1492
 9133SOL     OW28849   8.037   0.120   0.810  0.0278  0.7312 -0.0362
 9133SOL    HW128850   8.114   0.171   0.785  0.8142  0.7176  2.2240
 9133SOL    HW228851   8.031   0.053   0.742  2.7259 -0.0018  0.3363
 9134SOL     OW28852   5.242   2.259   5.642 -0.3461  0.6617 -0.3005
 9134SOL    HW128853   5.279   2.228   5.725  1.3349 -0.2721 -1.3321
 9134SOL    HW228854   5.150   2.234   5.645 -0.1525  0.0339  0.9982
 9135SOL     OW28855   1.531   0.678   2.117 -0.0488  0.2193  0.5431
 9135SOL    HW128856   1.622   0.687   2.089 -0.1071 -0.0080  0.2697
 9135SOL    HW228857   1.509   0.762   2.157 -0.3399  1.0361 -1.2052
 9136SOL     OW28858   8.649   3.770   1.644  0.2674 -0.3767  0.1171
 9136SOL    HW128859   8.581   3.838   1.639 -0.1425 -0.6253  1.6375
 9136SOL    HW228860   8.636   3.718   1.565  0.8174  1.4787 -1.2689
 9137SOL     OW28861   7.565   8.940   6.461  0.3928 -0.3712 -0.3298
 9137SOL    HW128862   7.532   8.863   6.507  0.9889 -1.8442 -2.2337
 9137SOL    HW228863   7.532   8.931   6.371  0.2710  1.7524 -0.5518
 9138SOL     OW28864   3.151   0.302   7.216  0.4233  0.3010  0.0937
 9138SOL    HW128865   3.162   0.207   7.224  1.7138  0.5660  2.0399
 9138SOL    HW228866   3.056   0.316   7.226 -0.1097 -0.8776 -2.3531
 9139SOL     OW28867   7.788   3.405   1.172 -0.2055  0.4607 -0.0237
 9139SOL    HW128868   7.802   3.453   1.091 -1.0734  0.2311 -0.3276
 9139SOL    HW228869   7.747   3.468   1.231 -0.3318  0.4020 -0.0475
 9140SOL     OW28870   7.176   0.694   3.301  0.3686 -0.0170 -0.1322
 9140SOL    HW128871   7.133   0.690   3.216  0.0293 -1.2723  0.0900
 9140SOL    HW228872   7.133   0.768   3.345 -0.4334 -0.2340 -0.5248
 9141SOL     OW28873   3.123   8.456   4.081  0.3475 -0.0026 -0.0998
 9141SOL    HW128874   3.087   8.371   4.057  1.4704 -0.8443  1.0651
 9141SOL    HW228875   3.047   8.508   4.105 -0.3435 -0.7162 -0.6741
 9142SOL     OW28876   2.798   3.909   3.510 -0.4943  0.0224 -0.5410
 9142SOL    HW128877   2.829   3.994   3.543  0.7907 -0.2168 -1.0781
 9142SOL    HW228878   2.759   3.867   3.586  2.2393 -0.4379  0.7284
 9143SOL     OW28879   0.993   6.129   6.410  0.6739 -0.2421 -0.6441
 9143SOL    HW128880   0.907   6.129   6.453 -0.7606  1.0468 -3.2424
 9143SOL    HW228881   1.050   6.176   6.470 -1.1591  1.2779  0.0213
 9144SOL     OW28882   4.148   9.219   2.776  0.0980 -0.4776  0.1061
 9144SOL    HW128883   4.150   9.129   2.743 -0.3332 -0.2027 -0.6741
 9144SOL    HW228884   4.129   9.209   2.870  0.7989 -1.2331  0.1823
 9145SOL     OW28885   4.981   0.524   7.988  0.0532  0.0689 -0.0191
 9145SOL    HW128886   4.926   0.535   7.911  0.6919  1.0225 -0.3594
 9145SOL    HW228887   5.014   0.612   8.007 -1.3770  0.1560  2.3489
 9146SOL     OW28888   3.485   5.780   1.264 -0.3142 -0.5842 -0.3775
 9146SOL    HW128889   3.547   5.789   1.192  2.1892 -0.7991  1.5838
 9146SOL    HW228890   3.506   5.695   1.303  0.0180  0.4683  1.9126
 9147SOL     OW28891   2.222   1.568   0.470 -0.1419 -0.1060  0.5314
 9147SOL    HW128892   2.302   1.553   0.520 -0.7503 -0.5855  1.3766
 9147SOL    HW228893   2.186   1.650   0.504 -0.3878 -0.2651  0.6596
 9148SOL     OW28894   8.397   6.530   5.907 -0.7607 -0.2063 -0.4103
 9148SOL    HW128895   8.392   6.442   5.946  0.9983 -0.7670 -1.3447
 9148SOL    HW228896   8.466   6.574   5.957 -1.0027  0.3213 -0.5425
 9149SOL     OW28897   4.941   3.395   8.132 -0.2257  0.0656  0.7416
 9149SOL    HW128898   4.985   3.336   8.194 -0.6478 -0.1762  0.8192
 9149SOL    HW228899   4.988   3.384   8.050 -0.7060 -0.8881  0.5782
 9150SOL     OW28900   5.651   2.061   8.079 -0.0677  0.2106  0.1906
 9150SOL    HW128901   5.567   2.023   8.102  0.6726  0.5420  4.2595
 9150SOL    HW228902   5.708   1.986   8.061 -0.7347 -0.0814 -0.8082
 9151SOL     OW28903   3.161   0.012   7.217  0.1701  0.8173 -0.1984
 9151SOL    HW128904   3.106  -0.048   7.166  0.9835 -0.8091  0.7372
 9151SOL    HW228905   3.233  -0.043   7.249  1.7396  2.6249 -0.4399
 9152SOL     OW28906   3.466   1.287   4.769 -0.0990  0.3123  0.0966
 9152SOL    HW128907   3.457   1.341   4.690 -0.4464  0.0991 -0.0111
 9152SOL    HW228908   3.432   1.201   4.743  1.4365 -0.2739 -0.0613
 9153SOL     OW28909   7.012   2.956   4.128 -0.2924  0.4390 -0.3463
 9153SOL    HW128910   7.106   2.942   4.139 -0.1051  0.8569 -1.3363
 9153SOL    HW228911   6.993   3.034   4.182 -0.4875 -0.8174  1.5018
 9154SOL     OW28912   0.720   4.418   2.998  0.3564  0.4465 -0.7909
 9154SOL    HW128913   0.626   4.434   3.007  0.2070 -1.2653  1.7272
 9154SOL    HW228914   0.726   4.337   2.948  0.3436 -0.5181  0.7040
 9155SOL     OW28915   6.633   9.149   7.512  0.0988  0.2450 -0.1253
 9155SOL    HW128916   6.552   9.179   7.472  0.4278  1.3917  0.0297
 9155SOL    HW228917   6.652   9.065   7.469 -1.4599 -0.3330  0.2531
 9156SOL     OW28918   5.766   1.800   7.978 -0.2089  0.3038 -0.1206
 9156SOL    HW128919   5.673   1.780   7.968  0.4683 -3.9463  0.4195
 9156SOL    HW228920   5.805   1.778   7.894  0.5984 -0.2542  0.3834
 9157SOL     OW28921   2.693   2.822   5.201 -0.2396  0.3172  0.1166
 9157SOL    HW128922   2.788   2.815   5.208 -0.3356  0.2988  1.5993
 9157SOL    HW228923   2.665   2.735   5.173  0.2740  0.7325 -1.8799
 9158SOL     OW28924   0.714   7.547   7.655  0.1072  0.0149  0.3010
 9158SOL    HW128925   0.794   7.497   7.673  1.9109  2.5175 -0.2742
 9158SOL    HW228926   0.669   7.496   7.588  0.3362 -2.2652  1.7643
 9159SOL     OW28927   3.036   6.135   7.342  0.2310  0.2857  0.7977
 9159SOL    HW128928   2.946   6.153   7.314  0.3477 -0.8182 -0.4217
 9159SOL    HW228929   3.075   6.221   7.355 -1.0125  0.7842  1.4341
 9160SOL     OW28930   3.654   2.531   4.202  0.1437  0.4977 -0.2594
 9160SOL    HW128931   3.687   2.568   4.120 -0.5224 -0.6671 -1.0673
 9160SOL    HW228932   3.638   2.439   4.183  1.8521 -0.3090  1.7264
 9161SOL     OW28933   8.744   4.891   4.956 -0.5910  0.0174  0.4101
 9161SOL    HW128934   8.674   4.888   5.021  0.3715 -0.2102  1.4737
 9161SOL    HW228935   8.801   4.817   4.978  0.0962  0.3215 -0.2881
 9162SOL     OW28936   3.106   2.294   5.517 -0.0468 -0.2322 -0.0673
 9162SOL    HW128937   3.181   2.348   5.544  0.6851 -0.4484 -1.5598
 9162SOL    HW228938   3.108   2.219   5.577  0.7968 -0.1310  0.0491
 9163SOL     OW28939   9.029   4.337   0.328 -0.1363 -0.4662 -0.0603
 9163SOL    HW128940   9.110   4.377   0.360 -0.2851  0.2714 -0.5762
 9163SOL    HW228941   9.019   4.258   0.381  1.2004 -0.8541 -0.3312
 9164SOL     OW28942   1.788   6.537   0.022  0.7334 -0.4559 -0.1532
 9164SOL    HW128943   1.717   6.532  -0.042  0.2623  0.9370  0.2324
 9164SOL    HW228944   1.746   6.522   0.106  0.5216  2.0667  0.2720
 9165SOL     OW28945   1.799   4.671   7.034  0.2474 -0.0164  0.0445
 9165SOL    HW128946   1.889   4.648   7.052 -0.0779 -0.0934  1.6841
 9165SOL    HW228947   1.758   4.589   7.006  0.2102 -0.4237  1.2685
 9166SOL     OW28948   2.008   1.780   2.540  0.1988  0.0731  0.1866
 9166SOL    HW128949   1.931   1.733   2.573 -0.0300 -0.0939 -0.5815
 9166SOL    HW228950   2.049   1.719   2.480  0.5522  0.4249  0.0710
 9167SOL     OW28951   1.333   0.233   3.487  0.3690 -0.7250  0.2658
 9167SOL    HW128952   1.249   0.261   3.450  0.3041 -0.8316  0.3336
 9167SOL    HW228953   1.371   0.176   3.421  0.0869 -1.2104  0.5202
 9168SOL     OW28954   8.676   3.906   4.043  0.1342 -0.0182  0.1022
 9168SOL    HW128955   8.735   3.910   4.119 -0.8110 -0.5148  0.8706
 9168SOL    HW228956   8.730   3.868   3.974  1.3625  1.4873  0.1586
 9169SOL     OW28957   2.876   0.773   4.612  0.2849  0.2064 -0.2338
 9169SOL    HW128958   2.924   0.701   4.652 -0.8280 -0.9031 -0.8376
 9169SOL    HW228959   2.820   0.807   4.682  0.0139 -0.2292 -0.2381
 9170SOL     OW28960   7.227   7.168   2.034  0.1574  0.2292  0.3809
 9170SOL    HW128961   7.151   7.207   1.992  2.0690  1.7003 -1.9633
 9170SOL    HW228962   7.247   7.227   2.106  0.7154  1.4702 -0.7503
 9171SOL     OW28963   3.078   3.793   2.014 -0.1735  0.4060  0.1206
 9171SOL    HW128964   3.143   3.722   2.012 -0.0017  0.2316  3.7421
 9171SOL    HW228965   3.129   3.871   2.036 -0.8587  0.8170  0.2836
 9172SOL     OW28966   7.848   0.396   7.887  0.5225  0.4217 -0.1146
 9172SOL    HW128967   7.817   0.365   7.972 -1.8601 -1.6604 -1.6077
 9172SOL    HW228968   7.892   0.320   7.848  2.3488  1.5960 -0.4553
 9173SOL     OW28969   6.802   3.634   4.681 -0.0544 -0.6072  0.1446
 9173SOL    HW128970   6.784   3.679   4.598  0.8496  0.2007  0.3653
 9173SOL    HW228971   6.881   3.583   4.663  0.0688 -0.5309  0.4740
 9174SOL     OW28972   4.264   1.736   5.026 -0.7468 -0.1242 -0.4457
 9174SOL    HW128973   4.359   1.748   5.031 -0.5587 -0.8440 -1.9029
 9174SOL    HW228974   4.232   1.814   4.980 -0.9891  0.5209  0.7668
 9175SOL     OW28975   4.125   7.298   7.705  0.0398  0.1023 -0.0780
 9175SOL    HW128976   4.178   7.218   7.695 -0.3756 -0.2999  0.8354
 9175SOL    HW228977   4.184   7.369   7.679  0.8962 -0.3753  0.5109
 9176SOL     OW28978   0.276   3.259   7.427 -0.3576  0.2734  0.5436
 9176SOL    HW128979   0.365   3.288   7.448 -0.8304  1.0955  1.5106
 9176SOL    HW228980   0.278   3.241   7.333  0.9119 -0.0340  0.6086
 9177SOL     OW28981   0.537   6.473   5.600  0.6101 -0.9412  0.1333
 9177SOL    HW128982   0.561   6.382   5.616  0.9721 -0.6349  1.4632
 9177SOL    HW228983   0.596   6.523   5.656 -0.7434  0.0258  0.7365
 9178SOL     OW28984   6.611   1.272   6.893 -0.0905  0.1372  0.0183
 9178SOL    HW128985   6.685   1.279   6.833 -1.3063 -0.3697 -1.6082
 9178SOL    HW228986   6.635   1.202   6.953 -0.0672 -1.4755 -1.7796
 9179SOL     OW28987   0.151   2.721   5.797  0.3227  0.2514 -0.1000
 9179SOL    HW128988   0.162   2.746   5.706  0.3303  1.1394  0.1305
 9179SOL    HW228989   0.166   2.627   5.799  1.6114  0.4263 -0.8029
 9180SOL     OW28990   3.011   1.800   1.834 -0.0547  0.0817 -0.0010
 9180SOL    HW128991   3.101   1.774   1.814 -0.4552 -0.3324 -1.3791
 9180SOL    HW228992   3.018   1.894   1.855  0.6399  0.1762 -0.6024
 9181SOL     OW28993   5.552   2.590   6.996 -0.1234  0.2064 -0.2173
 9181SOL    HW128994   5.612   2.651   7.040  0.0026 -0.4469  0.5330
 9181SOL    HW228995   5.602   2.556   6.923  0.4557 -0.3775  0.4374
 9182SOL     OW28996   7.377   3.337   0.016  0.1941 -0.0706  0.2441
 9182SOL    HW128997   7.319   3.404   0.052 -0.2811 -0.5978  0.4870
 9182SOL    HW228998   7.417   3.297   0.093  1.3222  0.6577  0.0572
 9183SOL     OW28999   0.134   8.661   4.007 -0.2264  0.3653  0.2029
 9183SOL    HW129000   0.078   8.586   4.022  0.1307  0.2324  0.9513
 9183SOL    HW229001   0.221   8.624   3.993 -0.1860  0.6036 -0.2190
 9184SOL     OW29002   8.376   2.187   1.060  0.2889 -0.3221  0.3311
 9184SOL    HW129003   8.356   2.176   1.153 -1.6248  0.9325  0.1435
 9184SOL    HW229004   8.319   2.125   1.016  0.6876 -0.4315 -0.0364
 9185SOL     OW29005   5.725   8.292   8.777 -0.2566  0.7055  0.2450
 9185SOL    HW129006   5.642   8.319   8.817 -1.8593 -0.7429 -1.8665
 9185SOL    HW229007   5.748   8.365   8.719 -0.8261  0.5105 -0.2285
 9186SOL     OW29008   5.129   6.861   8.310  0.1555  0.6970 -0.2391
 9186SOL    HW129009   5.147   6.916   8.387  0.3685  2.6491 -1.6274
 9186SOL    HW229010   5.077   6.788   8.345  1.0857  0.9781  1.9106
 9187SOL     OW29011   6.726   6.651   6.714 -0.2834 -0.0745 -0.0221
 9187SOL    HW129012   6.744   6.557   6.716 -0.3468 -0.0824  0.5214
 9187SOL    HW229013   6.774   6.686   6.789 -1.6865  0.0572  0.8660
 9188SOL     OW29014   6.016   2.439   3.674 -0.2382  0.0278 -0.6303
 9188SOL    HW129015   6.032   2.487   3.755 -0.3809 -0.7865 -0.1059
 9188SOL    HW229016   6.087   2.464   3.616  0.7887 -0.5975  0.3124
 9189SOL     OW29017   2.239   0.489   3.475 -0.0901  0.5277  0.3825
 9189SOL    HW129018   2.238   0.579   3.443 -1.4558  0.8077  1.1493
 9189SOL    HW229019   2.153   0.454   3.452  0.5318 -0.7049 -0.1879
 9190SOL     OW29020   4.444   5.663   8.687 -0.0930  0.0307 -0.1000
 9190SOL    HW129021   4.451   5.657   8.783  0.2658  0.2207 -0.1159
 9190SOL    HW229022   4.534   5.663   8.656  0.0598  4.1292 -0.2023
 9191SOL     OW29023   3.948   3.094   6.377 -0.3364  0.1804  0.4639
 9191SOL    HW129024   4.028   3.076   6.426 -0.2589 -0.1262  0.2275
 9191SOL    HW229025   3.913   3.007   6.356 -0.6849  0.3130  0.4924
 9192SOL     OW29026   4.914   7.131   6.584  0.3828  0.2309 -0.3871
 9192SOL    HW129027   4.939   7.162   6.672  0.6751 -0.0476 -0.3729
 9192SOL    HW229028   4.904   7.037   6.593  2.0153 -0.0287 -1.0260
 9193SOL     OW29029   6.234   2.439   6.009  0.1958  0.1027 -0.7470
 9193SOL    HW129030   6.300   2.410   6.073 -1.5453  1.2363  1.7474
 9193SOL    HW229031   6.186   2.359   5.987  1.0131 -0.3582 -0.9270
 9194SOL     OW29032   4.365   4.116   4.287 -0.4276 -0.3971 -0.0296
 9194SOL    HW129033   4.302   4.049   4.257  0.4300 -1.1984 -0.0790
 9194SOL    HW229034   4.445   4.097   4.239  0.2381 -0.1788  0.9672
 9195SOL     OW29035   4.215   5.111   6.622  0.0002 -0.1437 -0.0613
 9195SOL    HW129036   4.176   5.075   6.542  1.4315 -1.5343 -0.1720
 9195SOL    HW229037   4.309   5.104   6.608  0.2889 -0.0646  1.6205
 9196SOL     OW29038   0.209   8.824   8.460 -0.2294  0.3852 -0.2461
 9196SOL    HW129039   0.196   8.871   8.543 -0.7700 -0.1158 -0.0408
 9196SOL    HW229040   0.231   8.735   8.486  1.4612  0.6622 -0.6256
 9197SOL     OW29041   2.545   3.667   5.920 -0.3685 -0.5028 -0.5084
 9197SOL    HW129042   2.486   3.642   5.849 -1.8966  0.0825  0.5014
 9197SOL    HW229043   2.501   3.741   5.962  0.8918 -0.3207  0.5426
 9198SOL     OW29044   6.303   3.634   5.954  0.6938 -0.3618  0.1411
 9198SOL    HW129045   6.217   3.612   5.990  0.9755 -0.8461  0.5296
 9198SOL    HW229046   6.301   3.600   5.865 -0.2004  1.3036 -0.5294
 9199SOL     OW29047   0.956   6.971   2.229 -0.0651 -0.1430 -0.1272
 9199SOL    HW129048   1.009   6.957   2.307  0.0914  0.4303 -0.1309
 9199SOL    HW229049   1.002   6.923   2.160 -0.3269 -0.8425  0.1760
 9200SOL     OW29050   7.798   3.517   0.931 -0.6681 -0.1685 -0.3680
 9200SOL    HW129051   7.800   3.607   0.964 -2.4022  0.1664 -1.0822
 9200SOL    HW229052   7.866   3.515   0.864  0.7164  0.0253  0.9692
 9201SOL     OW29053   8.922   4.755   3.108 -0.1054  0.1644 -0.1060
 9201SOL    HW129054   8.968   4.746   3.025 -1.7294  2.1350 -1.3062
 9201SOL    HW229055   8.898   4.666   3.132  0.8032 -0.4866 -1.4963
 9202SOL     OW29056   5.826   4.438   5.807 -0.2017  0.2314 -0.1585
 9202SOL    HW129057   5.900   4.461   5.864 -0.4259  0.0504  0.2056
 9202SOL    HW229058   5.749   4.463   5.856 -0.4389 -0.9229  0.0747
 9203SOL     OW29059   5.451   9.176   1.711 -0.5059  0.1004  0.4124
 9203SOL    HW129060   5.437   9.270   1.700  0.7531  0.5056  1.8749
 9203SOL    HW229061   5.488   9.148   1.628  0.1649  1.1450  0.3313
 9204SOL     OW29062   4.762   5.545   2.899 -0.2004 -0.0105 -0.0576
 9204SOL    HW129063   4.690   5.608   2.902  1.1301  1.5342  0.8480
 9204SOL    HW229064   4.732   5.471   2.952 -0.9519  0.8085  0.6803
 9205SOL     OW29065   1.337   3.264   3.275  0.6785 -0.0415 -0.5040
 9205SOL    HW129066   1.252   3.257   3.231  0.3826  0.0988  0.0328
 9205SOL    HW229067   1.387   3.190   3.241  0.1658 -0.4175 -0.4571
 9206SOL     OW29068   8.426   7.111   6.631 -0.0010 -0.2085  0.1211
 9206SOL    HW129069   8.351   7.136   6.577 -0.4586  0.6482  1.1048
 9206SOL    HW229070   8.388   7.061   6.703  0.5940 -1.3075 -0.3110
 9207SOL     OW29071   3.237   5.446   5.660  0.6681 -0.1558 -0.3290
 9207SOL    HW129072   3.234   5.369   5.604  0.8279  0.3431 -1.0354
 9207SOL    HW229073   3.329   5.455   5.684  1.0069  0.9280 -1.8572
 9208SOL     OW29074   4.323   8.078   3.239  0.4692 -0.2820  0.6851
 9208SOL    HW129075   4.341   8.172   3.240 -1.7035  0.2128  0.4334
 9208SOL    HW229076   4.229   8.072   3.259  0.3268 -2.3281 -0.3454
 9209SOL     OW29077   8.387   8.916   7.610  0.5688  0.1039  0.5625
 9209SOL    HW129078   8.424   8.943   7.526 -0.0759 -0.0868  0.2093
 9209SOL    HW229079   8.462   8.884   7.660  1.3224  2.2194  0.8984
 9210SOL     OW29080   3.557   7.267   1.123  0.6492  0.1531  0.0524
 9210SOL    HW129081   3.470   7.264   1.161  1.5330  2.1356  2.4494
 9210SOL    HW229082   3.575   7.360   1.109  1.6918 -0.3034 -2.2525
 9211SOL     OW29083   9.061   4.552   7.017  0.3605 -0.0113  0.0898
 9211SOL    HW129084   9.032   4.542   7.108 -0.7713  1.0573 -0.1192
 9211SOL    HW229085   8.987   4.594   6.973  1.5068  1.0385 -0.9315
 9212SOL     OW29086   2.984   4.005   4.976  0.1368 -0.1111  0.1557
 9212SOL    HW129087   3.047   3.949   5.021 -1.3958 -2.4232 -0.4422
 9212SOL    HW229088   2.945   4.058   5.046  1.5149  0.1907  0.7433
 9213SOL     OW29089   6.945   0.420   8.605  0.0168 -0.1625 -0.1428
 9213SOL    HW129090   7.011   0.489   8.602 -0.1055  0.0770  1.4311
 9213SOL    HW229091   6.936   0.401   8.699 -0.7423 -1.5478 -0.4764
 9214SOL     OW29092   2.128   3.409   3.135 -0.5078  0.1275 -0.2523
 9214SOL    HW129093   2.057   3.355   3.171 -0.9566  0.4082 -0.7084
 9214SOL    HW229094   2.093   3.442   3.052  0.2753  0.0206 -0.6248
 9215SOL     OW29095   3.685   2.585   6.802 -1.1460  0.0152 -0.1467
 9215SOL    HW129096   3.649   2.597   6.714  0.9685  0.7453 -0.9879
 9215SOL    HW229097   3.778   2.568   6.787 -0.7426  0.1212  1.9608
 9216SOL     OW29098   2.696   0.945   3.581 -0.1423 -0.3579  0.0288
 9216SOL    HW129099   2.657   0.881   3.641 -0.3650  0.3706  0.6739
 9216SOL    HW229100   2.790   0.940   3.599 -0.3431  1.1622  1.8061
 9217SOL     OW29101   0.675   2.837   3.502 -0.2296  0.2256  0.0309
 9217SOL    HW129102   0.596   2.785   3.514 -0.5700  0.4693 -1.0111
 9217SOL    HW229103   0.664   2.878   3.416  0.0154  2.0178  0.7977
 9218SOL     OW29104   4.194   3.321   7.579 -0.0964  0.3399 -0.1672
 9218SOL    HW129105   4.105   3.347   7.553 -0.1993 -0.4348 -0.6233
 9218SOL    HW229106   4.242   3.315   7.497 -0.0321 -0.7233 -0.0658
 9219SOL     OW29107   8.703   7.946   7.138 -0.1364  0.4650  0.2972
 9219SOL    HW129108   8.631   7.996   7.177 -0.2884 -0.9403  1.9306
 9219SOL    HW229109   8.673   7.927   7.049 -0.8483  1.7011  0.2452
 9220SOL     OW29110   7.649   1.883   2.278 -0.0974  0.0289  0.7444
 9220SOL    HW129111   7.742   1.896   2.296  0.2199  1.6121 -1.6209
 9220SOL    HW229112   7.646   1.810   2.217 -0.3991  0.0657  0.7121
 9221SOL     OW29113   8.385   1.245   3.128 -0.1346  0.1405 -0.3326
 9221SOL    HW129114   8.292   1.232   3.109  0.2436 -2.0557 -0.9767
 9221SOL    HW229115   8.386   1.304   3.203 -2.0891 -0.4271  0.1952
 9222SOL     OW29116   6.912   3.170   0.221  0.3168  0.4474  0.2408
 9222SOL    HW129117   6.832   3.125   0.191 -1.0109  2.1526  1.0760
 9222SOL    HW229118   6.938   3.121   0.299  0.1468 -0.1712 -0.0792
 9223SOL     OW29119   3.318   1.171   4.227 -0.0936 -0.5127  0.1697
 9223SOL    HW129120   3.259   1.147   4.155 -0.4946  0.2143  0.2367
 9223SOL    HW229121   3.384   1.102   4.229  0.3672 -0.1546 -1.3907
 9224SOL     OW29122   6.489   5.154   4.750 -0.3274  0.5099 -0.3668
 9224SOL    HW129123   6.528   5.235   4.783 -1.2228  1.7711 -2.2477
 9224SOL    HW229124   6.398   5.176   4.731 -0.6095 -0.9636 -0.8959
 9225SOL     OW29125   1.132   1.596   6.889  0.0780 -0.0496  0.1196
 9225SOL    HW129126   1.038   1.577   6.888  0.6085 -3.1830  0.2402
 9225SOL    HW229127   1.155   1.601   6.981  0.2686 -0.8325  0.1213
 9226SOL     OW29128   7.396   6.351   6.983  0.0788 -0.6130 -0.5998
 9226SOL    HW129129   7.381   6.295   7.059  0.7399  1.3730  1.1315
 9226SOL    HW229130   7.472   6.313   6.939  0.5809 -1.0172  0.5875
 9227SOL     OW29131   3.860   6.805   1.046  0.7616  0.5313 -0.0190
 9227SOL    HW129132   3.845   6.710   1.051  1.6433  0.3371 -0.8155
 9227SOL    HW229133   3.783   6.838   1.000  0.2444  0.2695  0.6351
 9228SOL     OW29134   3.296   1.233   8.700 -0.4077  0.0256  0.2455
 9228SOL    HW129135   3.315   1.170   8.770 -0.3341 -0.4170 -0.1663
 9228SOL    HW229136   3.329   1.191   8.621 -3.6055 -1.1115 -0.6622
 9229SOL     OW29137   6.944   3.615   0.539 -0.7175  0.0449 -0.3232
 9229SOL    HW129138   6.941   3.540   0.479 -1.9966 -0.5090  0.3944
 9229SOL    HW229139   6.917   3.579   0.623 -1.7220  1.3893 -0.0391
 9230SOL     OW29140   4.349   8.585   7.149 -0.0742  0.1399  0.0282
 9230SOL    HW129141   4.307   8.589   7.235 -3.3093 -0.9647 -1.3450
 9230SOL    HW229142   4.368   8.677   7.128  0.8849  0.4224  1.9106
 9231SOL     OW29143   8.624   7.269   9.014 -0.3775  0.1514 -0.1800
 9231SOL    HW129144   8.599   7.272   8.922  0.3887  1.5198 -0.3564
 9231SOL    HW229145   8.662   7.182   9.025 -2.3544 -0.8280 -0.6239
 9232SOL     OW29146   6.677   4.731   7.448  0.0012  0.1038  0.3336
 9232SOL    HW129147   6.730   4.663   7.489  0.7839  0.3958 -0.1670
 9232SOL    HW229148   6.738   4.778   7.391 -0.4195  1.5116  0.9954
 9233SOL     OW29149   3.199   1.172   7.903 -0.2747 -0.2484 -0.0522
 9233SOL    HW129150   3.132   1.205   7.844 -0.7915  0.3735  0.8465
 9233SOL    HW229151   3.157   1.175   7.990  1.3348  1.4145  0.7400
 9234SOL     OW29152   5.688   7.823   8.539  0.2682 -0.1789  0.4015
 9234SOL    HW129153   5.738   7.787   8.613 -0.0844 -0.7121  0.3881
 9234SOL    HW229154   5.702   7.759   8.469  0.2618  0.1122  0.1371
 9235SOL     OW29155   6.926   1.875   1.012 -1.0258 -0.0627  0.0558
 9235SOL    HW129156   6.961   1.789   0.988 -1.5010 -0.0146 -0.8217
 9235SOL    HW229157   6.961   1.935   0.947 -1.7418  0.1941 -0.0985
 9236SOL     OW29158   7.492   4.676   5.070  0.2865 -0.2848  0.1880
 9236SOL    HW129159   7.566   4.620   5.093 -0.1979 -0.3217  1.7651
 9236SOL    HW229160   7.427   4.617   5.034  0.9221 -0.2782 -1.0311
 9237SOL     OW29161   2.463   3.222   1.199  0.1289  0.0829  0.2366
 9237SOL    HW129162   2.370   3.241   1.186  0.3301  1.1663  0.2722
 9237SOL    HW229163   2.490   3.176   1.119 -0.6872 -1.2676  0.7140
 9238SOL     OW29164   9.249   6.933   7.061 -0.6013 -0.1214 -0.5921
 9238SOL    HW129165   9.240   6.901   6.971 -0.0239  0.0249 -0.7069
 9238SOL    HW229166   9.340   6.961   7.067 -0.5026 -0.5950  0.1967
 9239SOL     OW29167   7.673   6.179   0.557  0.2904 -0.0174  0.3009
 9239SOL    HW129168   7.710   6.202   0.642 -1.7213  1.4306  0.8540
 9239SOL    HW229169   7.586   6.143   0.578  0.2880 -0.8668 -1.0723
 9240SOL     OW29170   0.709   4.735   2.584  0.0262  0.0460 -0.0419
 9240SOL    HW129171   0.776   4.758   2.520  0.4282 -0.1976  0.2831
 9240SOL    HW229172   0.751   4.670   2.641  0.1099  1.1629  1.2351
 9241SOL     OW29173   7.103   0.676   5.988  0.6109 -0.4717 -0.9282
 9241SOL    HW129174   7.165   0.623   5.937  0.8711 -1.9726  0.8203
 9241SOL    HW229175   7.158   0.741   6.032  1.3720 -2.8952  2.0160
 9242SOL     OW29176   4.502   1.608   7.858 -0.0754 -0.9888 -0.1080
 9242SOL    HW129177   4.539   1.565   7.781  2.7008  0.9224 -0.0004
 9242SOL    HW229178   4.426   1.656   7.824 -0.3968 -2.1703 -1.1294
 9243SOL     OW29179   0.639   2.510   6.277  0.2490  0.1069  0.6247
 9243SOL    HW129180   0.563   2.564   6.255 -1.0281 -2.3840 -1.7145
 9243SOL    HW229181   0.692   2.565   6.334 -1.8510  3.0531 -0.0349
 9244SOL     OW29182   5.115   0.731   0.551 -0.2275  0.2854 -0.0784
 9244SOL    HW129183   5.154   0.801   0.603 -1.7894  0.8674  0.3935
 9244SOL    HW229184   5.125   0.761   0.460  2.7012 -0.8366 -0.2185
 9245SOL     OW29185   6.368   8.554   8.464  0.1433 -0.5494 -0.2020
 9245SOL    HW129186   6.429   8.627   8.453 -0.6610 -0.1024 -2.1160
 9245SOL    HW229187   6.422   8.476   8.460  0.8219 -0.1186  0.2701
 9246SOL     OW29188   1.654   2.305   2.817  0.2779 -0.6267  0.2789
 9246SOL    HW129189   1.666   2.260   2.901 -0.4700 -1.9642 -0.3131
 9246SOL    HW229190   1.677   2.240   2.751 -2.9272 -0.9406 -0.6839
 9247SOL     OW29191   2.610   7.872   4.969  0.0973  0.1573  0.0532
 9247SOL    HW129192   2.573   7.960   4.977 -0.1594  0.2364 -1.6674
 9247SOL    HW229193   2.686   7.882   4.913  1.9396 -0.2716  2.3036
 9248SOL     OW29194   7.637   5.358   7.284 -0.5932 -0.7801  0.0688
 9248SOL    HW129195   7.696   5.289   7.315 -0.1016 -0.2858  0.2652
 9248SOL    HW229196   7.682   5.394   7.208  0.2148  0.7196  1.1888
 9249SOL     OW29197   1.916   3.243   3.914  0.5153  0.7136 -0.6653
 9249SOL    HW129198   1.839   3.225   3.968  1.0086  0.8760  0.1242
 9249SOL    HW229199   1.969   3.302   3.968  1.9027 -0.5823 -0.5285
 9250SOL     OW29200   3.134   6.902   0.826  0.4633  0.5105  0.4681
 9250SOL    HW129201   3.156   6.987   0.865  2.1308  0.4389 -0.2399
 9250SOL    HW229202   3.213   6.849   0.838  0.6278  0.1087 -1.9341
 9251SOL     OW29203   2.906   7.464   0.542 -0.0490  0.0456  0.2822
 9251SOL    HW129204   2.909   7.382   0.592  1.0684 -0.9946 -1.3986
 9251SOL    HW229205   2.855   7.442   0.464  0.4284  0.8950 -0.2780
 9252SOL     OW29206   8.077   7.151   1.484 -0.0902  0.1393 -0.7074
 9252SOL    HW129207   8.004   7.188   1.535  1.1454  1.8102 -0.0413
 9252SOL    HW229208   8.059   7.178   1.394 -1.2678 -1.1352 -0.8821
 9253SOL     OW29209   0.434   0.871   8.773 -0.1266 -0.1074  0.1379
 9253SOL    HW129210   0.425   0.800   8.709  2.4362  0.7445 -1.2939
 9253SOL    HW229211   0.355   0.924   8.761 -1.5681 -2.0690  0.4853
 9254SOL     OW29212   5.729   2.058   5.585  0.0407  0.5274  0.2667
 9254SOL    HW129213   5.643   2.097   5.597 -0.2214 -0.1295  0.5516
 9254SOL    HW229214   5.733   2.035   5.492  0.2968  1.4579  0.0431
 9255SOL     OW29215   1.259   3.250   1.455  0.1958  0.2528  0.5369
 9255SOL    HW129216   1.200   3.301   1.510 -0.8095  0.0587 -0.3169
 9255SOL    HW229217   1.289   3.312   1.388 -1.2178 -0.2777 -0.6473
 9256SOL     OW29218   4.544   2.284   7.151  0.4354  0.3375  0.6957
 9256SOL    HW129219   4.599   2.349   7.105 -1.1679  0.9436 -0.4659
 9256SOL    HW229220   4.525   2.218   7.084 -1.2648  0.7998  0.6828
 9257SOL     OW29221   4.019   5.958   2.628 -0.1827 -0.1501  0.1352
 9257SOL    HW129222   4.063   5.901   2.564  0.4169  0.5634 -0.1140
 9257SOL    HW229223   3.997   5.901   2.701  3.1995 -0.1963  1.3006
 9258SOL     OW29224   5.778   0.990   3.174  0.3178 -0.3916 -0.3635
 9258SOL    HW129225   5.725   1.062   3.139 -0.8000 -1.1387 -0.2341
 9258SOL    HW229226   5.857   1.033   3.208 -0.7193  0.8989  0.5294
 9259SOL     OW29227   6.268   8.998   3.727  0.7578  0.4880  0.2422
 9259SOL    HW129228   6.226   9.045   3.654  1.5835 -0.8818 -1.1905
 9259SOL    HW229229   6.224   9.031   3.805 -0.4546  1.7299 -0.8977
 9260SOL     OW29230   7.859   3.072   3.984 -0.1205 -0.5543 -0.2407
 9260SOL    HW129231   7.808   3.118   3.918  0.6232  1.2769  0.4020
 9260SOL    HW229232   7.941   3.049   3.940  0.7276  1.4192  0.2227
 9261SOL     OW29233   9.268   8.606   6.919 -0.1088 -0.2526  0.4387
 9261SOL    HW129234   9.320   8.596   6.839 -1.8180  2.2301 -1.1220
 9261SOL    HW229235   9.194   8.547   6.906 -0.0376 -0.3641  0.5359
 9262SOL     OW29236   2.448   2.715   4.149  0.1892  0.0394  0.6812
 9262SOL    HW129237   2.519   2.779   4.150 -0.1436  0.4356 -0.1046
 9262SOL    HW229238   2.442   2.687   4.057 -2.7087  2.3612  0.0119
 9263SOL     OW29239   2.114   2.674   6.784  0.0655  0.4445 -0.0834
 9263SOL    HW129240   2.202   2.637   6.787  1.4435  3.3713 -0.3326
 9263SOL    HW229241   2.087   2.665   6.692  0.7604  0.8618 -0.3342
 9264SOL     OW29242   7.210   8.853   1.701  0.2892 -0.0526 -0.3331
 9264SOL    HW129243   7.195   8.760   1.684 -1.2103 -0.2135  1.5831
 9264SOL    HW229244   7.275   8.879   1.635  0.0171 -2.2008 -1.5361
 9265SOL     OW29245   4.994   1.836   1.757 -0.4657 -0.5934 -0.5989
 9265SOL    HW129246   5.012   1.758   1.704  1.4555  0.4009 -1.4994
 9265SOL    HW229247   4.936   1.890   1.702 -0.6494 -0.7531 -0.5630
 9266SOL     OW29248   2.812   5.152   5.783 -0.3011 -0.0087 -0.3843
 9266SOL    HW129249   2.812   5.156   5.688 -1.4811 -0.5976 -0.4273
 9266SOL    HW229250   2.862   5.228   5.811 -0.3776  0.4506 -1.4630
 9267SOL     OW29251   3.534   0.820   8.786  0.2735 -0.7915 -0.2368
 9267SOL    HW129252   3.623   0.855   8.777  0.5064 -0.1938  3.0293
 9267SOL    HW229253   3.484   0.891   8.825 -1.5462 -1.3213 -1.4689
 9268SOL     OW29254   0.644   5.553   0.672  0.4394  0.6764 -0.2907
 9268SOL    HW129255   0.583   5.500   0.724 -2.1528 -0.3326 -3.9574
 9268SOL    HW229256   0.731   5.531   0.706 -0.9636 -0.7778  2.6837
 9269SOL     OW29257   8.699   7.695   7.696 -0.3302 -0.0016  0.2657
 9269SOL    HW129258   8.700   7.624   7.631 -0.8349  0.3402 -0.1233
 9269SOL    HW229259   8.743   7.658   7.772 -1.5476 -1.1073  0.4605
 9270SOL     OW29260   1.311   0.237   7.855  0.2772  0.1111 -0.4878
 9270SOL    HW129261   1.394   0.285   7.859  0.4925 -0.2981  0.0804
 9270SOL    HW229262   1.283   0.244   7.764  0.2216  1.4548 -0.3921
 9271SOL     OW29263   2.891   4.893   6.525  0.4065  0.2985  0.5180
 9271SOL    HW129264   2.882   4.859   6.436  1.2917 -0.0429  0.5443
 9271SOL    HW229265   2.842   4.975   6.525  0.3464  0.2675 -0.2679
 9272SOL     OW29266   9.249   3.642   1.743 -0.5003 -0.1475 -0.0488
 9272SOL    HW129267   9.166   3.684   1.722 -0.4349 -0.4501 -0.9735
 9272SOL    HW229268   9.315   3.706   1.718 -0.4414 -0.0660  0.3076
 9273SOL     OW29269   0.876   3.622   5.233 -0.1922 -0.0793  0.9841
 9273SOL    HW129270   0.897   3.573   5.153  0.8045  0.9881  0.5645
 9273SOL    HW229271   0.954   3.611   5.289  1.0455  2.7622 -0.0130
 9274SOL     OW29272   4.415   0.334   0.524 -0.1472  0.2537 -0.0472
 9274SOL    HW129273   4.438   0.352   0.615  1.1375 -0.5537 -0.1842
 9274SOL    HW229274   4.456   0.250   0.505  0.6255  0.9434 -1.6974
 9275SOL     OW29275   9.022   3.295   0.861  0.0259 -0.4662 -0.3435
 9275SOL    HW129276   9.000   3.362   0.925  0.9352  0.1095 -0.6113
 9275SOL    HW229277   8.962   3.222   0.880  0.4901 -0.4374  1.3433
 9276SOL     OW29278   9.214   7.635   7.438 -0.4905 -0.6331  0.1502
 9276SOL    HW129279   9.265   7.559   7.464  0.9822  0.9985  2.3270
 9276SOL    HW229280   9.125   7.617   7.469  0.2625 -0.6956  2.4053
 9277SOL     OW29281   6.559   2.900   7.686 -0.0302  0.7046  0.0780
 9277SOL    HW129282   6.618   2.883   7.613 -1.2267 -1.8889 -0.4052
 9277SOL    HW229283   6.472   2.903   7.647 -0.3867  4.2972  0.7920
 9278SOL     OW29284   3.256   7.748   7.900  0.1217  0.3828 -0.2517
 9278SOL    HW129285   3.289   7.696   7.973 -0.9857  1.1534  0.8525
 9278SOL    HW229286   3.243   7.686   7.829  1.9344 -0.2630 -0.0663
 9279SOL     OW29287   4.943   3.171   8.552  0.1009  0.5026 -0.9182
 9279SOL    HW129288   4.930   3.235   8.623  2.2438  0.5739 -0.5429
 9279SOL    HW229289   4.854   3.152   8.521 -0.9547  0.2951  1.9288
 9280SOL     OW29290   4.891   6.134   7.406 -0.3637 -0.4120 -0.3052
 9280SOL    HW129291   4.985   6.130   7.422 -0.4229 -0.6085 -0.0108
 9280SOL    HW229292   4.856   6.184   7.480 -0.3364  0.8016 -1.0680
 9281SOL     OW29293   0.985   0.800   1.577  0.1902  0.3034  0.1459
 9281SOL    HW129294   0.963   0.805   1.670  1.8996 -0.1481  0.6135
 9281SOL    HW229295   0.909   0.837   1.532 -1.2556 -0.7342  1.6327
 9282SOL     OW29296   7.961   0.708   0.211  0.1632  0.8928  0.1472
 9282SOL    HW129297   7.984   0.659   0.132  2.6720  0.6942  0.9199
 9282SOL    HW229298   8.036   0.697   0.269 -1.7662  0.6741  2.7695
 9283SOL     OW29299   3.487   0.495   7.167 -0.0047 -0.5557  0.1511
 9283SOL    HW129300   3.448   0.411   7.192 -0.8965 -0.3405 -0.4620
 9283SOL    HW229301   3.550   0.472   7.099 -2.1403 -0.5115 -1.9732
 9284SOL     OW29302   1.242   0.282   0.950  0.1433  0.5189 -0.2084
 9284SOL    HW129303   1.218   0.230   1.026  0.3192 -0.6908 -0.9621
 9284SOL    HW229304   1.158   0.311   0.913  0.0439  0.7251  0.1732
 9285SOL     OW29305   4.783   5.392   2.667  0.5140 -0.4347 -0.4706
 9285SOL    HW129306   4.803   5.439   2.748 -0.9707 -0.0045 -0.3319
 9285SOL    HW229307   4.753   5.306   2.696 -1.3256  0.1720 -0.4477
 9286SOL     OW29308   4.425   2.606   7.123 -0.1759 -0.5737  0.3108
 9286SOL    HW129309   4.485   2.668   7.083  0.5978 -1.2816  0.3415
 9286SOL    HW229310   4.431   2.528   7.068 -2.1967 -0.1649 -0.5550
 9287SOL     OW29311   0.884   0.150   2.975  0.4294  0.0862 -0.0930
 9287SOL    HW129312   0.818   0.137   3.043  0.9740  1.5891  0.7638
 9287SOL    HW229313   0.966   0.163   3.023  1.4506 -1.9656 -1.1285
 9288SOL     OW29314   5.451   3.681   5.608  0.1736  0.5291 -0.4309
 9288SOL    HW129315   5.524   3.620   5.594  0.8901  0.6276  2.3558
 9288SOL    HW229316   5.393   3.635   5.668 -0.8881  1.3893 -0.7846
 9289SOL     OW29317   6.278   2.794   0.688 -0.1459 -0.3184  0.0045
 9289SOL    HW129318   6.309   2.848   0.761  0.2433 -1.4919  0.7387
 9289SOL    HW229319   6.205   2.744   0.724  0.0532 -0.9187 -0.4045
 9290SOL     OW29320   7.818   8.754   4.598 -0.3692 -0.1824  0.5359
 9290SOL    HW129321   7.877   8.763   4.524  1.8359 -0.5703  2.1364
 9290SOL    HW229322   7.770   8.672   4.581 -0.8555  0.3926 -1.0195
 9291SOL     OW29323   1.008   0.140   7.902  0.4139 -0.3265 -0.0621
 9291SOL    HW129324   1.093   0.130   7.861 -0.0429  0.3477 -1.2323
 9291SOL    HW229325   0.946   0.110   7.835 -0.2800 -0.6679  0.7177
 9292SOL     OW29326   8.947   7.617   3.453  0.2259  0.2392  0.0223
 9292SOL    HW129327   8.932   7.704   3.416  1.7822  1.1812  1.4312
 9292SOL    HW229328   8.953   7.559   3.377 -1.7667  1.1638 -0.9123
 9293SOL     OW29329   6.863   7.949   2.093  0.2311 -0.4446  0.8326
 9293SOL    HW129330   6.792   7.927   2.033 -0.1116 -1.7281  1.6646
 9293SOL    HW229331   6.935   7.975   2.036 -0.3378 -0.8433 -0.1005
 9294SOL     OW29332   4.799   9.158   7.351  0.1547 -0.0667  0.1103
 9294SOL    HW129333   4.786   9.230   7.412  2.0628  0.7478 -0.3703
 9294SOL    HW229334   4.859   9.194   7.285 -0.7936 -1.3308 -1.5030
 9295SOL     OW29335   2.299   4.586   2.287 -0.5745 -0.3937 -0.1153
 9295SOL    HW129336   2.315   4.542   2.204 -1.4614 -0.4265 -0.2810
 9295SOL    HW229337   2.226   4.538   2.327  0.6028 -1.1172  1.2426
 9296SOL     OW29338   2.303   8.101   4.630 -0.2550 -0.2729 -0.2995
 9296SOL    HW129339   2.251   8.169   4.673 -1.8492 -1.1463 -0.7529
 9296SOL    HW229340   2.298   8.123   4.537 -1.8520 -1.6349 -0.5904
 9297SOL     OW29341   6.508   1.885   1.285  0.2682 -1.0363  0.3384
 9297SOL    HW129342   6.463   1.820   1.231 -1.0629 -1.0418  1.3863
 9297SOL    HW229343   6.594   1.896   1.244  0.0925 -2.5994 -0.5156
 9298SOL     OW29344   4.261   8.438   5.658 -0.0539 -0.5125 -0.1324
 9298SOL    HW129345   4.188   8.487   5.620 -0.0995 -0.6476 -0.2191
 9298SOL    HW229346   4.260   8.354   5.612 -0.8367 -1.1299  0.9843
 9299SOL     OW29347   7.746   2.898   0.579 -0.2668 -0.2040  0.0936
 9299SOL    HW129348   7.694   2.887   0.658 -2.8374  0.4301 -1.3838
 9299SOL    HW229349   7.742   2.992   0.561  2.4329  0.0723  0.5098
 9300SOL     OW29350   3.910   7.183   7.584 -0.1315  0.1180 -0.0449
 9300SOL    HW129351   3.932   7.090   7.584  1.4884  0.4307 -2.0994
 9300SOL    HW229352   3.978   7.223   7.638  0.1010  0.2654 -0.4417
 9301SOL     OW29353   7.210   7.656   5.067  0.0286 -0.3844  0.0517
 9301SOL    HW129354   7.239   7.661   4.975 -1.1200  1.1130 -0.2664
 9301SOL    HW229355   7.185   7.565   5.078 -0.8431 -0.3709 -1.4746
 9302SOL     OW29356   8.695   4.432   1.375  1.0767 -0.4263  0.6086
 9302SOL    HW129357   8.678   4.338   1.383  3.1283 -0.8326  0.7422
 9302SOL    HW229358   8.672   4.469   1.460  0.2873 -0.7834  0.5629
 9303SOL     OW29359   0.948   7.409   4.470 -0.6289  0.2792 -0.3089
 9303SOL    HW129360   0.940   7.496   4.431 -2.3951 -0.9367 -2.9379
 9303SOL    HW229361   0.957   7.350   4.395  2.8619 -1.7054  1.4035
 9304SOL     OW29362   5.994   1.290   1.636 -0.3521 -0.4603 -0.2463
 9304SOL    HW129363   6.032   1.334   1.712 -0.4013 -2.2829  0.8931
 9304SOL    HW229364   6.057   1.307   1.566 -0.2942  1.2399  0.1570
 9305SOL     OW29365   5.125   6.739   7.888  0.3131  0.0367 -0.1930
 9305SOL    HW129366   5.111   6.798   7.962 -2.1526 -0.3610 -0.2702
 9305SOL    HW229367   5.051   6.679   7.891  1.5462 -1.6434 -1.4733
 9306SOL     OW29368   2.961   1.007   3.554 -0.4280  0.0296 -0.3417
 9306SOL    HW129369   3.007   0.985   3.473 -0.6511  2.4747 -1.1969
 9306SOL    HW229370   3.008   1.082   3.589 -1.0428 -0.2622  1.2208
 9307SOL     OW29371   5.576   4.454   0.569 -0.3114 -0.6465 -0.3657
 9307SOL    HW129372   5.520   4.379   0.592  1.3502 -1.6024  0.8221
 9307SOL    HW229373   5.579   4.507   0.649 -0.1616 -0.1910 -0.6714
 9308SOL     OW29374   9.089   6.982   5.899  0.6686 -0.3397  0.0331
 9308SOL    HW129375   9.060   7.041   5.968 -1.6048 -0.3334 -0.8491
 9308SOL    HW229376   9.157   7.031   5.852 -1.2435  1.7293 -0.7666
 9309SOL     OW29377   4.545   7.041   6.907  0.1828 -0.3801 -0.1316
 9309SOL    HW129378   4.604   7.075   6.841 -0.0407 -0.9930 -0.6533
 9309SOL    HW229379   4.533   7.114   6.968  0.9625 -0.0502 -0.3644
 9310SOL     OW29380   1.007   2.757   5.542 -0.3265  0.5980 -1.0213
 9310SOL    HW129381   1.048   2.674   5.563 -0.7536  0.9725  1.7077
 9310SOL    HW229382   0.919   2.733   5.510 -0.9856 -0.0309  1.1097
 9311SOL     OW29383   4.252   7.136   8.084  0.1066  0.3801  0.4476
 9311SOL    HW129384   4.203   7.070   8.036 -1.2805  1.3040  0.5381
 9311SOL    HW229385   4.228   7.219   8.043  0.9443  0.9445  1.0505
 9312SOL     OW29386   2.299   0.686   1.117 -0.1143 -0.9511 -0.1159
 9312SOL    HW129387   2.393   0.686   1.101 -0.0955 -1.4550 -0.0314
 9312SOL    HW229388   2.260   0.655   1.036 -0.1435 -1.6268  0.1489
 9313SOL     OW29389   3.567   9.058   6.801  0.0492  0.3243 -0.1382
 9313SOL    HW129390   3.474   9.036   6.806  0.0071 -0.1257 -2.1268
 9313SOL    HW229391   3.604   9.022   6.881 -1.3488 -0.1704  0.3203
 9314SOL     OW29392   7.771   4.655   1.411  0.4931  0.2386  0.0216
 9314SOL    HW129393   7.766   4.664   1.507 -1.6518 -2.3919  0.2721
 9314SOL    HW229394   7.697   4.706   1.379  1.7836  1.9515 -0.4203
 9315SOL     OW29395   2.268   3.095   6.830 -0.4195 -0.3348  0.1490
 9315SOL    HW129396   2.229   3.010   6.853 -0.9703  0.1335  1.0130
 9315SOL    HW229397   2.195   3.146   6.796  0.1851 -0.6555 -1.7168
 9316SOL     OW29398   4.938   7.582   2.258  0.3611  0.1845 -0.6848
 9316SOL    HW129399   4.861   7.607   2.207 -0.5024 -1.9202 -0.5012
 9316SOL    HW229400   4.916   7.606   2.348  0.4925  0.7744 -0.7997
 9317SOL     OW29401   6.030   8.059   9.084 -0.1719  0.3163  0.0120
 9317SOL    HW129402   6.008   8.144   9.046 -1.3836 -0.1816 -0.4470
 9317SOL    HW229403   6.020   7.997   9.011 -0.7613 -0.4137  0.7006
 9318SOL     OW29404   4.729   2.381   6.819  0.1630  0.4238  0.4604
 9318SOL    HW129405   4.663   2.330   6.866 -0.4189  1.7315  1.0949
 9318SOL    HW229406   4.686   2.404   6.736 -0.0499  0.9590  0.7163
 9319SOL     OW29407   8.684   1.282   5.095 -0.3196 -0.1150 -0.1058
 9319SOL    HW129408   8.591   1.298   5.079 -0.2171  1.4002  0.6020
 9319SOL    HW229409   8.692   1.286   5.191  0.2863 -1.4441 -0.0873
 9320SOL     OW29410   1.942   0.239   5.294 -0.2175 -0.9395 -0.7148
 9320SOL    HW129411   1.891   0.319   5.287  1.1043  0.4491  3.0516
 9320SOL    HW229412   2.009   0.248   5.227  0.8829  2.0398  0.5908
 9321SOL     OW29413   0.846   5.778   8.470 -0.1162  0.4952 -0.7169
 9321SOL    HW129414   0.870   5.747   8.383 -0.9854  0.9488 -1.1387
 9321SOL    HW229415   0.913   5.843   8.492 -0.7554  1.5358 -1.7420
 9322SOL     OW29416   3.742   7.907   4.807 -0.1572  0.1691  0.5109
 9322SOL    HW129417   3.768   7.919   4.716 -1.6720  1.7731  0.2169
 9322SOL    HW229418   3.668   7.847   4.803  0.4048 -0.5582  0.8150
 9323SOL     OW29419   8.314   1.767   8.791 -0.2107 -0.1062  0.3592
 9323SOL    HW129420   8.258   1.703   8.747  0.2751 -0.5352  0.3592
 9323SOL    HW229421   8.292   1.851   8.750  2.9451 -0.8939 -3.6111
 9324SOL     OW29422   8.160   3.965   6.575  0.1419  0.3152 -0.4529
 9324SOL    HW129423   8.242   3.998   6.608 -0.0936  1.8665 -1.3376
 9324SOL    HW229424   8.183   3.922   6.492  0.2789 -0.8149  0.1422
 9325SOL     OW29425   1.400   9.059   3.610  0.3310 -0.4656 -0.4985
 9325SOL    HW129426   1.469   9.111   3.650 -0.1338  0.5548 -0.9750
 9325SOL    HW229427   1.445   9.001   3.549  0.7967 -0.0947 -0.5119
 9326SOL     OW29428   6.641   0.722   5.060 -0.0022 -0.2375  0.1729
 9326SOL    HW129429   6.568   0.704   5.001 -0.8012 -0.1599  1.1279
 9326SOL    HW229430   6.685   0.638   5.070 -0.8874 -0.6310  0.8212
 9327SOL     OW29431   9.217   2.167   5.502 -0.5555 -0.2566  0.0006
 9327SOL    HW129432   9.226   2.129   5.414 -1.4153  0.2977 -0.3368
 9327SOL    HW229433   9.125   2.154   5.524 -0.6977  0.9502  0.1846
 9328SOL     OW29434   3.185   8.660   0.091  0.4012  0.1641  0.2465
 9328SOL    HW129435   3.261   8.701   0.050 -0.4463 -0.2176 -1.8634
 9328SOL    HW229436   3.213   8.571   0.111  0.2415 -0.3451 -1.5862
 9329SOL     OW29437   6.201   3.813   8.748  0.4355 -0.2599  0.4085
 9329SOL    HW129438   6.229   3.806   8.839 -0.1084 -0.6801  0.5510
 9329SOL    HW229439   6.109   3.785   8.749  0.4577 -0.3858 -0.2834
 9330SOL     OW29440   6.001   5.783   4.281  0.0193 -0.5983 -0.4235
 9330SOL    HW129441   5.992   5.814   4.372 -0.2691 -0.8954 -0.3475
 9330SOL    HW229442   5.914   5.798   4.242 -0.4744 -2.2929 -0.0673
 9331SOL     OW29443   1.676   1.286   3.242  0.0945  0.1377  0.2753
 9331SOL    HW129444   1.764   1.317   3.262  0.7361 -1.6245  0.3875
 9331SOL    HW229445   1.690   1.204   3.194 -1.4559 -1.0099  1.6576
 9332SOL     OW29446   4.560   9.219   4.296 -0.1508  0.2912 -0.6777
 9332SOL    HW129447   4.576   9.225   4.390 -5.1413 -1.2239  0.5772
 9332SOL    HW229448   4.576   9.127   4.276  1.2625  0.6903 -1.4547
 9333SOL     OW29449   8.585   5.358   3.870  0.1825 -0.3141 -0.4754
 9333SOL    HW129450   8.499   5.321   3.884  0.5766 -0.6675  1.2534
 9333SOL    HW229451   8.621   5.309   3.796 -0.4152 -1.3789 -0.0770
 9334SOL     OW29452   1.278   6.413   7.899 -0.4563 -0.1455  0.5940
 9334SOL    HW129453   1.305   6.348   7.834 -1.4427  2.0911 -2.2404
 9334SOL    HW229454   1.238   6.361   7.969  1.3169 -2.7291 -0.1648
 9335SOL     OW29455   8.613   3.195   0.853  0.3510  0.1988 -0.5129
 9335SOL    HW129456   8.545   3.262   0.856  0.0129 -0.0964 -1.3140
 9335SOL    HW229457   8.567   3.116   0.823  1.2033  0.2055 -1.9258
 9336SOL     OW29458   0.499   7.966   0.270  0.7722 -0.4601 -0.5054
 9336SOL    HW129459   0.455   7.883   0.255 -1.3855  0.6461 -0.7326
 9336SOL    HW229460   0.430   8.025   0.299  2.2748  1.1999 -0.1245
 9337SOL     OW29461   2.110   8.558   4.593  0.1421  0.2194 -0.1968
 9337SOL    HW129462   2.167   8.538   4.667 -0.3993 -0.2341  0.0984
 9337SOL    HW229463   2.027   8.586   4.633 -0.6748 -1.4951 -0.6143
 9338SOL     OW29464   1.504   6.978   3.840  0.6944  0.2373 -0.3894
 9338SOL    HW129465   1.533   6.889   3.820  2.4653  0.7642 -0.2599
 9338SOL    HW229466   1.419   6.985   3.797  0.7338 -1.3529 -0.7966
 9339SOL     OW29467   1.198   1.708   2.230  0.6503 -0.2173  0.1841
 9339SOL    HW129468   1.108   1.709   2.262  0.2487 -2.3522 -0.6970
 9339SOL    HW229469   1.203   1.782   2.169 -1.2733 -1.4584 -1.6024
 9340SOL     OW29470   1.107   2.230   0.811  0.6245 -0.0885  0.0018
 9340SOL    HW129471   1.030   2.269   0.770 -0.5962 -0.1823  2.0855
 9340SOL    HW229472   1.162   2.304   0.836  0.4987  0.0521 -0.1405
 9341SOL     OW29473   3.714   0.577   5.971  0.7928  0.1809  0.2905
 9341SOL    HW129474   3.795   0.571   6.023  0.9749  0.7728  0.0849
 9341SOL    HW229475   3.658   0.635   6.022 -0.4548 -2.0455  1.6322
 9342SOL     OW29476   3.827   2.704   1.404  0.1688 -0.5592 -0.2581
 9342SOL    HW129477   3.892   2.767   1.372 -0.3630 -0.8831 -2.0868
 9342SOL    HW229478   3.775   2.682   1.327 -1.2871 -1.3113  0.8887
 9343SOL     OW29479   5.440   6.890   6.649  0.1416  0.4145  0.1662
 9343SOL    HW129480   5.534   6.879   6.641  0.1129 -0.6394  1.0972
 9343SOL    HW229481   5.403   6.820   6.596 -0.1182  0.5522  0.1618
 9344SOL     OW29482   0.878   5.354   3.055  0.2225 -0.4962 -1.0411
 9344SOL    HW129483   0.822   5.431   3.047  1.7584  0.7459 -0.3095
 9344SOL    HW229484   0.897   5.348   3.149 -0.8914 -2.5731 -0.8762
 9345SOL     OW29485   5.671   8.042   5.997  0.5152 -0.1489 -0.0234
 9345SOL    HW129486   5.584   8.068   6.028 -0.4466  1.2164 -3.3959
 9345SOL    HW229487   5.660   7.950   5.971  0.4465 -0.3207  0.5749
 9346SOL     OW29488   1.776   4.846   6.813  0.0143  0.4642  0.3992
 9346SOL    HW129489   1.746   4.793   6.886 -0.7228  2.9506  2.0605
 9346SOL    HW229490   1.831   4.788   6.761 -0.2098 -1.6748  2.4160
 9347SOL     OW29491   3.967   7.077   8.984  0.4045  0.0970  0.2400
 9347SOL    HW129492   3.887   7.035   8.951 -0.4890  0.2355  2.0736
 9347SOL    HW229493   3.996   7.021   9.055  0.2867  1.5142  1.4613
 9348SOL     OW29494   5.125   1.220   0.983  0.3075 -0.4514 -0.0226
 9348SOL    HW129495   5.197   1.281   0.996  0.5958 -0.4368 -1.5267
 9348SOL    HW229496   5.162   1.151   0.928 -1.0698  0.0532 -1.6555
 9349SOL     OW29497   4.949   6.898   2.359 -0.1718 -0.0579  0.4832
 9349SOL    HW129498   4.998   6.816   2.359 -0.0718 -0.0017  1.0707
 9349SOL    HW229499   4.894   6.894   2.437  0.2450  0.6654  0.8327
 9350SOL     OW29500   8.708   8.119   9.191  0.4926 -0.1494  0.1981
 9350SOL    HW129501   8.644   8.142   9.123  0.3836 -0.7095  0.1043
 9350SOL    HW229502   8.759   8.199   9.204 -0.1686  0.2783  0.2083
 9351SOL     OW29503   5.127   9.009   1.750 -0.7307  0.2290 -0.6182
 9351SOL    HW129504   5.158   9.100   1.741 -2.6591  1.1650  1.4714
 9351SOL    HW229505   5.033   9.014   1.738 -0.6835 -1.9224 -2.7080
 9352SOL     OW29506   5.348   0.657   2.738 -0.2565 -0.2970 -0.1447
 9352SOL    HW129507   5.310   0.585   2.686  0.1028  0.1306 -1.0199
 9352SOL    HW229508   5.379   0.615   2.818 -0.1447 -1.1056 -0.6004
 9353SOL     OW29509   8.081   3.368   7.232 -0.3655 -0.3391 -0.1608
 9353SOL    HW129510   7.992   3.400   7.225 -0.1542  0.8857  1.9622
 9353SOL    HW229511   8.072   3.275   7.253 -1.1306 -0.2290  0.0104
 9354SOL     OW29512   5.889   7.601   5.181  0.2120  0.1858 -0.8707
 9354SOL    HW129513   5.814   7.653   5.151  1.5878  1.5895 -2.0155
 9354SOL    HW229514   5.957   7.618   5.116  1.5811 -0.9776  0.2054
 9355SOL     OW29515   7.946   9.232   8.734  0.2088 -0.3423 -0.0069
 9355SOL    HW129516   7.990   9.314   8.714  1.4149 -1.1881 -0.9428
 9355SOL    HW229517   7.953   9.223   8.829 -0.9744  1.1805  0.2574
 9356SOL     OW29518   1.840   4.271   7.499 -0.0584 -0.0470 -0.1674
 9356SOL    HW129519   1.763   4.247   7.550  0.4329  1.3629  1.3136
 9356SOL    HW229520   1.856   4.363   7.521  3.4539 -0.8669  1.5383
 9357SOL     OW29521   5.285   6.358   9.141 -0.2351  0.0121  0.0259
 9357SOL    HW129522   5.380   6.350   9.131  0.2882 -0.0819  3.5978
 9357SOL    HW229523   5.264   6.444   9.106  1.2509  0.2525 -0.3289
 9358SOL     OW29524   8.274   4.420   8.807  0.1658 -0.2601 -0.0998
 9358SOL    HW129525   8.328   4.497   8.824  0.1395 -0.0702 -0.8422
 9358SOL    HW229526   8.225   4.442   8.728 -0.2673 -0.8191  0.0009
 9359SOL     OW29527   4.441   6.328   4.414 -0.1568 -0.1396 -0.6497
 9359SOL    HW129528   4.482   6.276   4.345  2.0412  1.2111 -0.4756
 9359SOL    HW229529   4.457   6.278   4.494  0.5266  0.0031 -0.6874
 9360SOL     OW29530   5.682   0.754   7.545  0.1325  0.1077 -0.0585
 9360SOL    HW129531   5.661   0.690   7.613 -0.0712 -1.2692 -1.3720
 9360SOL    HW229532   5.598   0.787   7.515  0.1811  0.1313 -0.1722
 9361SOL     OW29533   9.115   1.871   7.152 -0.3338  0.5946 -0.1307
 9361SOL    HW129534   9.148   1.800   7.097  0.8470  1.2489 -0.3005
 9361SOL    HW229535   9.039   1.904   7.104  0.4820  0.9403 -1.2323
 9362SOL     OW29536   7.972   0.334   3.002  0.1354 -0.1166 -0.2780
 9362SOL    HW129537   7.968   0.419   3.047 -0.0122 -0.2608 -0.0213
 9362SOL    HW229538   7.937   0.272   3.065 -0.8774 -0.1915 -0.9096
 9363SOL     OW29539   0.131   3.887   6.314 -0.4779  0.2251  0.9582
 9363SOL    HW129540   0.055   3.907   6.261 -0.2811  3.3076  1.6691
 9363SOL    HW229541   0.202   3.875   6.251 -1.3423 -1.9646  0.3347
 9364SOL     OW29542   5.801   3.329   3.937  0.1915  0.3157 -0.2960
 9364SOL    HW129543   5.839   3.417   3.936 -0.2203  0.6842  3.0616
 9364SOL    HW229544   5.720   3.339   3.988 -0.2955 -1.8812 -0.5305
 9365SOL     OW29545   6.467   1.798   2.443  0.0003  0.3049 -0.3646
 9365SOL    HW129546   6.498   1.887   2.463  1.9252 -0.6395  1.2862
 9365SOL    HW229547   6.471   1.752   2.527 -1.0694 -1.3133 -1.1564
 9366SOL     OW29548   3.640   5.798   3.834 -0.3765  0.4350 -0.1972
 9366SOL    HW129549   3.706   5.826   3.898  1.4897 -2.4003 -0.7240
 9366SOL    HW229550   3.687   5.789   3.752 -1.4178 -1.5151 -0.6400
 9367SOL     OW29551   5.711   7.860   5.581 -0.1886  0.0334 -0.5979
 9367SOL    HW129552   5.677   7.831   5.666  0.5319  0.0284 -0.3072
 9367SOL    HW229553   5.772   7.791   5.555 -0.1516  0.2010 -0.9597
 9368SOL     OW29554   8.066   6.233   4.885 -0.2849 -0.5596 -1.1092
 9368SOL    HW129555   8.125   6.200   4.953  1.5408  1.4243 -1.6182
 9368SOL    HW229556   8.070   6.167   4.816  1.0450 -0.6565 -0.9595
 9369SOL     OW29557   6.444   3.477   4.294  0.2518  0.0098  0.3010
 9369SOL    HW129558   6.504   3.447   4.362 -1.1766 -1.7611  0.8670
 9369SOL    HW229559   6.360   3.488   4.340 -0.1713  1.1589 -0.7076
 9370SOL     OW29560   1.674   7.851   7.275  0.0725 -0.0549 -0.2349
 9370SOL    HW129561   1.726   7.895   7.208  0.9757  0.7902  0.9736
 9370SOL    HW229562   1.697   7.759   7.268 -1.7502 -0.4382 -2.7287
 9371SOL     OW29563   0.507   1.308   5.715 -0.2007 -0.8725 -0.3044
 9371SOL    HW129564   0.415   1.281   5.717 -0.2373 -0.7098  0.2271
 9371SOL    HW229565   0.531   1.317   5.807  0.0144  0.2301 -0.4610
 9372SOL     OW29566   6.053   3.619   8.440 -0.1106 -0.2839  0.1410
 9372SOL    HW129567   6.111   3.602   8.514 -0.9468  2.2247  1.4463
 9372SOL    HW229568   6.112   3.640   8.368  0.6484  0.1187  0.8683
 9373SOL     OW29569   5.651   6.153   8.013 -0.6996  0.2088  0.0555
 9373SOL    HW129570   5.654   6.244   8.044 -0.1384  0.1752  0.1100
 9373SOL    HW229571   5.568   6.119   8.047 -1.5325  1.0751 -1.0321
 9374SOL     OW29572   3.259   7.109   8.769  0.7481  0.2641  0.1997
 9374SOL    HW129573   3.167   7.133   8.757  0.4427 -0.3138  1.2355
 9374SOL    HW229574   3.269   7.027   8.720  0.4813 -0.1160  0.7668
 9375SOL     OW29575   0.991   1.667   3.417  0.1227 -0.2719  0.0809
 9375SOL    HW129576   1.030   1.635   3.498  0.7854 -0.3456 -0.2588
 9375SOL    HW229577   1.066   1.682   3.359 -0.3941 -0.9801 -0.7861
 9376SOL     OW29578   6.551   3.627   3.401  0.0058  0.5128 -0.1099
 9376SOL    HW129579   6.566   3.721   3.393 -3.8298  1.2753 -0.0710
 9376SOL    HW229580   6.570   3.592   3.314  3.0448  0.9362  0.2845
 9377SOL     OW29581   3.329   6.242   7.073 -0.1597 -0.1271 -0.3346
 9377SOL    HW129582   3.274   6.167   7.094 -1.2661  1.1486  1.6708
 9377SOL    HW229583   3.380   6.258   7.153 -0.7634  1.8901 -0.2801
 9378SOL     OW29584   3.453   0.536   1.647 -0.1795 -0.2474 -0.2323
 9378SOL    HW129585   3.377   0.594   1.647 -0.3093 -0.4191  0.1845
 9378SOL    HW229586   3.420   0.452   1.617  0.2764  0.2311 -2.2224
 9379SOL     OW29587   5.968   2.318   1.783  0.1470  0.5156 -0.2165
 9379SOL    HW129588   6.046   2.268   1.808  0.0775  0.6186  0.2150
 9379SOL    HW229589   6.003   2.398   1.745  0.2546  0.3259 -0.5283
 9380SOL     OW29590   7.405   3.918   3.864  0.1025  0.2819  0.3582
 9380SOL    HW129591   7.424   4.012   3.867  1.4459  0.0737 -0.7595
 9380SOL    HW229592   7.441   3.889   3.780 -0.6920 -1.1636  0.4823
 9381SOL     OW29593   0.048   5.720   8.856  0.1523  0.5655 -0.5597
 9381SOL    HW129594   0.066   5.790   8.794 -0.9899  0.3767 -1.1364
 9381SOL    HW229595  -0.044   5.733   8.880  0.3826  0.2080  0.5505
 9382SOL     OW29596   1.107   6.093   9.145  0.1074 -0.3540 -0.0850
 9382SOL    HW129597   1.024   6.111   9.101 -0.0613  1.3473  0.8245
 9382SOL    HW229598   1.163   6.167   9.122  0.3180  0.1066  1.7631
 9383SOL     OW29599   6.100   7.277   8.293  0.4766  0.6456 -0.5907
 9383SOL    HW129600   6.022   7.304   8.341  0.2058  1.2545 -1.3546
 9383SOL    HW229601   6.101   7.182   8.299 -0.2405  0.6479 -0.4335
 9384SOL     OW29602   3.431   3.433   0.993  0.0364 -0.3409  0.4147
 9384SOL    HW129603   3.457   3.380   1.068  0.5931  1.5008  1.6076
 9384SOL    HW229604   3.381   3.505   1.030  0.8085  0.9425 -0.8921
 9385SOL     OW29605   5.440   3.681   8.461  0.1988  0.6039 -0.0564
 9385SOL    HW129606   5.440   3.685   8.557 -0.0001 -1.1600  0.0528
 9385SOL    HW229607   5.376   3.747   8.434 -1.1335 -0.1498  1.1237
 9386SOL     OW29608   4.642   7.566   6.453  0.0741  0.5950  0.2317
 9386SOL    HW129609   4.623   7.614   6.534 -0.9821  1.1796 -0.3370
 9386SOL    HW229610   4.649   7.475   6.481 -0.4554  0.7602  0.9624
 9387SOL     OW29611   4.320   7.740   4.073 -0.4996  0.1836  0.0023
 9387SOL    HW129612   4.337   7.722   4.166 -1.3297  1.0356  0.3455
 9387SOL    HW229613   4.351   7.662   4.027  0.1252 -0.1623  0.9752
 9388SOL     OW29614   2.948   8.447   1.138  0.1659 -0.3896  0.2590
 9388SOL    HW129615   2.955   8.386   1.211  2.0469  0.5532  0.9248
 9388SOL    HW229616   3.027   8.501   1.144 -1.6750  2.5354  0.0801
 9389SOL     OW29617   1.781   2.516   5.487 -0.1886 -0.9703  0.4044
 9389SOL    HW129618   1.817   2.431   5.462 -0.3602 -1.2043  0.9345
 9389SOL    HW229619   1.856   2.565   5.520  0.1515 -0.4490 -1.0662
 9390SOL     OW29620   1.404   6.463   4.560 -0.2813  0.0453 -0.8506
 9390SOL    HW129621   1.427   6.517   4.635 -0.2334 -1.2345  0.0957
 9390SOL    HW229622   1.484   6.459   4.508 -0.5903  1.7388 -1.5169
 9391SOL     OW29623   8.139   1.434   4.129 -0.3394  0.4433  0.5014
 9391SOL    HW129624   8.080   1.361   4.112  0.2625  0.4124 -1.7431
 9391SOL    HW229625   8.218   1.393   4.164 -0.4629  0.1411  0.4314
 9392SOL     OW29626   4.228   9.075   0.692  0.4666 -0.3347 -0.8359
 9392SOL    HW129627   4.272   9.155   0.722 -0.1428 -0.6640  1.1329
 9392SOL    HW229628   4.136   9.101   0.685  0.4597 -0.5345 -1.4683
 9393SOL     OW29629   6.012   7.760   5.784  0.0277  0.0225 -0.3179
 9393SOL    HW129630   5.919   7.778   5.798 -0.4219 -0.7740 -2.0588
 9393SOL    HW229631   6.019   7.738   5.691  2.2764  1.9424 -0.6939
 9394SOL     OW29632   5.394   7.275   6.831  0.2501 -0.3288  0.3821
 9394SOL    HW129633   5.311   7.271   6.878 -0.1340 -1.1056 -0.3226
 9394SOL    HW229634   5.407   7.368   6.813 -0.2390 -0.1547  0.8904
 9395SOL     OW29635   6.648   9.246   2.784 -0.6288  0.0589  0.2053
 9395SOL    HW129636   6.713   9.256   2.715  0.7998  0.1594  1.5098
 9395SOL    HW229637   6.618   9.156   2.776  0.3671 -0.2817  0.1515
 9396SOL     OW29638   4.802   7.948   3.779  0.3804  0.5483  0.2945
 9396SOL    HW129639   4.777   7.890   3.851 -0.5296  1.2664  0.5740
 9396SOL    HW229640   4.760   7.910   3.702 -0.1551  0.7862  0.4639
 9397SOL     OW29641   7.246   3.750   8.685  0.0053 -0.4708 -0.0193
 9397SOL    HW129642   7.212   3.831   8.648  1.4749 -0.1234 -0.6585
 9397SOL    HW229643   7.198   3.681   8.639  0.2713 -0.0007 -1.0230
 9398SOL     OW29644   4.366   5.469   4.301  0.5770 -0.1063 -0.4538
 9398SOL    HW129645   4.409   5.537   4.248  0.9853 -0.1957 -0.2406
 9398SOL    HW229646   4.313   5.518   4.364  0.6562  0.0114 -0.4771
 9399SOL     OW29647   4.769   7.121   1.454  0.4704  0.0112  0.7358
 9399SOL    HW129648   4.705   7.119   1.524  0.2591  1.9207  0.6398
 9399SOL    HW229649   4.770   7.031   1.419 -1.9235 -0.1240  0.9094
 9400SOL     OW29650   8.774   7.553   5.219  0.4670  0.3779 -0.6991
 9400SOL    HW129651   8.735   7.619   5.276  0.1156  0.3928 -0.9535
 9400SOL    HW229652   8.769   7.591   5.131 -1.1245 -0.5974 -1.0694
 9401SOL     OW29653   8.489   3.708   8.059  0.6326 -0.1931 -0.3233
 9401SOL    HW129654   8.541   3.638   8.019  0.3040 -0.2227 -0.7009
 9401SOL    HW229655   8.462   3.672   8.144 -0.4973 -0.9731 -0.9888
 9402SOL     OW29656   5.750   6.369   6.583 -0.3120  0.1176 -0.5057
 9402SOL    HW129657   5.688   6.296   6.574  0.9147 -0.8731 -1.1581
 9402SOL    HW229658   5.708   6.427   6.647 -1.1787 -1.3263  0.3131
 9403SOL     OW29659   8.789   4.064   3.744  0.4224  0.1988  0.4627
 9403SOL    HW129660   8.723   4.074   3.813 -4.0670 -1.5717 -3.0788
 9403SOL    HW229661   8.766   4.130   3.679  2.9610  0.2584 -0.4626
 9404SOL     OW29662   4.013   0.011   3.795 -0.3962  0.1381  0.3698
 9404SOL    HW129663   3.981   0.013   3.704 -1.5272  0.8739  0.7586
 9404SOL    HW229664   3.940   0.047   3.846  0.5242  0.4570  1.4845
 9405SOL     OW29665   3.848   4.395   3.327  0.2368 -0.0686  0.2064
 9405SOL    HW129666   3.920   4.455   3.348  0.3211  0.5995 -1.7209
 9405SOL    HW229667   3.822   4.358   3.411  3.9710 -1.7191  0.8574
 9406SOL     OW29668   8.723   8.851   4.710  0.1208  0.3790  0.3268
 9406SOL    HW129669   8.776   8.876   4.634 -1.8714 -0.7567 -1.5784
 9406SOL    HW229670   8.648   8.910   4.707  0.4087  0.8781  1.9791
 9407SOL     OW29671   4.421   8.186   4.146 -0.3586  0.3148 -0.3744
 9407SOL    HW129672   4.467   8.104   4.129 -1.3249 -0.2373 -0.3720
 9407SOL    HW229673   4.484   8.254   4.121  1.4986 -0.3266  2.1853
 9408SOL     OW29674   6.445   0.995   3.732 -0.1017  0.1169 -0.0238
 9408SOL    HW129675   6.419   1.086   3.717 -2.2098 -0.3653  0.2809
 9408SOL    HW229676   6.489   0.969   3.652  0.1046  1.2551 -0.3018
 9409SOL     OW29677   7.714   7.664   3.957  0.2031 -0.2665 -0.7032
 9409SOL    HW129678   7.712   7.661   4.052 -0.2109  1.1804 -0.6444
 9409SOL    HW229679   7.668   7.745   3.934  2.8433  1.0204 -1.9896
 9410SOL     OW29680   8.018   7.618   6.475  0.2070  0.4417  0.2801
 9410SOL    HW129681   8.068   7.700   6.473  1.7536 -0.4640 -2.0501
 9410SOL    HW229682   8.068   7.558   6.420 -1.4404 -1.7785  1.0573
 9411SOL     OW29683   2.385   3.941   6.840  0.3278 -0.3087 -0.5258
 9411SOL    HW129684   2.294   3.922   6.864  1.1526 -3.0510  0.7539
 9411SOL    HW229685   2.379   4.024   6.792 -3.0152 -1.0358 -1.6790
 9412SOL     OW29686   4.822   7.328   0.308  0.7930 -0.1687 -0.3262
 9412SOL    HW129687   4.807   7.237   0.284 -1.0875  0.5848 -2.3695
 9412SOL    HW229688   4.917   7.340   0.299  1.1112 -1.9598  0.2823
 9413SOL     OW29689   3.364   0.747   3.530 -0.0776  0.2233 -0.0837
 9413SOL    HW129690   3.374   0.840   3.549  0.5728  0.1753 -0.1786
 9413SOL    HW229691   3.451   0.710   3.543 -0.0736 -0.1676 -1.1398
 9414SOL     OW29692   6.930   9.213   6.059  0.1507  0.5609  0.0694
 9414SOL    HW129693   7.024   9.227   6.060  0.5384 -1.6858  0.1280
 9414SOL    HW229694   6.919   9.124   6.025 -2.0141  1.1456 -0.9318
 9415SOL     OW29695   1.275   2.765   2.498  0.0028 -0.0259 -0.8335
 9415SOL    HW129696   1.239   2.800   2.580  1.0236  0.4880 -0.5961
 9415SOL    HW229697   1.300   2.842   2.447  2.3000 -0.3457 -0.3027
 9416SOL     OW29698   5.644   2.797   9.085  0.1257  0.4776  0.2595
 9416SOL    HW129699   5.681   2.772   9.170 -0.0917  0.2982  0.3015
 9416SOL    HW229700   5.590   2.874   9.104  1.3846  1.4679  0.0074
 9417SOL     OW29701   4.778   7.770   6.116  0.2781 -0.7351 -0.3973
 9417SOL    HW129702   4.685   7.746   6.127 -0.5730  2.2836 -0.3222
 9417SOL    HW229703   4.817   7.752   6.202 -0.4921 -0.9724 -0.0856
 9418SOL     OW29704   0.428   4.031   6.997  0.0498 -0.2943 -0.7609
 9418SOL    HW129705   0.463   4.051   7.084 -2.3969  0.0727  0.2162
 9418SOL    HW229706   0.482   4.081   6.937  1.0664  0.3657  0.6501
 9419SOL     OW29707   2.139   5.923   5.688 -0.6191  0.2596  0.0400
 9419SOL    HW129708   2.054   5.926   5.643 -1.5360  0.3438  1.6962
 9419SOL    HW229709   2.202   5.950   5.621 -1.9566  0.7073 -1.0985
 9420SOL     OW29710   6.393   0.036   7.467 -0.5538  0.2202 -0.1763
 9420SOL    HW129711   6.330  -0.029   7.497  1.0002 -1.6240 -0.6857
 9420SOL    HW229712   6.411   0.010   7.376  2.0555 -0.3163  0.4176
 9421SOL     OW29713   2.387   5.560   6.245 -0.0218 -0.1426 -0.2883
 9421SOL    HW129714   2.383   5.630   6.310  0.0346  0.3760 -0.8340
 9421SOL    HW229715   2.325   5.494   6.277  0.2799 -0.0670  0.4797
 9422SOL     OW29716   0.753   6.684   0.063  0.3798  0.0635  0.0764
 9422SOL    HW129717   0.687   6.640   0.009 -1.3750  3.0362 -0.4425
 9422SOL    HW229718   0.809   6.729  -0.001  1.3832 -0.3820  0.6198
 9423SOL     OW29719   1.806   3.290   2.839 -0.5098 -0.4724 -0.3567
 9423SOL    HW129720   1.753   3.224   2.794  0.2526 -0.8737 -0.6699
 9423SOL    HW229721   1.859   3.330   2.770  0.6747 -1.0946  0.1772
 9424SOL     OW29722   8.068   7.836   7.575  0.2310  0.1515  0.0896
 9424SOL    HW129723   8.082   7.839   7.480  0.7891 -0.5901  0.1340
 9424SOL    HW229724   8.075   7.743   7.596  1.4952  0.4486  1.0565
 9425SOL     OW29725   4.410   3.539   6.581 -0.2341  0.1184  0.2369
 9425SOL    HW129726   4.447   3.504   6.662 -2.0041  1.4665  1.7178
 9425SOL    HW229727   4.340   3.477   6.559  2.7244 -2.5535 -2.6757
 9426SOL     OW29728   7.225   1.637   0.620  0.5579  0.0635 -0.1225
 9426SOL    HW129729   7.211   1.548   0.589  2.1967 -0.3271  0.1825
 9426SOL    HW229730   7.150   1.686   0.585 -0.6060 -1.4922  0.0641
 9427SOL     OW29731   8.140   5.663   8.793 -0.0007 -0.1124 -1.1564
 9427SOL    HW129732   8.212   5.682   8.732  0.6857  0.6004 -0.1662
 9427SOL    HW229733   8.169   5.701   8.876 -2.1608  1.4626 -1.0615
 9428SOL     OW29734   0.622   8.733   1.896 -0.0028  0.2221  0.2175
 9428SOL    HW129735   0.673   8.660   1.930 -1.0007  0.0863  1.4815
 9428SOL    HW229736   0.533   8.700   1.891  0.1220 -0.0211 -3.2879
 9429SOL     OW29737   7.928   6.279   0.362  0.3879 -0.5042 -0.1503
 9429SOL    HW129738   7.980   6.323   0.294  1.3447 -0.8152  0.3627
 9429SOL    HW229739   7.993   6.241   0.421 -0.4082  0.1582  1.2084
 9430SOL     OW29740   3.137   3.204   3.055  0.0316 -0.8830 -0.6835
 9430SOL    HW129741   3.116   3.115   3.027 -3.1668 -0.5177  0.0560
 9430SOL    HW229742   3.091   3.260   2.993  0.0407  0.1632  0.2263
 9431SOL     OW29743   1.830   6.899   3.057 -0.0378 -0.0493  0.4560
 9431SOL    HW129744   1.873   6.826   3.012 -0.1341 -0.2822  0.7388
 9431SOL    HW229745   1.754   6.860   3.100 -0.6247  0.3824 -0.1572
 9432SOL     OW29746   1.287   1.822   0.732  0.3493 -0.2026  0.3012
 9432SOL    HW129747   1.369   1.839   0.779 -0.9734  3.1326  1.7643
 9432SOL    HW229748   1.312   1.826   0.639  2.0692 -0.7908  0.7007
 9433SOL     OW29749   9.007   8.449   3.123 -0.0016 -0.2087 -0.3230
 9433SOL    HW129750   9.031   8.509   3.194  2.9858  0.1599 -1.4966
 9433SOL    HW229751   8.952   8.503   3.065 -0.7516  0.1040  0.6454
 9434SOL     OW29752   6.094   7.904   8.866  0.3209 -0.1027 -0.1705
 9434SOL    HW129753   6.077   7.937   8.778 -0.7279 -2.2124 -0.8332
 9434SOL    HW229754   6.187   7.882   8.867  0.4090  0.2526 -0.6323
 9435SOL     OW29755   4.900   7.452   7.528  0.2536 -0.9038  0.1686
 9435SOL    HW129756   4.931   7.522   7.470  1.5551 -1.8672 -0.3565
 9435SOL    HW229757   4.873   7.382   7.469  1.7601 -1.9655  0.6792
 9436SOL     OW29758   6.729   0.814   1.567 -0.4087  0.0134 -0.2621
 9436SOL    HW129759   6.679   0.748   1.519  0.3066 -0.1010 -0.8562
 9436SOL    HW229760   6.771   0.765   1.638  0.1270 -0.1873 -0.7064
 9437SOL     OW29761   8.545   6.773   1.748 -0.1466  0.1794  0.3957
 9437SOL    HW129762   8.490   6.841   1.787  0.4396 -0.5343  2.5874
 9437SOL    HW229763   8.483   6.705   1.721 -0.5393  0.5563  0.3300
 9438SOL     OW29764   8.679   2.931   2.130  0.6162  0.3579 -0.0642
 9438SOL    HW129765   8.654   2.879   2.054  0.9786  0.5807 -0.3412
 9438SOL    HW229766   8.615   2.908   2.197 -0.4164  1.0273 -0.7903
 9439SOL     OW29767   3.307   8.315   2.450  0.5543 -0.4100  0.0205
 9439SOL    HW129768   3.238   8.277   2.396 -2.4736  2.0107  1.8327
 9439SOL    HW229769   3.380   8.328   2.390 -1.3693 -0.9689 -2.6231
 9440SOL     OW29770   1.766   7.427   3.882 -0.6142  0.3157 -0.0632
 9440SOL    HW129771   1.818   7.354   3.915  0.0957  0.9318  0.1919
 9440SOL    HW229772   1.757   7.487   3.956 -0.3849  0.9365 -0.5252
 9441SOL     OW29773   3.802   6.164   1.709  0.5655 -0.3701  0.4155
 9441SOL    HW129774   3.834   6.180   1.621 -0.4215 -1.9934 -0.2897
 9441SOL    HW229775   3.730   6.226   1.720  2.6542  2.0560  1.3489
 9442SOL     OW29776   1.574   5.799   1.024  0.1748  0.2850  0.0264
 9442SOL    HW129777   1.528   5.795   0.941 -0.8566 -1.4323  0.6254
 9442SOL    HW229778   1.659   5.838   1.003  0.3414 -1.0338 -2.0155
 9443SOL     OW29779   6.259   3.703   3.019 -0.2408 -0.2743  0.4866
 9443SOL    HW129780   6.342   3.661   3.039 -0.7969 -1.8016 -0.3055
 9443SOL    HW229781   6.271   3.739   2.931 -0.5714 -0.9650  0.1490
 9444SOL     OW29782   4.674   3.395   4.360  0.0158  0.7519  0.0344
 9444SOL    HW129783   4.712   3.451   4.428 -0.8920  0.6136  0.6740
 9444SOL    HW229784   4.637   3.321   4.408  1.7908 -0.7935 -0.8497
 9445SOL     OW29785   6.783   4.707   6.243  0.1599 -0.0781 -0.0673
 9445SOL    HW129786   6.727   4.660   6.306 -0.0695 -1.5306 -1.2836
 9445SOL    HW229787   6.870   4.670   6.257  0.1736 -0.1586 -0.3540
 9446SOL     OW29788   8.810   0.693   3.526  0.3055  0.1823  0.6355
 9446SOL    HW129789   8.895   0.726   3.554  0.1647  1.2558 -0.1505
 9446SOL    HW229790   8.783   0.751   3.455 -0.5698 -0.8308  0.1015
 9447SOL     OW29791   2.236   4.010   0.049  0.0745 -0.2258  0.6809
 9447SOL    HW129792   2.143   4.002   0.025 -0.4247 -0.0176  2.3555
 9447SOL    HW229793   2.235   4.063   0.129  1.6758  0.0420  0.5549
 9448SOL     OW29794   7.484   9.189   1.503  0.2384  0.0442  0.2833
 9448SOL    HW129795   7.394   9.177   1.534 -0.0923  0.9892 -0.2628
 9448SOL    HW229796   7.522   9.251   1.565 -0.0305  0.9621 -0.4475
 9449SOL     OW29797   8.719   7.029   9.091  0.4915  0.5848  0.4874
 9449SOL    HW129798   8.626   7.005   9.095  0.5779  0.1559  0.0061
 9449SOL    HW229799   8.765   6.946   9.090  0.8757  0.7954  0.5233
 9450SOL     OW29800   3.941   7.459   0.502 -0.1375 -0.3452 -0.4505
 9450SOL    HW129801   3.979   7.546   0.491 -0.6244  0.3323  2.2600
 9450SOL    HW229802   3.847   7.476   0.517 -0.1704 -1.2592  0.5249
 9451SOL     OW29803   6.537   4.838   2.805 -0.6805  0.9276  0.3603
 9451SOL    HW129804   6.569   4.824   2.894 -2.0421 -1.1694  0.5853
 9451SOL    HW229805   6.540   4.751   2.764  1.4708  2.0828 -2.2367
 9452SOL     OW29806   5.721   2.628   8.840 -0.2531 -0.8758  0.3637
 9452SOL    HW129807   5.813   2.603   8.844  0.1257  0.2990 -0.5616
 9452SOL    HW229808   5.709   2.688   8.914 -0.5668 -1.8228  1.1170
 9453SOL     OW29809   6.396   5.300   8.180 -0.2017 -0.0202 -0.1278
 9453SOL    HW129810   6.331   5.351   8.229 -0.3458 -0.0042 -0.3368
 9453SOL    HW229811   6.361   5.296   8.091 -0.0436 -0.2305 -0.1800
 9454SOL     OW29812   4.243   2.292   3.871 -0.2961  0.0018 -0.5103
 9454SOL    HW129813   4.162   2.265   3.913 -0.6891  0.8148 -0.7292
 9454SOL    HW229814   4.309   2.288   3.940 -0.5518 -0.4783 -0.2863
 9455SOL     OW29815   1.385   6.885   7.519  0.2818  0.0770  0.6689
 9455SOL    HW129816   1.462   6.939   7.502  0.1451 -0.0320 -0.3579
 9455SOL    HW229817   1.330   6.897   7.441 -0.8594  0.3629  1.4855
 9456SOL     OW29818   9.204   3.969   6.875 -0.0299 -0.0125 -0.4444
 9456SOL    HW129819   9.262   4.002   6.807 -0.6227  0.9317 -0.5060
 9456SOL    HW229820   9.253   3.897   6.915  1.6484  1.4418  0.2326
 9457SOL     OW29821   4.765   4.432   3.958 -0.3127 -0.2004  0.1002
 9457SOL    HW129822   4.827   4.501   3.980 -1.6043  1.4616 -1.2174
 9457SOL    HW229823   4.821   4.357   3.934  1.1170  0.4779  1.1452
 9458SOL     OW29824   7.198   6.475   6.122  0.2451 -0.2819  0.3002
 9458SOL    HW129825   7.204   6.398   6.065  0.0042 -0.9570  1.1526
 9458SOL    HW229826   7.160   6.543   6.067 -1.9094 -1.4812  0.1588
 9459SOL     OW29827   3.533   2.382   1.291  0.0658 -0.0205 -0.0294
 9459SOL    HW129828   3.628   2.376   1.302 -0.0850 -0.4642  1.2108
 9459SOL    HW229829   3.507   2.452   1.351  0.0698  3.3548 -3.5838
 9460SOL     OW29830   7.860   6.447   6.897  0.2747  0.4781 -0.0574
 9460SOL    HW129831   7.843   6.462   6.990 -1.6928  1.0062 -0.4706
 9460SOL    HW229832   7.782   6.403   6.865  1.2546 -0.4058 -1.3260
 9461SOL     OW29833   2.289   7.443   9.246  0.3399  0.7744 -0.2564
 9461SOL    HW129834   2.315   7.381   9.179  0.3428  0.7573 -0.2392
 9461SOL    HW229835   2.259   7.520   9.198 -1.0484  0.2251 -0.3301
 9462SOL     OW29836   9.160   4.404   3.099  0.3436 -0.2753  0.1939
 9462SOL    HW129837   9.108   4.441   3.169 -0.4921 -1.1658  0.0592
 9462SOL    HW229838   9.250   4.431   3.119  0.0867 -0.3138  1.4562
 9463SOL     OW29839   1.389   2.794   0.476 -0.1782 -0.2645 -0.2383
 9463SOL    HW129840   1.411   2.702   0.489  0.7492 -0.0193 -0.0178
 9463SOL    HW229841   1.357   2.798   0.386  0.4803 -0.6812 -0.4966
 9464SOL     OW29842   3.938   5.182   8.380 -0.1561 -0.0546  0.0253
 9464SOL    HW129843   4.009   5.236   8.413  1.3281 -1.9681  0.1291
 9464SOL    HW229844   3.978   5.128   8.312 -1.6307 -0.8276 -0.2840
 9465SOL     OW29845   3.975   8.442   9.253 -0.0281  0.4233  0.0301
 9465SOL    HW129846   4.043   8.468   9.315  0.4903 -0.3702 -0.1805
 9465SOL    HW229847   3.940   8.360   9.288 -2.9534  2.2138  1.7007
 9466SOL     OW29848   6.209   5.290   3.576 -0.3450  0.0599 -0.3423
 9466SOL    HW129849   6.219   5.353   3.646  0.2997 -0.5502  0.1226
 9466SOL    HW229850   6.145   5.227   3.609 -0.5821  0.1681 -0.5904
 9467SOL     OW29851   1.500   1.201   0.829 -0.3732  0.1907 -0.3903
 9467SOL    HW129852   1.440   1.227   0.760 -0.2517 -1.0508 -0.9914
 9467SOL    HW229853   1.579   1.253   0.814  0.0216 -0.7566 -1.8113
 9468SOL     OW29854   5.837   2.512   1.362 -0.3868  0.2897  0.9111
 9468SOL    HW129855   5.819   2.431   1.409 -0.6876  0.6083  1.3557
 9468SOL    HW229856   5.839   2.486   1.270 -1.8183 -0.0125  0.9318
 9469SOL     OW29857   4.782   4.040   2.013 -0.4098  0.4540  0.1455
 9469SOL    HW129858   4.798   4.086   2.096 -0.0219 -0.2481  0.4678
 9469SOL    HW229859   4.869   4.023   1.977 -0.5690  0.4426 -0.2413
 9470SOL     OW29860   0.478   5.969   4.680 -0.1464 -0.0944 -0.3496
 9470SOL    HW129861   0.407   5.916   4.717 -0.4509  0.9887  0.6491
 9470SOL    HW229862   0.451   5.985   4.589 -1.4554  0.7352  0.1519
 9471SOL     OW29863   4.941   8.441   1.764 -0.4964  0.1320  0.8032
 9471SOL    HW129864   4.928   8.517   1.821 -0.1328  0.5216  0.3747
 9471SOL    HW229865   5.031   8.414   1.780 -0.0387  0.9066 -0.3627
 9472SOL     OW29866   7.015   9.158   2.261  0.6112  0.0849  0.5494
 9472SOL    HW129867   7.044   9.245   2.288  0.1802  0.3274  0.2386
 9472SOL    HW229868   7.083   9.128   2.201  0.8779  0.1071  0.8355
 9473SOL     OW29869   6.562   3.172   6.194 -0.1585 -0.0626  0.0850
 9473SOL    HW129870   6.531   3.239   6.255  1.1917  1.3552 -0.7164
 9473SOL    HW229871   6.482   3.134   6.157 -1.0093 -0.5967  2.2797
 9474SOL     OW29872   3.338   4.974   5.680  0.8897 -0.1410  0.2885
 9474SOL    HW129873   3.406   4.940   5.739  1.0570 -0.1967  0.0669
 9474SOL    HW229874   3.314   4.899   5.625  0.0523 -0.3373  0.9156
 9475SOL     OW29875   4.222   5.867   5.473  0.0001  0.5299 -0.1698
 9475SOL    HW129876   4.170   5.863   5.393 -0.3271  2.9706 -0.1335
 9475SOL    HW229877   4.161   5.842   5.543 -0.1285 -0.1112 -0.5050
 9476SOL     OW29878   5.307   2.676   0.332  0.0119  0.1460 -0.3850
 9476SOL    HW129879   5.302   2.667   0.427 -1.1929  1.1339 -0.3251
 9476SOL    HW229880   5.353   2.598   0.303 -0.4120 -0.6267  0.9346
 9477SOL     OW29881   6.362   1.537   7.605 -0.1932  0.4124  0.0695
 9477SOL    HW129882   6.377   1.593   7.529 -2.1317  0.6447 -0.1955
 9477SOL    HW229883   6.293   1.582   7.654  1.5959  0.7285  2.4914
 9478SOL     OW29884   1.466   4.197   3.581  0.2052 -0.3798  0.0899
 9478SOL    HW129885   1.530   4.268   3.574 -0.5920  0.4863  1.2063
 9478SOL    HW229886   1.464   4.175   3.674  0.1791 -1.6366 -0.1927
 9479SOL     OW29887   8.178   3.772   4.979 -0.1051 -0.2050  0.5202
 9479SOL    HW129888   8.175   3.867   4.965 -0.9806 -0.3841 -0.6341
 9479SOL    HW229889   8.196   3.736   4.892  0.6850 -1.0767  1.0410
 9480SOL     OW29890   6.417   4.619   3.119  0.0782  0.4615 -0.5941
 9480SOL    HW129891   6.366   4.592   3.195  0.1904  1.1649 -0.2541
 9480SOL    HW229892   6.508   4.604   3.144  0.0870  0.1335 -0.8211
 9481SOL     OW29893   6.938   8.474   1.219 -0.3318  0.1326  0.1740
 9481SOL    HW129894   6.974   8.389   1.192  0.8217  0.8186 -0.5310
 9481SOL    HW229895   6.923   8.464   1.313  0.1912 -0.7106  0.1834
 9482SOL     OW29896   3.717   2.088   0.335 -0.1559 -0.3058 -0.1022
 9482SOL    HW129897   3.791   2.027   0.347 -0.6015 -0.5993  1.3248
 9482SOL    HW229898   3.644   2.032   0.311 -0.5970 -0.4007  1.3318
 9483SOL     OW29899   4.466   9.012   8.467  0.0821  0.1802 -0.0464
 9483SOL    HW129900   4.509   8.946   8.522  0.0295 -0.7553 -1.0883
 9483SOL    HW229901   4.386   9.034   8.514 -0.0994 -0.8034  0.1300
 9484SOL     OW29902   1.893   2.470   3.901  0.4679 -0.5193 -0.0487
 9484SOL    HW129903   1.952   2.432   3.967 -0.4100 -0.2954  0.8988
 9484SOL    HW229904   1.879   2.560   3.931 -1.9107 -1.1312  0.8966
 9485SOL     OW29905   4.773   3.945   0.140  0.3504 -0.0681 -0.0620
 9485SOL    HW129906   4.780   3.861   0.097 -0.0764 -0.3682  0.4411
 9485SOL    HW229907   4.704   3.991   0.092 -1.4574 -1.1114  1.4007
 9486SOL     OW29908   2.412   3.937   7.680 -0.2839  0.1827  0.4191
 9486SOL    HW129909   2.463   3.886   7.742  0.5906  0.6077  0.0605
 9486SOL    HW229910   2.450   4.025   7.683 -0.8466  0.4536 -0.0230
 9487SOL     OW29911   0.921   5.271   5.906 -0.3829  0.2177  0.4199
 9487SOL    HW129912   0.908   5.349   5.852 -2.9040  0.0966  0.7054
 9487SOL    HW229913   0.893   5.198   5.850  1.2127 -0.4182  0.4195
 9488SOL     OW29914   7.766   1.010   5.897 -0.6814  0.0225 -0.4077
 9488SOL    HW129915   7.840   1.006   5.835 -2.4448  1.1844 -2.7291
 9488SOL    HW229916   7.799   1.063   5.970  1.2529 -0.7993 -0.6095
 9489SOL     OW29917   4.523   7.490   7.126  0.5417  0.3857 -0.7650
 9489SOL    HW129918   4.458   7.528   7.185  0.4225  1.4100 -1.5199
 9489SOL    HW229919   4.599   7.548   7.135  1.4163 -0.8547  0.1858
 9490SOL     OW29920   3.327   5.261   1.494 -0.2277  0.1942  0.8618
 9490SOL    HW129921   3.288   5.197   1.553  2.5614 -0.1610  2.4707
 9490SOL    HW229922   3.351   5.334   1.550 -0.1622  1.1474 -0.3605
 9491SOL     OW29923   5.456   3.361   4.397 -0.0533  0.6982  0.1414
 9491SOL    HW129924   5.470   3.440   4.450  0.1381  1.3388 -0.8410
 9491SOL    HW229925   5.435   3.293   4.461 -0.3129  1.5604  1.0016
 9492SOL     OW29926   1.576   3.332   9.196 -0.2490  0.5373  0.7321
 9492SOL    HW129927   1.512   3.363   9.131 -0.2274 -1.1270 -0.1400
 9492SOL    HW229928   1.649   3.300   9.143 -0.0651 -0.5085  1.5894
 9493SOL     OW29929   0.534   6.110   6.734 -0.1857 -0.1956 -0.4043
 9493SOL    HW129930   0.438   6.107   6.744 -0.1862 -1.5254 -0.6404
 9493SOL    HW229931   0.566   6.123   6.823 -0.5872  0.7832 -0.3851
 9494SOL     OW29932   1.129   2.419   6.044 -0.7170 -0.0743  0.6270
 9494SOL    HW129933   1.104   2.382   5.959 -0.1199  1.7475 -0.3939
 9494SOL    HW229934   1.072   2.496   6.054  1.4602  1.7025  0.2286
 9495SOL     OW29935   7.415   6.818   1.438 -0.5619 -0.6457  0.3476
 9495SOL    HW129936   7.410   6.762   1.516 -1.8698 -0.5468  0.3457
 9495SOL    HW229937   7.493   6.786   1.391 -0.8438 -1.9618  0.7359
 9496SOL     OW29938   1.336   6.665   3.132 -0.2845  0.4801 -0.3360
 9496SOL    HW129939   1.391   6.587   3.136 -0.1213  0.5064 -1.5857
 9496SOL    HW229940   1.374   6.718   3.061 -2.1847  0.2595 -1.5930
 9497SOL     OW29941   8.601   3.262   3.958  0.2632 -0.3119  0.6176
 9497SOL    HW129942   8.610   3.209   4.038  0.6291 -0.0368  0.7591
 9497SOL    HW229943   8.679   3.243   3.907  0.4405  0.1628  0.7090
 9498SOL     OW29944   2.921   7.792   2.554 -0.0497 -0.4876  0.2467
 9498SOL    HW129945   2.999   7.813   2.605 -0.0547 -0.7773  0.3788
 9498SOL    HW229946   2.851   7.843   2.595  0.3554  1.0184 -0.8576
 9499SOL     OW29947   3.774   3.559   7.429  0.3960 -0.3460 -0.4472
 9499SOL    HW129948   3.844   3.545   7.365 -0.8288 -1.0968 -1.6684
 9499SOL    HW229949   3.720   3.629   7.390  1.1333  1.1444  1.0868
 9500SOL     OW29950   4.571   6.490   8.085  0.0136 -0.4228 -0.1599
 9500SOL    HW129951   4.583   6.438   8.006  0.8194 -1.0977  0.3919
 9500SOL    HW229952   4.479   6.515   8.084  0.1374  0.0564 -1.5902
 9501SOL     OW29953   8.475   6.833   3.946  0.1955  0.0987  0.3349
 9501SOL    HW129954   8.536   6.839   4.020  0.5954  0.0438  0.0162
 9501SOL    HW229955   8.458   6.924   3.922  1.0153  0.1065 -0.2639
 9502SOL     OW29956   7.214   9.068   8.346  0.5376 -0.2037 -0.2292
 9502SOL    HW129957   7.214   9.025   8.260  0.0835  0.2436 -0.4616
 9502SOL    HW229958   7.121   9.079   8.367  0.5769  2.6159 -1.1924
 9503SOL     OW29959   6.450   5.320   2.876  0.8779 -0.4646  0.0219
 9503SOL    HW129960   6.402   5.387   2.826  1.3147 -0.8953 -1.0015
 9503SOL    HW229961   6.419   5.237   2.841  0.0398 -0.8328  1.5685
 9504SOL     OW29962   3.253   8.487   3.752  0.1765 -0.1189 -0.4280
 9504SOL    HW129963   3.259   8.410   3.695 -1.5187  0.0029 -0.8022
 9504SOL    HW229964   3.173   8.473   3.803  1.5572 -0.1641  1.8779
 9505SOL     OW29965   2.464   7.428   0.897  0.0553  0.1094  0.0028
 9505SOL    HW129966   2.522   7.455   0.826 -0.1958  0.0848 -0.2137
 9505SOL    HW229967   2.406   7.502   0.910  1.3635  0.9216  1.5478
 9506SOL     OW29968   5.548   1.880   3.092 -0.3633  0.0805 -0.3684
 9506SOL    HW129969   5.487   1.905   3.023 -1.5106  1.4341  1.0388
 9506SOL    HW229970   5.496   1.823   3.150 -0.3449  1.2350  0.8396
 9507SOL     OW29971   5.189   2.001   6.106  0.1349 -1.1030 -0.0882
 9507SOL    HW129972   5.099   1.983   6.133  0.1718 -0.5123  0.4433
 9507SOL    HW229973   5.234   2.025   6.186  1.0710 -2.5205 -0.1514
 9508SOL     OW29974   1.234   1.213   3.547  0.2786 -0.0523 -0.3387
 9508SOL    HW129975   1.208   1.123   3.570  0.6520 -0.9490 -3.1214
 9508SOL    HW229976   1.313   1.228   3.599  0.3232 -1.4255  0.0455
 9509SOL     OW29977   3.506   9.209   2.136  0.1293 -0.3215  0.3587
 9509SOL    HW129978   3.538   9.155   2.064  0.7648 -2.6071  2.2254
 9509SOL    HW229979   3.415   9.182   2.147 -0.1049  0.3639  0.1308
 9510SOL     OW29980   7.983   3.885   1.355  0.3465 -0.2087  0.0597
 9510SOL    HW129981   8.005   3.796   1.330  1.1129  0.3590 -1.4025
 9510SOL    HW229982   7.921   3.914   1.288  1.6669  1.0159 -0.6916
 9511SOL     OW29983   7.529   2.395   4.673  0.6837  0.2569  0.1312
 9511SOL    HW129984   7.609   2.361   4.713  0.3962 -1.3188 -0.5581
 9511SOL    HW229985   7.483   2.317   4.641  1.0469  1.3753 -3.5681
 9512SOL     OW29986   5.420   4.356   2.661 -0.0534 -0.4344 -1.2123
 9512SOL    HW129987   5.454   4.317   2.742 -1.1162 -0.7419 -0.9037
 9512SOL    HW229988   5.347   4.300   2.636 -0.5907  0.4436 -1.6566
 9513SOL     OW29989   1.706   4.152   2.268 -0.3419  0.4815 -0.3250
 9513SOL    HW129990   1.798   4.127   2.280 -0.0130  1.6292 -0.3594
 9513SOL    HW229991   1.710   4.236   2.223 -1.4021  1.1932  0.8787
 9514SOL     OW29992   5.522   1.168   2.393 -0.3983  0.0664 -0.2526
 9514SOL    HW129993   5.460   1.159   2.321 -0.8375 -0.2467  0.1584
 9514SOL    HW229994   5.519   1.084   2.439 -1.3734  0.8090  1.1204
 9515SOL     OW29995   6.110   4.338   1.241 -1.0065 -0.1859 -0.0877
 9515SOL    HW129996   6.016   4.356   1.240 -1.3076 -1.6035  0.4149
 9515SOL    HW229997   6.147   4.404   1.183 -2.2819  0.5464 -0.1191
 9516SOL     OW29998   8.414   5.869   8.157  0.1266  0.0097  0.7290
 9516SOL    HW129999   8.331   5.917   8.157  1.5881  2.7889  1.9175
 9516SOL    HW230000   8.399   5.795   8.216 -1.9504 -0.5886 -0.4332
 9517SOL     OW30001   6.913   0.476   5.128 -0.2315  0.1732  0.3502
 9517SOL    HW130002   6.870   0.403   5.174 -2.1115  0.2660 -1.1154
 9517SOL    HW230003   6.968   0.433   5.063 -0.2001  0.0486  0.4586
 9518SOL     OW30004   0.739   4.133   0.677 -0.0640 -0.3385 -0.5786
 9518SOL    HW130005   0.809   4.087   0.631 -0.6693  0.2657 -2.1645
 9518SOL    HW230006   0.688   4.064   0.719 -0.7988 -1.1596 -2.6946
 9519SOL     OW30007   0.166   7.354   4.306  0.3284 -0.1475 -0.4196
 9519SOL    HW130008   0.195   7.390   4.222 -1.6033  1.0208 -0.6596
 9519SOL    HW230009   0.112   7.279   4.282  0.3358 -0.2297 -0.1744
 9520SOL     OW30010   3.352   5.023   8.339  0.2197  0.3247  0.2105
 9520SOL    HW130011   3.328   5.116   8.342 -0.3078  0.2399 -0.9239
 9520SOL    HW230012   3.277   4.980   8.297  0.6756 -0.5371  0.2555
 9521SOL     OW30013   7.854   0.757   9.028  0.0106  0.0283  0.2684
 9521SOL    HW130014   7.874   0.851   9.027 -2.0335  0.4964 -0.2846
 9521SOL    HW230015   7.761   0.752   9.049  0.0525 -1.8888  0.1927
 9522SOL     OW30016   5.162   7.305   2.130 -0.3882 -0.3114 -0.1556
 9522SOL    HW130017   5.122   7.251   2.198 -2.3732 -1.0334 -1.7833
 9522SOL    HW230018   5.185   7.244   2.060 -1.9607  0.7552 -1.7112
 9523SOL     OW30019   6.918   2.465   5.313  0.2830 -0.0164 -0.4202
 9523SOL    HW130020   6.865   2.391   5.283 -0.3214 -0.0273  0.6350
 9523SOL    HW230021   7.006   2.428   5.322  0.1935 -0.3481 -0.8381
 9524SOL     OW30022   3.459   8.554   5.286 -0.1290  0.7293 -0.3593
 9524SOL    HW130023   3.475   8.485   5.221 -1.3422 -0.2893  0.3781
 9524SOL    HW230024   3.421   8.625   5.235 -1.4226 -0.1955 -0.7521
 9525SOL     OW30025   3.931   2.524   2.231 -0.0255  0.2141 -0.0814
 9525SOL    HW130026   3.864   2.561   2.289 -0.6692 -1.1297  0.0542
 9525SOL    HW230027   4.010   2.521   2.284 -0.3690 -0.0942  0.4254
 9526SOL     OW30028   3.609   3.190   8.049  0.4016 -0.3496  0.3952
 9526SOL    HW130029   3.522   3.156   8.029  0.0767  0.2439  0.7534
 9526SOL    HW230030   3.637   3.234   7.969 -0.5124  1.2374  0.8917
 9527SOL     OW30031   2.269   6.417   0.650  0.5446  0.1766 -0.6308
 9527SOL    HW130032   2.233   6.379   0.731  1.5337 -0.1671 -0.3282
 9527SOL    HW230033   2.221   6.374   0.580 -0.0334  0.1593 -0.2316
 9528SOL     OW30034   2.935   9.064   2.950 -0.0125  0.4503  0.2117
 9528SOL    HW130035   2.939   8.976   2.914 -0.6340  0.6412 -0.3674
 9528SOL    HW230036   2.999   9.065   3.021  0.4282 -0.2840 -0.1656
 9529SOL     OW30037   8.599   3.550   5.708  0.0672  0.1829 -0.3156
 9529SOL    HW130038   8.634   3.482   5.651  0.2798  0.9558 -1.1284
 9529SOL    HW230039   8.567   3.618   5.649 -1.1393  0.3210  0.4526
 9530SOL     OW30040   8.828   4.654   6.911  0.3964  0.0271  0.0359
 9530SOL    HW130041   8.788   4.680   6.828  1.0668 -0.6030 -0.4998
 9530SOL    HW230042   8.756   4.614   6.960  0.1399 -0.1878 -0.5085
 9531SOL     OW30043   6.888   5.148   5.247 -0.1875 -0.3366 -0.0894
 9531SOL    HW130044   6.857   5.059   5.231 -0.5893 -0.4642  1.2721
 9531SOL    HW230045   6.946   5.167   5.173 -2.4579 -0.5758 -2.0706
 9532SOL     OW30046   5.742   2.564   1.802 -0.3215 -0.4796 -0.3820
 9532SOL    HW130047   5.835   2.547   1.821  0.2862 -0.6253 -3.0511
 9532SOL    HW230048   5.744   2.612   1.719 -2.6404 -0.0127 -0.2112
 9533SOL     OW30049   3.628   8.760   5.030  0.1752  0.5135 -0.5124
 9533SOL    HW130050   3.534   8.758   5.048  0.1681 -0.4782 -0.6345
 9533SOL    HW230051   3.646   8.679   4.983  1.3287  0.0332  0.7001
 9534SOL     OW30052   7.782   6.104   4.827 -0.1862  0.2965  0.1134
 9534SOL    HW130053   7.791   6.194   4.796 -0.1478  0.0541 -0.5989
 9534SOL    HW230054   7.787   6.051   4.748 -0.2601 -0.3312  0.5227
 9535SOL     OW30055   4.125   6.393   0.663  0.1717 -0.0580  0.7907
 9535SOL    HW130056   4.075   6.316   0.637 -0.5109  0.1624  1.4124
 9535SOL    HW230057   4.153   6.432   0.581  1.4778 -1.5672  0.4799
 9536SOL     OW30058   4.572   4.706   8.570 -0.0659  0.1997  0.5925
 9536SOL    HW130059   4.608   4.757   8.498  1.2043  0.6295  1.4959
 9536SOL    HW230060   4.503   4.653   8.530  0.9050  0.0802 -1.0060
 9537SOL     OW30061   7.621   6.688   5.439  1.2598 -0.2154  0.1027
 9537SOL    HW130062   7.613   6.714   5.347 -2.5838  2.2335  0.8836
 9537SOL    HW230063   7.668   6.761   5.480  0.0877  0.2946  0.5656
 9538SOL     OW30064   0.434   1.926   1.574  0.2637  0.3648 -0.2461
 9538SOL    HW130065   0.385   2.006   1.558 -0.4033 -0.3106 -1.8145
 9538SOL    HW230066   0.523   1.945   1.543  0.3086  0.7483  0.1221
 9539SOL     OW30067   0.554   2.285   0.658  0.5098  0.8188 -0.4883
 9539SOL    HW130068   0.490   2.354   0.675 -1.0608 -0.1233 -2.1446
 9539SOL    HW230069   0.618   2.326   0.600  0.3716  1.2802 -0.3194
 9540SOL     OW30070   2.898   5.192   3.461 -0.5101 -0.4086  1.0220
 9540SOL    HW130071   2.956   5.117   3.448 -0.0555  0.0999  0.0284
 9540SOL    HW230072   2.955   5.268   3.450 -1.1148  0.0914  1.3009
 9541SOL     OW30073   1.864   6.689   7.979 -0.0264  0.1920 -0.2241
 9541SOL    HW130074   1.919   6.689   8.058 -2.2092 -0.7094  1.3968
 9541SOL    HW230075   1.802   6.618   7.993 -1.9640  1.4919 -1.7012
 9542SOL     OW30076   6.984   0.464   8.116 -1.0193 -0.2928  0.1706
 9542SOL    HW130077   6.928   0.387   8.124  0.1845 -1.2933 -0.5966
 9542SOL    HW230078   7.071   0.428   8.099 -0.1217  1.2018  1.3561
 9543SOL     OW30079   0.904   1.510   2.138 -0.2706  0.1233 -0.2950
 9543SOL    HW130080   0.931   1.555   2.058  0.3694 -0.8461 -0.6464
 9543SOL    HW230081   0.863   1.429   2.107 -2.1147  0.7877  0.2955
 9544SOL     OW30082   0.303   2.369   5.030  0.1221  0.0379 -0.5176
 9544SOL    HW130083   0.377   2.315   5.058  0.3673 -0.2947 -1.7532
 9544SOL    HW230084   0.227   2.327   5.069  0.4998 -0.0142  0.1964
 9545SOL     OW30085   1.781   0.943   6.584  0.5590  0.2476  0.0795
 9545SOL    HW130086   1.733   0.988   6.653 -1.7908 -0.1320 -1.2004
 9545SOL    HW230087   1.796   0.855   6.619  2.4821  1.0144  1.3842
 9546SOL     OW30088   7.914   2.941   6.211 -0.2066 -0.4637 -0.1541
 9546SOL    HW130089   7.850   2.927   6.281 -1.5524  3.1316 -0.4565
 9546SOL    HW230090   7.860   2.960   6.134  1.2522 -0.6656 -1.2571
 9547SOL     OW30091   7.527   1.745   8.966  0.6922  0.0912 -0.1182
 9547SOL    HW130092   7.446   1.772   9.008  0.4165 -0.2091 -0.4608
 9547SOL    HW230093   7.589   1.816   8.986  0.8010 -0.4057  1.4781
 9548SOL     OW30094   4.933   9.108   3.118 -0.5388  0.0303  0.1517
 9548SOL    HW130095   4.923   9.033   3.176  0.2590  0.3582  0.7344
 9548SOL    HW230096   5.028   9.117   3.107 -0.6595  0.3827 -0.6588
 9549SOL     OW30097   4.898   6.704   7.246  0.1546  0.4107  0.1218
 9549SOL    HW130098   4.872   6.642   7.314 -1.3878 -0.9747 -1.6121
 9549SOL    HW230099   4.993   6.693   7.237  0.0658 -0.8792  0.6330
 9550SOL     OW30100   2.519   3.113   7.257  0.3542 -0.6872 -0.0785
 9550SOL    HW130101   2.500   3.129   7.164  1.0807  0.9037  0.0040
 9550SOL    HW230102   2.483   3.190   7.302  0.9269 -0.9396  0.8362
 9551SOL     OW30103   0.668   3.810   8.281 -0.2640 -0.1086  0.0696
 9551SOL    HW130104   0.664   3.816   8.376  3.4579 -0.0963  0.3637
 9551SOL    HW230105   0.703   3.723   8.263  0.1787  0.3015 -1.2094
 9552SOL     OW30106   2.223   3.397   4.501  1.1391  0.3205  0.5790
 9552SOL    HW130107   2.192   3.327   4.443 -0.1871 -0.6528  2.3481
 9552SOL    HW230108   2.221   3.357   4.588  2.9020  1.7720  1.3479
 9553SOL     OW30109   2.357   8.991   7.692  0.1354 -0.1501  0.3451
 9553SOL    HW130110   2.270   9.019   7.720 -0.3524 -0.5111 -0.7416
 9553SOL    HW230111   2.417   9.034   7.753 -0.8708 -1.3343  2.2488
 9554SOL     OW30112   6.352   4.739   4.292  0.1834  0.2957  0.2035
 9554SOL    HW130113   6.314   4.731   4.205  1.7816  0.8565 -0.5814
 9554SOL    HW230114   6.286   4.702   4.350 -0.0945 -1.9600 -1.4236
 9555SOL     OW30115   8.366   4.311   2.675 -0.0651  0.3843  0.3411
 9555SOL    HW130116   8.432   4.351   2.732  1.1610 -0.6927 -0.2711
 9555SOL    HW230117   8.322   4.386   2.633 -0.8649  1.1875  2.4989
 9556SOL     OW30118   3.202   7.572   9.057 -0.5229 -0.0648  0.1492
 9556SOL    HW130119   3.223   7.485   9.092 -3.7084 -0.6857  0.8766
 9556SOL    HW230120   3.256   7.579   8.978 -0.4695 -2.9386 -0.2022
 9557SOL     OW30121   3.824   4.423   3.778  0.0748  0.1671 -0.7447
 9557SOL    HW130122   3.908   4.454   3.811  0.8031 -1.7865 -0.6553
 9557SOL    HW230123   3.786   4.499   3.734  0.8853  1.7060  1.0789
 9558SOL     OW30124   0.094   3.278   8.262 -0.3542  0.0865 -0.1231
 9558SOL    HW130125   0.055   3.219   8.327  1.1475  0.2244  0.9480
 9558SOL    HW230126   0.182   3.244   8.249 -0.0952  1.0163 -0.8862
 9559SOL     OW30127   3.464   4.029   3.121 -0.8103 -0.0084 -0.4744
 9559SOL    HW130128   3.419   3.982   3.191  0.9159 -1.5391 -0.2918
 9559SOL    HW230129   3.530   4.082   3.165 -1.5366  1.2160 -0.8082
 9560SOL     OW30130   3.046   7.251   5.805 -0.2719 -0.0351  0.4004
 9560SOL    HW130131   3.013   7.341   5.813 -0.2209  0.0074  0.1443
 9560SOL    HW230132   2.976   7.204   5.760  0.6906  0.4674 -1.8059
 9561SOL     OW30133   0.540   3.142   4.676  0.6119  0.1956 -0.2150
 9561SOL    HW130134   0.564   3.235   4.679  0.3614  0.2330  0.6517
 9561SOL    HW230135   0.508   3.122   4.763 -0.1530 -0.4949 -0.6373
 9562SOL     OW30136   9.112   7.012   8.076  0.1491  0.3151  0.2471
 9562SOL    HW130137   9.140   6.932   8.121 -0.2416 -0.7928 -1.3988
 9562SOL    HW230138   9.179   7.025   8.008  0.2766  1.4791  0.5742
 9563SOL     OW30139   1.413   7.807   5.877  0.5623  0.0362 -0.1012
 9563SOL    HW130140   1.327   7.814   5.837  0.0135  1.3450  1.2033
 9563SOL    HW230141   1.398   7.825   5.970  1.7316 -3.1243  0.8464
 9564SOL     OW30142   4.463   0.568   6.689  0.2910 -0.0498  0.2413
 9564SOL    HW130143   4.477   0.621   6.610  0.2216 -0.7400 -0.2438
 9564SOL    HW230144   4.488   0.479   6.663  1.0319 -0.1434  1.2440
 9565SOL     OW30145   7.207   8.118   7.872 -0.9102 -0.2497 -0.0438
 9565SOL    HW130146   7.266   8.192   7.890  0.8364 -1.9956  1.9757
 9565SOL    HW230147   7.208   8.109   7.777 -1.3642  2.3896 -0.3913
 9566SOL     OW30148   4.168   8.815   6.579 -0.3847 -0.2996  0.5943
 9566SOL    HW130149   4.086   8.777   6.608  0.0761 -1.8316 -0.0460
 9566SOL    HW230150   4.158   8.825   6.485  0.7286 -2.0417  0.2501
 9567SOL     OW30151   2.163   6.518   8.779  0.0252  1.1999 -0.1129
 9567SOL    HW130152   2.176   6.438   8.727  0.3376  1.7047 -0.8222
 9567SOL    HW230153   2.132   6.486   8.863 -3.1142  0.4543 -1.3933
 9568SOL     OW30154   5.359   6.467   3.899  0.1103  0.0978 -0.1370
 9568SOL    HW130155   5.309   6.451   3.818  0.3237 -1.4910  0.0099
 9568SOL    HW230156   5.396   6.554   3.887 -0.5068  0.2112 -1.4162
 9569SOL     OW30157   2.597   7.204   0.776 -0.2673  0.3387 -0.6949
 9569SOL    HW130158   2.555   7.123   0.803  0.1893  0.8052  1.6834
 9569SOL    HW230159   2.541   7.273   0.812  0.9064  1.0041 -0.0795
 9570SOL     OW30160   5.069   0.683   3.359 -0.9001  0.0899 -0.1202
 9570SOL    HW130161   5.092   0.765   3.404  0.1485 -0.3528  0.1750
 9570SOL    HW230162   5.099   0.696   3.269 -1.0673  0.1635 -0.1663
 9571SOL     OW30163   2.312   3.862   0.794  0.6049 -0.8878  0.6545
 9571SOL    HW130164   2.313   3.908   0.710 -0.0347  0.4993  1.3813
 9571SOL    HW230165   2.396   3.815   0.797  0.6854 -0.8474 -0.6859
 9572SOL     OW30166   8.283   5.244   6.498  0.1242 -0.2235 -0.6261
 9572SOL    HW130167   8.274   5.253   6.403  0.5138  1.0676 -0.5531
 9572SOL    HW230168   8.351   5.308   6.522  2.2935 -2.6287  0.1290
 9573SOL     OW30169   9.210   4.598   4.314  0.3892 -1.0197  0.2902
 9573SOL    HW130170   9.141   4.534   4.331 -0.0974 -0.3576  0.8579
 9573SOL    HW230171   9.253   4.609   4.399 -0.3985  0.3974  0.5303
 9574SOL     OW30172   5.669   8.331   2.776 -0.5010 -0.6682  0.1967
 9574SOL    HW130173   5.706   8.332   2.864  0.0682 -1.2223 -0.0213
 9574SOL    HW230174   5.581   8.367   2.786  0.2728  1.2252  0.6358
 9575SOL     OW30175   8.834   0.151   4.615  0.4904 -0.8981 -0.2477
 9575SOL    HW130176   8.855   0.216   4.547 -0.0691 -0.0809  0.3332
 9575SOL    HW230177   8.766   0.096   4.575 -0.4687  0.1200 -0.0710
 9576SOL     OW30178   8.029   4.243   5.485  0.4479 -0.0230 -0.4752
 9576SOL    HW130179   8.120   4.267   5.499  0.6828 -0.7231 -0.7901
 9576SOL    HW230180   8.027   4.199   5.400  0.0798 -1.2677  0.1375
 9577SOL     OW30181   2.963   1.586   8.714 -0.2202 -0.1311  0.4826
 9577SOL    HW130182   3.035   1.630   8.759  0.7938 -1.9363  0.7265
 9577SOL    HW230183   2.935   1.518   8.776 -0.6027 -0.9233 -0.5413
 9578SOL     OW30184   6.818   8.417   5.928  0.4595  0.0051  0.5627
 9578SOL    HW130185   6.906   8.453   5.929  0.6176  0.6804 -5.0874
 9578SOL    HW230186   6.829   8.325   5.906 -0.2723 -0.0646  0.4526
 9579SOL     OW30187   0.067   6.973   0.527 -0.4280  0.2520  0.5392
 9579SOL    HW130188   0.054   6.879   0.540 -0.5946 -0.0623 -1.5666
 9579SOL    HW230189  -0.022   7.008   0.517 -0.3398  0.5288  0.7097
 9580SOL     OW30190   3.599   9.277   2.386  0.0036 -0.5122  0.4694
 9580SOL    HW130191   3.617   9.370   2.379 -1.0527 -0.3650 -0.3833
 9580SOL    HW230192   3.577   9.249   2.297 -0.2899 -1.4409  0.8179
 9581SOL     OW30193   3.997   5.467   2.542 -0.5562 -0.1402 -0.3065
 9581SOL    HW130194   3.966   5.528   2.474  0.1002  0.4686 -0.0656
 9581SOL    HW230195   4.049   5.522   2.601 -2.1586 -0.3972  1.4185
 9582SOL     OW30196   0.109   8.026   1.634 -0.5586 -0.7250  0.7175
 9582SOL    HW130197   0.167   7.972   1.580  0.3022  1.6752 -0.9614
 9582SOL    HW230198   0.034   8.045   1.577 -1.4210 -1.1110  1.7020
 9583SOL     OW30199   5.610   8.976   0.002  0.1362 -0.0481  0.3681
 9583SOL    HW130200   5.547   9.048   0.013  1.7936  1.6606 -0.6252
 9583SOL    HW230201   5.610   8.932   0.087 -1.7848  0.3852  0.6477
 9584SOL     OW30202   8.145   4.835   0.911 -0.4014  0.2645 -0.8811
 9584SOL    HW130203   8.109   4.887   0.840 -1.4724 -1.2671 -1.5144
 9584SOL    HW230204   8.240   4.850   0.907 -0.5792  1.2083 -1.7820
 9585SOL     OW30205   4.284   8.812   1.666 -0.3493  0.5240 -0.5057
 9585SOL    HW130206   4.349   8.745   1.646  0.0961  0.6763  0.4011
 9585SOL    HW230207   4.204   8.781   1.625 -0.4222 -1.1020  0.7829
 9586SOL     OW30208   3.438   5.056   3.346  0.1102  0.3024 -0.2142
 9586SOL    HW130209   3.494   5.127   3.314  0.6850 -0.7100 -1.5384
 9586SOL    HW230210   3.421   5.002   3.269 -0.7780 -0.7008  0.6564
 9587SOL     OW30211   1.485   9.110   6.209 -0.1572 -0.2261 -0.9239
 9587SOL    HW130212   1.508   9.198   6.238 -1.3220 -0.3443  0.4973
 9587SOL    HW230213   1.413   9.122   6.148 -0.0121 -0.1648 -1.0821
 9588SOL     OW30214   0.119   3.193   5.871 -0.1608 -0.5202  0.3823
 9588SOL    HW130215   0.053   3.226   5.811  0.3557  0.4387  0.3262
 9588SOL    HW230216   0.082   3.111   5.905 -1.6550  0.2953  0.8319
 9589SOL     OW30217   8.130   4.609   8.119 -0.5068  0.8635  0.0944
 9589SOL    HW130218   8.045   4.579   8.151 -1.4768  1.5651 -1.6591
 9589SOL    HW230219   8.109   4.660   8.041  1.6229  0.1022 -1.0497
 9590SOL     OW30220   2.641   1.612   4.521 -0.5653  0.3653  0.4175
 9590SOL    HW130221   2.597   1.696   4.510 -0.1077  0.2993 -2.7918
 9590SOL    HW230222   2.733   1.631   4.504 -0.2454 -0.5865  1.0044
 9591SOL     OW30223   2.208   1.017   5.421  0.3098  0.2228 -0.1870
 9591SOL    HW130224   2.119   1.050   5.409  0.4816  0.2926 -1.4151
 9591SOL    HW230225   2.244   1.068   5.494 -0.9638 -0.4610  0.9427
 9592SOL     OW30226   2.029   4.316   2.577 -0.5824 -0.5964  0.0432
 9592SOL    HW130227   1.954   4.332   2.634  0.0140  0.6203  0.5203
 9592SOL    HW230228   2.075   4.243   2.618 -1.0445 -0.8042  0.2019
 9593SOL     OW30229   0.518   7.512   4.005 -0.4368  0.4966 -0.4610
 9593SOL    HW130230   0.480   7.430   4.036  0.5316  0.7144  1.4196
 9593SOL    HW230231   0.591   7.529   4.064  0.1536  2.0925 -1.5793
 9594SOL     OW30232   2.107   0.684   2.484  0.7213  0.4011 -0.1747
 9594SOL    HW130233   2.185   0.677   2.429  1.1945  0.9214  0.4114
 9594SOL    HW230234   2.116   0.613   2.547  1.0292  0.7970  0.2459
 9595SOL     OW30235   4.830   0.260   0.380 -0.0625 -0.1001  0.5979
 9595SOL    HW130236   4.759   0.197   0.397  0.1539 -0.3789  0.4620
 9595SOL    HW230237   4.856   0.289   0.467 -0.4752  0.1507  0.6425
 9596SOL     OW30238   5.464   7.631   8.494  0.3506 -0.4715  0.8515
 9596SOL    HW130239   5.518   7.696   8.449 -0.9527  1.0433  1.3410
 9596SOL    HW230240   5.440   7.568   8.427  0.5088  0.3502  0.0083
 9597SOL     OW30241   0.902   6.017   3.334 -0.6947  0.3003  0.2534
 9597SOL    HW130242   0.968   5.971   3.282 -1.6716  0.1112 -0.8898
 9597SOL    HW230243   0.879   5.955   3.403 -1.4999 -0.7104 -0.8607
 9598SOL     OW30244   0.982   1.352   0.221 -0.2718  0.0869  0.1704
 9598SOL    HW130245   1.065   1.373   0.180  0.2272  0.2145  1.1961
 9598SOL    HW230246   0.916   1.392   0.166  0.5147  2.5636  0.9040
 9599SOL     OW30247   1.307   2.150   8.984 -0.6042  0.7919 -0.3978
 9599SOL    HW130248   1.254   2.230   8.989 -0.4541  0.9661 -1.3669
 9599SOL    HW230249   1.346   2.142   9.071 -0.8409  1.6191 -0.2000
 9600SOL     OW30250   3.611   4.040   0.269  0.1351 -0.5373 -0.1686
 9600SOL    HW130251   3.651   4.067   0.352 -0.1938 -0.0059 -0.1799
 9600SOL    HW230252   3.520   4.023   0.291 -0.4871  1.6440 -0.7974
 9601SOL     OW30253   0.108   2.800   3.883  0.1866 -0.0194 -0.1525
 9601SOL    HW130254   0.111   2.869   3.817  4.2946  1.7681  1.5878
 9601SOL    HW230255   0.198   2.770   3.891 -0.6154 -2.0958  2.7113
 9602SOL     OW30256   4.739   3.703   8.741 -0.0065 -0.1302  0.7485
 9602SOL    HW130257   4.780   3.781   8.705 -1.1665 -0.0507 -0.5020
 9602SOL    HW230258   4.647   3.729   8.754  0.0285 -0.6680  2.2828
 9603SOL     OW30259   3.834   5.114   8.745 -0.1045  0.1553  0.0367
 9603SOL    HW130260   3.786   5.196   8.748 -0.8223 -0.2773  0.9750
 9603SOL    HW230261   3.775   5.052   8.703 -0.4335 -0.3905  1.2436
 9604SOL     OW30262   0.544   9.231   1.645  0.0046  0.0892  0.1199
 9604SOL    HW130263   0.581   9.144   1.661  0.9002 -0.1993 -2.7755
 9604SOL    HW230264   0.457   9.213   1.611 -0.3132  0.4174  0.7505
 9605SOL     OW30265   0.613   1.218   9.218  0.6639  0.2034 -0.0020
 9605SOL    HW130266   0.657   1.134   9.229  1.1527  0.3887 -0.5159
 9605SOL    HW230267   0.589   1.245   9.307  2.8829  0.7950  0.4636
 9606SOL     OW30268   6.081   2.879   5.127  0.2692 -0.2053  0.6657
 9606SOL    HW130269   6.011   2.897   5.064  1.9829 -0.1001 -1.3314
 9606SOL    HW230270   6.085   2.783   5.130  1.9539 -0.2947 -1.6344
 9607SOL     OW30271   9.003   1.113   0.619  0.1138 -0.1519  0.4198
 9607SOL    HW130272   8.930   1.079   0.672 -0.1767  0.0135  0.1337
 9607SOL    HW230273   8.981   1.205   0.605  0.9691  0.2006  1.3091
 9608SOL     OW30274   2.832   8.223   6.547 -0.4616 -0.4521 -0.1636
 9608SOL    HW130275   2.914   8.218   6.597 -0.9193 -0.5274  0.5920
 9608SOL    HW230276   2.768   8.255   6.610 -1.0011 -0.3219 -0.7743
 9609SOL     OW30277   0.941   8.801   7.408 -0.1250  0.2732  0.3519
 9609SOL    HW130278   0.985   8.885   7.396 -0.5153  0.1381 -3.1124
 9609SOL    HW230279   1.002   8.736   7.372 -1.3636 -0.4224 -0.5764
 9610SOL     OW30280   8.040   4.924   3.180  0.2989 -0.5022 -0.1531
 9610SOL    HW130281   8.119   4.949   3.229  0.2951 -0.0626 -0.3642
 9610SOL    HW230282   8.037   4.984   3.106  0.3651 -1.2448 -0.7682
 9611SOL     OW30283   4.752   5.635   7.828 -0.0017 -0.2293  0.2026
 9611SOL    HW130284   4.663   5.606   7.806 -0.0208  0.1217 -0.1966
 9611SOL    HW230285   4.741   5.691   7.905 -0.2650  0.6643 -0.4628
 9612SOL     OW30286   2.679   7.699   9.255 -0.5772 -0.3144  0.0522
 9612SOL    HW130287   2.649   7.755   9.326 -0.1643  0.2090 -0.1882
 9612SOL    HW230288   2.746   7.750   9.210 -2.4367  0.3608 -2.1570
 9613SOL     OW30289   3.658   7.618   0.620  0.1461 -0.6880 -0.1066
 9613SOL    HW130290   3.570   7.600   0.587 -0.6199  0.2638  1.3156
 9613SOL    HW230291   3.648   7.620   0.715  0.8979  2.8878  0.0603
 9614SOL     OW30292   6.444   6.246   4.510  0.6360  0.1244  0.1161
 9614SOL    HW130293   6.405   6.198   4.582 -0.3436 -0.0251 -0.4984
 9614SOL    HW230294   6.488   6.179   4.457 -0.0357 -0.0064 -0.2957
 9615SOL     OW30295   5.198   6.201   7.221 -0.3639 -0.0493  0.0417
 9615SOL    HW130296   5.197   6.176   7.313 -0.8319 -0.3838 -0.0510
 9615SOL    HW230297   5.108   6.230   7.203 -0.7252 -1.5627 -0.7298
 9616SOL     OW30298   0.518   0.326   6.490 -0.3092  0.4125 -0.2752
 9616SOL    HW130299   0.515   0.321   6.585 -0.8741  1.3568 -0.2294
 9616SOL    HW230300   0.457   0.257   6.461 -0.9436  0.8129  0.0744
 9617SOL     OW30301   1.251   6.337   1.260 -0.9207 -0.2862 -0.1723
 9617SOL    HW130302   1.174   6.316   1.207 -1.0760 -0.6050  0.1758
 9617SOL    HW230303   1.257   6.266   1.323  1.1049 -1.6468 -1.7490
 9618SOL     OW30304   8.556   7.492   7.158 -0.1870 -0.2532 -0.1133
 9618SOL    HW130305   8.576   7.555   7.227  0.4641 -2.6447  2.0485
 9618SOL    HW230306   8.637   7.482   7.109 -0.2231  0.3682 -0.3086
 9619SOL     OW30307   7.424   4.303   0.203  0.3368 -0.0438 -0.4818
 9619SOL    HW130308   7.366   4.243   0.154 -1.5851  1.5310 -0.2635
 9619SOL    HW230309   7.510   4.291   0.162 -0.1744 -2.1959 -1.0952
 9620SOL     OW30310   5.681   0.917   8.772  0.1082 -0.4930 -0.0060
 9620SOL    HW130311   5.712   0.933   8.683  0.5800  0.7677  0.3624
 9620SOL    HW230312   5.601   0.970   8.779  0.8567  0.5891  0.7526
 9621SOL     OW30313   6.241   2.172   4.836  0.0913  0.0753 -0.3202
 9621SOL    HW130314   6.224   2.229   4.761  1.4940  1.0670  0.0715
 9621SOL    HW230315   6.311   2.114   4.807  0.1260 -0.0381 -0.0153
 9622SOL     OW30316   7.086   6.302   5.568 -0.1583 -0.0402  0.1230
 9622SOL    HW130317   7.033   6.296   5.489  0.6059 -1.3894 -0.3197
 9622SOL    HW230318   7.175   6.283   5.538  0.1755 -0.3581  1.2712
 9623SOL     OW30319   3.766   0.692   2.684  0.4422  0.6154  0.4060
 9623SOL    HW130320   3.702   0.625   2.662 -0.2148  1.6147 -0.8158
 9623SOL    HW230321   3.845   0.642   2.708  0.3538 -0.6016 -1.6092
 9624SOL     OW30322   3.558   5.884   6.120  0.0169 -0.1301  0.3971
 9624SOL    HW130323   3.512   5.921   6.045 -0.2053 -1.4655 -0.1559
 9624SOL    HW230324   3.615   5.954   6.150 -0.1482  0.5480 -0.8105
 9625SOL     OW30325   8.957   0.413   8.993  0.2028 -0.0481  0.4379
 9625SOL    HW130326   9.018   0.432   8.922  0.5851  2.3271  1.3223
 9625SOL    HW230327   9.002   0.442   9.072 -0.6906 -1.5398  1.5534
 9626SOL     OW30328   1.926   4.741   0.121 -0.2603 -0.1735  0.6010
 9626SOL    HW130329   1.876   4.687   0.182 -0.5880  1.1320  1.5248
 9626SOL    HW230330   1.879   4.735   0.038  0.5404 -2.4854  0.2423
 9627SOL     OW30331   8.668   4.252   7.475  0.6112 -0.6305 -0.0868
 9627SOL    HW130332   8.673   4.176   7.534 -0.7224 -0.9392 -0.3321
 9627SOL    HW230333   8.621   4.318   7.526  0.2668 -0.5800 -0.4579
 9628SOL     OW30334   2.365   3.665   5.716  0.1425  0.4729  0.5884
 9628SOL    HW130335   2.364   3.577   5.678  1.0025  0.0962  1.4074
 9628SOL    HW230336   2.441   3.707   5.675  2.4044 -0.6289  3.2799
 9629SOL     OW30337   1.385   1.613   2.884  0.1756 -0.0724 -0.5640
 9629SOL    HW130338   1.457   1.552   2.900  0.2234 -0.1585 -1.0875
 9629SOL    HW230339   1.312   1.577   2.935  0.1698 -0.6362 -0.9572
 9630SOL     OW30340   3.692   6.865   6.181  0.3895  0.1781  0.8229
 9630SOL    HW130341   3.650   6.870   6.095  1.7566 -0.7560  0.0631
 9630SOL    HW230342   3.652   6.789   6.223  0.7359 -0.2313  0.4208
 9631SOL     OW30343   4.297   6.207   0.857  0.0837 -0.4171 -0.4094
 9631SOL    HW130344   4.323   6.299   0.854  1.3636 -0.4071  3.7402
 9631SOL    HW230345   4.306   6.176   0.768  2.4753  2.7537 -1.4523
 9632SOL     OW30346   0.262   3.682   3.194  0.6150  0.0804 -0.5451
 9632SOL    HW130347   0.273   3.748   3.262  1.3095 -0.8479  0.2854
 9632SOL    HW230348   0.243   3.732   3.114 -0.7122  1.1673  0.4124
 9633SOL     OW30349   1.170   2.999   7.926 -0.3230 -0.6743 -0.2814
 9633SOL    HW130350   1.260   2.979   7.950 -1.0341 -1.6152  1.8578
 9633SOL    HW230351   1.161   3.093   7.940  0.5501 -0.3940 -1.4546
 9634SOL     OW30352   8.046   1.738   8.427  0.7148 -0.4529 -0.4979
 9634SOL    HW130353   8.072   1.648   8.405 -0.0555 -0.8004 -0.0210
 9634SOL    HW230354   8.108   1.793   8.379  0.6099 -1.2257 -1.5456
 9635SOL     OW30355   2.261   8.841   8.876  0.5797 -0.0425  0.1222
 9635SOL    HW130356   2.186   8.797   8.835 -0.8521  0.7770  1.7376
 9635SOL    HW230357   2.262   8.809   8.966  2.4077 -0.2682  0.0547
 9636SOL     OW30358   0.452   8.878   5.041 -0.1433 -0.5240  0.5186
 9636SOL    HW130359   0.396   8.940   4.995 -0.0500 -1.7862 -1.4108
 9636SOL    HW230360   0.460   8.803   4.982  1.4084 -1.5294  1.8774
 9637SOL     OW30361   4.073   3.319   9.083 -0.2501  0.0042 -0.4878
 9637SOL    HW130362   4.072   3.226   9.106  2.6727 -0.4535 -1.7676
 9637SOL    HW230363   4.069   3.365   9.166 -1.2224 -1.2626  0.2001
 9638SOL     OW30364   4.648   0.109   3.585  0.0572  0.0613  0.6208
 9638SOL    HW130365   4.626   0.069   3.501  0.3704 -1.6427  1.3172
 9638SOL    HW230366   4.596   0.190   3.587 -0.0945  0.0389 -1.1099
 9639SOL     OW30367   7.407   0.856   6.882 -0.2572 -0.1391 -0.2548
 9639SOL    HW130368   7.345   0.872   6.954 -0.8954 -0.8137 -0.6361
 9639SOL    HW230369   7.351   0.840   6.806  0.4034  1.6775 -1.1890
 9640SOL     OW30370   8.395   0.336   3.548  0.1730 -0.5095  0.0554
 9640SOL    HW130371   8.413   0.246   3.521 -0.5182 -0.3451 -1.0329
 9640SOL    HW230372   8.458   0.389   3.499 -0.2691 -0.3019 -0.2942
 9641SOL     OW30373   1.966   7.541   9.134 -0.4436  0.5054 -0.0824
 9641SOL    HW130374   1.908   7.604   9.091  1.5337  3.7863  1.6403
 9641SOL    HW230375   1.913   7.506   9.206 -1.0988  1.4178 -0.1025
 9642SOL     OW30376   6.456   7.672   8.025 -0.4501  0.2884  0.1711
 9642SOL    HW130377   6.527   7.632   8.075  1.4297  2.1088 -0.8721
 9642SOL    HW230378   6.448   7.620   7.946  0.6404  0.7965 -0.2895
 9643SOL     OW30379   7.207   8.594   1.857  0.1133  0.1655  0.2470
 9643SOL    HW130380   7.147   8.534   1.900  1.0613 -0.5646  0.5907
 9643SOL    HW230381   7.270   8.618   1.924  0.1108  1.0696 -0.0549
 9644SOL     OW30382   1.704   9.022   5.826 -0.2377  0.2387 -0.3322
 9644SOL    HW130383   1.747   9.094   5.872 -1.3191  0.4279  0.4115
 9644SOL    HW230384   1.688   8.957   5.894  0.6904 -0.7045 -0.9889
 9645SOL     OW30385   3.920   4.404   2.500  0.5156  0.0048 -0.3192
 9645SOL    HW130386   3.951   4.370   2.583  0.1121 -1.5654 -0.7751
 9645SOL    HW230387   3.829   4.373   2.494 -0.2713  2.1160 -0.2847
 9646SOL     OW30388   2.981   6.236   8.456 -0.0920  0.3216  0.6465
 9646SOL    HW130389   3.008   6.328   8.448 -1.7649  0.7180 -1.1223
 9646SOL    HW230390   3.018   6.194   8.378 -1.3508  0.0535  0.1798
 9647SOL     OW30391   4.705   5.747   3.963 -0.1689  0.2104 -0.7240
 9647SOL    HW130392   4.615   5.727   3.939 -0.5681 -2.7266  2.3920
 9647SOL    HW230393   4.756   5.727   3.885 -1.9315 -1.2872 -1.5666
 9648SOL     OW30394   7.546   1.573   2.330  0.3296 -1.1459  0.2825
 9648SOL    HW130395   7.506   1.604   2.248 -1.0641 -1.7874  0.6943
 9648SOL    HW230396   7.633   1.613   2.330 -0.7554  1.4232 -0.0099
 9649SOL     OW30397   5.733   6.219   6.967 -0.1970  0.1855  0.0467
 9649SOL    HW130398   5.748   6.126   6.983  0.2370  0.3998  0.9632
 9649SOL    HW230399   5.680   6.222   6.887  2.7858 -0.7049 -2.1541
 9650SOL     OW30400   1.856   5.373   1.484 -0.3564  0.7063 -0.4016
 9650SOL    HW130401   1.798   5.355   1.410  1.5000  0.5869 -1.9143
 9650SOL    HW230402   1.875   5.467   1.478 -1.6024  1.0755  1.0392
 9651SOL     OW30403   9.172   3.765   0.156 -0.4088  0.1477  0.5748
 9651SOL    HW130404   9.098   3.807   0.200 -0.2788  0.1156  0.8276
 9651SOL    HW230405   9.178   3.810   0.072  0.3169  1.2891  1.2157
 9652SOL     OW30406   9.052   1.306   8.077  0.1550 -0.2082 -0.5049
 9652SOL    HW130407   9.042   1.222   8.031  1.0068 -0.3641 -0.4251
 9652SOL    HW230408   9.125   1.292   8.137 -2.8272 -1.0330  3.3041
 9653SOL     OW30409   5.666   8.971   7.797  0.5330 -0.3588  0.3757
 9653SOL    HW130410   5.676   9.065   7.781 -1.4297 -0.2705 -0.5765
 9653SOL    HW230411   5.726   8.930   7.734  0.9292  0.2373  0.3579
 9654SOL     OW30412   8.706   3.111   4.178  0.4599  0.6525  0.3105
 9654SOL    HW130413   8.786   3.060   4.175  0.0369  0.0196 -1.0197
 9654SOL    HW230414   8.660   3.080   4.257  0.8234 -0.0540  0.2476
 9655SOL     OW30415   1.925   2.933   8.374  0.1465 -0.0056  0.0166
 9655SOL    HW130416   1.977   3.012   8.386 -0.1227  0.1665  0.0589
 9655SOL    HW230417   1.846   2.948   8.426  0.1865 -0.3894  0.1963
 9656SOL     OW30418   5.521   3.408   0.914  0.1332  0.4498 -0.1094
 9656SOL    HW130419   5.503   3.314   0.919  0.9769  0.2696 -0.2253
 9656SOL    HW230420   5.455   3.442   0.854  1.0828 -0.4360 -1.7277
 9657SOL     OW30421   4.404   3.143   0.898 -0.1260  0.1433 -0.0557
 9657SOL    HW130422   4.396   3.214   0.961 -2.5166 -0.7379  0.7505
 9657SOL    HW230423   4.377   3.065   0.946  0.0837 -0.9108 -1.5807
 9658SOL     OW30424   4.225   2.739   0.841 -0.7536  0.2606  0.2190
 9658SOL    HW130425   4.178   2.802   0.895  0.2528  0.6470  0.6591
 9658SOL    HW230426   4.155   2.690   0.796 -1.5587  1.2099  0.3934
 9659SOL     OW30427   0.737   5.572   2.092 -0.5601 -0.3163 -0.1290
 9659SOL    HW130428   0.698   5.485   2.096 -0.9081 -0.1735 -0.4160
 9659SOL    HW230429   0.705   5.610   2.010 -1.2377  0.4711  0.4816
 9660SOL     OW30430   6.987   1.231   4.830 -1.1890  0.2692  0.0478
 9660SOL    HW130431   7.026   1.317   4.814 -0.4168 -0.1228 -0.2273
 9660SOL    HW230432   6.897   1.238   4.798 -1.3508  1.1874  0.6776
 9661SOL     OW30433   1.587   1.393   6.156  0.6719  0.7306  0.3540
 9661SOL    HW130434   1.501   1.365   6.187 -0.9509  1.7176 -2.8410
 9661SOL    HW230435   1.595   1.483   6.188  0.8488  0.4301  1.1898
 9662SOL     OW30436   6.917   6.320   1.870  0.8864  0.6325  0.2159
 9662SOL    HW130437   6.883   6.407   1.852 -3.7387 -0.9072  0.1720
 9662SOL    HW230438   6.928   6.280   1.783  0.5071  0.3575  0.2936
 9663SOL     OW30439   3.922   0.861   6.365 -0.0115  0.6086 -0.3983
 9663SOL    HW130440   3.866   0.787   6.387 -1.2424  0.7467 -2.8385
 9663SOL    HW230441   4.007   0.838   6.404 -0.1858 -2.3692 -1.5239
 9664SOL     OW30442   6.722   7.003   4.492  0.2214 -0.7025 -0.3587
 9664SOL    HW130443   6.754   7.052   4.417 -1.9628  0.9638 -0.2787
 9664SOL    HW230444   6.639   6.966   4.463 -0.0032 -1.1597  0.8264
 9665SOL     OW30445   8.427   0.321   7.750  0.2606  0.0764 -0.5990
 9665SOL    HW130446   8.441   0.400   7.697  0.6725  0.0384 -0.5519
 9665SOL    HW230447   8.393   0.256   7.688 -2.3611  0.9511 -0.2098
 9666SOL     OW30448   6.387   1.071   8.601 -0.0740  0.8823  0.1815
 9666SOL    HW130449   6.423   1.019   8.529  0.3736  1.3688  0.0534
 9666SOL    HW230450   6.296   1.041   8.607  0.2537 -0.1384  0.3204
 9667SOL     OW30451   5.170   0.328   5.000 -0.2160  0.0319 -0.1503
 9667SOL    HW130452   5.228   0.400   4.976  1.2286  0.1093  2.9519
 9667SOL    HW230453   5.209   0.251   4.959 -0.1339  0.6115 -1.1818
 9668SOL     OW30454   3.471   5.841   5.580 -0.2408  0.1147  0.0699
 9668SOL    HW130455   3.505   5.766   5.629  2.5206  1.3381  0.2730
 9668SOL    HW230456   3.427   5.803   5.504  1.3473 -1.7443  0.0032
 9669SOL     OW30457   2.036   0.307   0.794  0.0272  0.1362 -0.1145
 9669SOL    HW130458   1.961   0.302   0.854  0.1349 -1.2371 -0.0586
 9669SOL    HW230459   2.112   0.322   0.851 -0.0333  0.1912 -0.0483
 9670SOL     OW30460   2.495   7.084   9.033 -0.0515 -0.5478  0.6341
 9670SOL    HW130461   2.550   7.041   9.098  1.0251  0.5244  0.4635
 9670SOL    HW230462   2.528   7.053   8.949  0.3066  0.0897  0.5311
 9671SOL     OW30463   7.898   6.515   6.589 -0.3315 -0.9995 -0.4587
 9671SOL    HW130464   7.938   6.457   6.654 -2.6685 -0.3235  1.7673
 9671SOL    HW230465   7.883   6.459   6.513  0.5927 -2.3922  0.3300
 9672SOL     OW30466   2.544   3.618   4.610  0.0185  0.0323  0.1333
 9672SOL    HW130467   2.476   3.584   4.669 -0.8460  1.5290  0.0606
 9672SOL    HW230468   2.592   3.540   4.582 -1.7468 -1.1178  0.0888
 9673SOL     OW30469   8.817   1.871   9.095 -0.0970 -0.0081  0.7327
 9673SOL    HW130470   8.724   1.880   9.117  0.0566  1.2008  0.9730
 9673SOL    HW230471   8.820   1.800   9.032 -1.1835 -0.0877  0.7453
 9674SOL     OW30472   4.243   1.178   4.744 -0.0112 -0.1573 -0.1726
 9674SOL    HW130473   4.269   1.134   4.825 -1.9766 -0.2290  0.4547
 9674SOL    HW230474   4.187   1.115   4.699  0.1879  0.2966 -1.0740
 9675SOL     OW30475   3.099   5.294   7.330 -0.0774 -0.2200 -0.4435
 9675SOL    HW130476   3.026   5.325   7.276 -0.0882 -0.3030 -0.4750
 9675SOL    HW230477   3.091   5.344   7.411 -0.2995 -0.3911 -0.3610
 9676SOL     OW30478   7.491   4.860   6.479 -0.2238  0.2784  0.0628
 9676SOL    HW130479   7.408   4.819   6.506 -0.8388  1.5135  0.1156
 9676SOL    HW230480   7.540   4.870   6.560  0.4537 -1.3857 -0.0881
 9677SOL     OW30481   6.304   3.851   8.472 -0.7400  0.2359 -0.6842
 9677SOL    HW130482   6.389   3.807   8.475 -1.7066 -1.8214 -1.4101
 9677SOL    HW230483   6.259   3.820   8.551 -1.4826 -0.1701 -1.2624
 9678SOL     OW30484   1.477   6.346   1.048 -0.3017  0.2537 -0.1777
 9678SOL    HW130485   1.562   6.384   1.070 -0.3600  0.5788 -0.5256
 9678SOL    HW230486   1.426   6.355   1.129 -0.8138  2.2738 -0.6812
 9679SOL     OW30487   6.362   3.078   3.356  0.5303 -0.1311  0.1865
 9679SOL    HW130488   6.389   3.162   3.393 -0.8785 -0.4212  1.9817
 9679SOL    HW230489   6.435   3.019   3.375  1.0680  0.4139 -0.1391
 9680SOL     OW30490   4.304   6.848   2.702  0.1759  0.2976 -0.2939
 9680SOL    HW130491   4.221   6.893   2.686  0.4257  1.2317  0.8799
 9680SOL    HW230492   4.293   6.762   2.661 -0.8864  0.8703 -1.2592
 9681SOL     OW30493   2.979   5.434   5.515  0.4175 -0.5573  0.6074
 9681SOL    HW130494   3.051   5.406   5.572 -0.1525 -0.9674  1.1388
 9681SOL    HW230495   2.928   5.495   5.568  2.0504  2.2131 -0.7678
 9682SOL     OW30496   3.780   1.578   2.901  0.0267  0.0113 -0.8109
 9682SOL    HW130497   3.812   1.574   2.991 -0.9118  1.3383 -0.3863
 9682SOL    HW230498   3.860   1.584   2.847  0.5778 -0.3074 -0.0468
 9683SOL     OW30499   7.707   8.200   7.198 -0.3399 -0.2783  0.4440
 9683SOL    HW130500   7.753   8.168   7.121  0.7006  0.0910  0.8928
 9683SOL    HW230501   7.669   8.284   7.170  0.8536  0.3321  0.5932
 9684SOL     OW30502   6.449   2.136   6.265 -0.0181  0.4310 -0.6868
 9684SOL    HW130503   6.533   2.148   6.309 -0.8709 -1.3874  1.6240
 9684SOL    HW230504   6.397   2.213   6.291  0.4913  0.9332 -1.1190
 9685SOL     OW30505   1.792   1.661   2.895 -0.4506 -0.8054 -0.5684
 9685SOL    HW130506   1.778   1.661   2.801 -1.5489 -1.4687 -0.4192
 9685SOL    HW230507   1.714   1.619   2.931  0.2736 -1.1910  0.5898
 9686SOL     OW30508   7.571   7.747   1.780 -0.2300  0.4019  0.2315
 9686SOL    HW130509   7.612   7.806   1.717 -0.2412  0.9507  0.7323
 9686SOL    HW230510   7.644   7.706   1.825 -0.1113 -2.2061 -2.0787
 9687SOL     OW30511   4.319   7.484   0.330 -0.2207  0.7819 -0.5796
 9687SOL    HW130512   4.372   7.564   0.327  0.2780  0.4364 -1.6673
 9687SOL    HW230513   4.325   7.449   0.241 -0.0091 -0.7358  0.0070
 9688SOL     OW30514   0.756   1.388   4.977  0.5651 -0.2484 -0.2434
 9688SOL    HW130515   0.691   1.441   5.023 -1.0410 -2.2634 -0.0740
 9688SOL    HW230516   0.734   1.399   4.884  0.3590 -0.4418 -0.2189
 9689SOL     OW30517   6.909   4.680   2.868  0.9142 -0.3915 -0.5722
 9689SOL    HW130518   6.983   4.620   2.859  0.7755 -0.3458 -2.6000
 9689SOL    HW230519   6.850   4.655   2.797 -0.3367  0.5173  0.1172
 9690SOL     OW30520   5.814   1.222   3.469  0.7725  0.0501 -0.5370
 9690SOL    HW130521   5.890   1.196   3.419  0.5254  2.7681 -2.5825
 9690SOL    HW230522   5.757   1.265   3.405 -1.2696  0.4359  1.4147
 9691SOL     OW30523   0.030   6.596   5.070 -0.0712  0.4151  0.4570
 9691SOL    HW130524  -0.036   6.532   5.095  0.2493  0.6451  2.0056
 9691SOL    HW230525   0.092   6.596   5.143  0.9748  1.1050 -0.3905
 9692SOL     OW30526   1.715   6.650   7.543  0.1212  0.5580 -0.1004
 9692SOL    HW130527   1.726   6.596   7.621  0.3607  0.8055  0.0402
 9692SOL    HW230528   1.646   6.607   7.493  0.4545  0.0050 -0.0935
 9693SOL     OW30529   1.162   2.622   8.043  0.4702 -0.3825 -0.3439
 9693SOL    HW130530   1.126   2.690   7.985  0.3678 -1.0629 -1.0870
 9693SOL    HW230531   1.256   2.625   8.028  0.6024  0.4266  0.5465
 9694SOL     OW30532   1.836   0.051   7.924 -0.2749  0.3485 -0.4769
 9694SOL    HW130533   1.875   0.120   7.978  0.0784 -0.6132  0.5245
 9694SOL    HW230534   1.821  -0.022   7.985 -1.7688 -0.0320 -1.2639
 9695SOL     OW30535   7.391   4.522   8.882 -0.1823  0.1762  0.2361
 9695SOL    HW130536   7.404   4.461   8.955 -0.8889 -0.8387 -0.4694
 9695SOL    HW230537   7.334   4.590   8.918 -0.6611 -0.4036  0.5899
 9696SOL     OW30538   7.079   1.389   5.836 -0.0331  0.1201 -0.3809
 9696SOL    HW130539   7.169   1.416   5.816  0.0229 -0.4374 -0.9056
 9696SOL    HW230540   7.024   1.448   5.784  0.0862 -0.7121 -1.4794
 9697SOL     OW30541   5.197   4.185   2.627  0.2227 -0.0470 -0.3032
 9697SOL    HW130542   5.103   4.200   2.617  0.5171  0.4049 -3.0209
 9697SOL    HW230543   5.203   4.099   2.669 -1.4247 -0.9813 -1.8392
 9698SOL     OW30544   6.109   1.202   0.403  0.3946  0.3549  0.4463
 9698SOL    HW130545   6.112   1.145   0.326  1.2978  0.6877  0.2210
 9698SOL    HW230546   6.135   1.288   0.370 -1.4580  1.0622  0.6670
 9699SOL     OW30547   3.359   7.049   4.349 -0.3881 -0.0784  0.5621
 9699SOL    HW130548   3.271   7.045   4.386 -0.7482  0.7414 -0.1602
 9699SOL    HW230549   3.348   7.098   4.267  0.3015 -2.1235 -0.8479
 9700SOL     OW30550   6.305   1.706   3.566  0.0095 -0.4571 -0.2272
 9700SOL    HW130551   6.346   1.773   3.620  0.7671 -0.7055 -0.4818
 9700SOL    HW230552   6.211   1.718   3.580  0.1238  0.7961 -0.4486
 9701SOL     OW30553   2.817   1.918   0.180 -0.3604  0.3234  0.5076
 9701SOL    HW130554   2.759   1.984   0.218 -0.5423  1.3292 -1.4049
 9701SOL    HW230555   2.872   1.967   0.118  1.5008 -0.8641  1.1331
 9702SOL     OW30556   8.213   2.017   2.083 -0.1473  0.5303  0.0039
 9702SOL    HW130557   8.244   2.106   2.067 -0.7802  0.6262 -0.7537
 9702SOL    HW230558   8.119   2.021   2.067 -0.3444 -0.0653  0.9227
 9703SOL     OW30559   5.386   7.866   2.761  0.3642 -0.0139 -0.5736
 9703SOL    HW130560   5.442   7.800   2.801  0.9243  1.1956  0.7288
 9703SOL    HW230561   5.432   7.949   2.777 -0.3525  0.7158 -2.0772
 9704SOL     OW30562   6.407   7.465   8.896  0.7150 -0.4415 -0.5135
 9704SOL    HW130563   6.451   7.381   8.906  1.3372  0.0259  0.8828
 9704SOL    HW230564   6.478   7.527   8.878  0.1610 -0.3437 -2.6676
 9705SOL     OW30565   1.374   4.904   4.113 -0.3423 -0.0522  0.0423
 9705SOL    HW130566   1.343   4.915   4.203  0.5648  2.3686  0.1278
 9705SOL    HW230567   1.294   4.903   4.060 -0.8148  2.4991  0.5681
 9706SOL     OW30568   8.729   7.850   5.727 -0.6202 -0.3153 -0.1746
 9706SOL    HW130569   8.709   7.806   5.810 -0.6337  0.0164  0.0005
 9706SOL    HW230570   8.820   7.878   5.736 -1.2082  1.4939  0.5484
 9707SOL     OW30571   5.533   0.152   8.500  0.1080 -0.4793 -0.4586
 9707SOL    HW130572   5.592   0.090   8.457  0.6250  0.2830 -0.8722
 9707SOL    HW230573   5.447   0.132   8.464  0.5612  0.3201 -2.1012
 9708SOL     OW30574   0.431   1.880   6.132  0.0201 -0.3204 -0.1131
 9708SOL    HW130575   0.403   1.961   6.174 -2.7637  0.0881 -2.3913
 9708SOL    HW230576   0.359   1.819   6.149  0.8239 -1.4541 -0.6817
 9709SOL     OW30577   3.576   6.566   8.153 -0.0613  0.3498  0.2230
 9709SOL    HW130578   3.573   6.487   8.207  3.3790 -0.4833 -0.5270
 9709SOL    HW230579   3.485   6.595   8.146 -2.2140 -5.4375 -2.2467
 9710SOL     OW30580   5.634   2.934   5.431 -0.3419  0.5448  0.3207
 9710SOL    HW130581   5.545   2.970   5.421 -0.8136 -0.4119  0.9519
 9710SOL    HW230582   5.626   2.843   5.404 -0.2554 -0.3850  3.1467
 9711SOL     OW30583   8.306   1.168   0.438  0.1898  0.3498  0.2954
 9711SOL    HW130584   8.335   1.254   0.408  0.3303  0.1422 -0.1689
 9711SOL    HW230585   8.214   1.180   0.460  0.3023  0.7079  0.5875
 9712SOL     OW30586   6.919   0.006   2.961 -0.1926  0.0528 -0.0977
 9712SOL    HW130587   6.845   0.064   2.944  0.0472 -0.0692 -1.7190
 9712SOL    HW230588   6.883  -0.082   2.951 -0.0509 -0.0373  0.1567
 9713SOL     OW30589   8.569   9.129   4.096 -0.2117  0.1285 -0.3440
 9713SOL    HW130590   8.506   9.156   4.029 -1.1673  0.0364  0.4905
 9713SOL    HW230591   8.582   9.036   4.082 -1.9985 -0.3547  0.8189
 9714SOL     OW30592   3.556   2.272   7.426  0.1705 -0.5350 -0.1232
 9714SOL    HW130593   3.565   2.179   7.444  0.2653 -0.4302  0.3816
 9714SOL    HW230594   3.575   2.281   7.332  0.6426 -0.9495 -0.0670
 9715SOL     OW30595   0.711   3.980   6.819 -0.2510 -0.6334  0.4344
 9715SOL    HW130596   0.764   4.059   6.831 -2.3265  0.7764  0.8003
 9715SOL    HW230597   0.760   3.912   6.866  0.4927  0.9403  2.1000
 9716SOL     OW30598   0.241   8.710   5.294 -0.3157  0.0766  0.0542
 9716SOL    HW130599   0.157   8.746   5.268  0.2720  0.8355 -0.8677
 9716SOL    HW230600   0.305   8.776   5.267  0.6119 -0.6873  0.3148
 9717SOL     OW30601   3.499   0.837   6.543 -0.6687 -0.1477  0.1973
 9717SOL    HW130602   3.409   0.828   6.576 -1.2334  0.7233 -1.0367
 9717SOL    HW230603   3.508   0.929   6.523  0.7481 -0.1163  0.8856
 9718SOL     OW30604   4.624   2.348   3.711 -0.1999  0.8425  0.4381
 9718SOL    HW130605   4.654   2.343   3.802  0.1064 -0.1290  0.3005
 9718SOL    HW230606   4.704   2.356   3.660 -0.1124 -1.5556  0.0816
 9719SOL     OW30607   3.760   5.111   8.013 -0.4855  0.2438 -0.3321
 9719SOL    HW130608   3.846   5.153   8.007  0.4013 -1.2041  1.0869
 9719SOL    HW230609   3.702   5.164   7.959  1.2507  1.4143 -1.1102
 9720SOL     OW30610   6.338   2.837   8.504  0.5034 -0.3374 -0.0149
 9720SOL    HW130611   6.281   2.912   8.492 -0.4199 -1.2430 -1.5128
 9720SOL    HW230612   6.422   2.875   8.532 -0.1509  1.1732 -0.0201
 9721SOL     OW30613   3.694   8.989   7.034  0.0877  0.2614  0.4072
 9721SOL    HW130614   3.711   8.906   7.079  1.2229  0.6952  0.8255
 9721SOL    HW230615   3.645   9.041   7.097 -0.1608  0.1099  0.3419
 9722SOL     OW30616   6.144   4.381   4.088  0.3270 -1.1028  0.3478
 9722SOL    HW130617   6.183   4.294   4.098  0.2365 -1.1275  0.4945
 9722SOL    HW230618   6.069   4.380   4.147  0.3634 -0.9025  0.3965
 9723SOL     OW30619   2.353   6.392   5.852  0.3575 -0.5246  0.2702
 9723SOL    HW130620   2.414   6.389   5.778  0.8791  0.8911  0.5978
 9723SOL    HW230621   2.363   6.308   5.896  0.8363 -0.9564 -0.6532
 9724SOL     OW30622   3.875   3.161   3.782  0.4170  0.4141 -0.6662
 9724SOL    HW130623   3.966   3.166   3.814  0.4216 -1.4414 -0.2397
 9724SOL    HW230624   3.823   3.201   3.851  0.7622 -0.2911  0.0274
 9725SOL     OW30625   6.892   9.280   8.608 -0.5117 -0.1576  0.0027
 9725SOL    HW130626   6.826   9.327   8.658 -1.5205  0.5877 -1.9214
 9725SOL    HW230627   6.960   9.346   8.590 -0.6316 -0.1481 -0.4286
 9726SOL     OW30628   7.056   7.845   3.228  0.1256  0.0136 -0.4203
 9726SOL    HW130629   7.053   7.787   3.304 -0.3448  0.0777 -0.3862
 9726SOL    HW230630   7.119   7.913   3.252  0.8112 -0.5653 -0.5255
 9727SOL     OW30631   5.362   8.031   4.147  0.5233 -0.0940 -0.2001
 9727SOL    HW130632   5.390   7.963   4.086  1.0253 -1.4332  1.4504
 9727SOL    HW230633   5.266   8.032   4.140  0.5474 -0.5846 -0.6552
 9728SOL     OW30634   6.740   4.641   8.029 -0.5985  0.0565  0.4086
 9728SOL    HW130635   6.712   4.726   8.061  0.8128 -0.2514  2.6413
 9728SOL    HW230636   6.698   4.578   8.087  0.0673 -0.6685  0.1246
 9729SOL     OW30637   7.820   5.162   3.785 -0.4669 -0.1679  0.1789
 9729SOL    HW130638   7.821   5.073   3.820  0.3624 -0.2452 -0.0234
 9729SOL    HW230639   7.867   5.214   3.851  0.4228 -0.1742 -0.4286
 9730SOL     OW30640   5.148   0.907   8.678 -0.4940  0.1573  0.0398
 9730SOL    HW130641   5.208   0.834   8.664  1.9848  1.9952  0.3685
 9730SOL    HW230642   5.125   0.901   8.771  0.4441  0.2726  0.2945
 9731SOL     OW30643   1.857   4.031   3.562  0.5103  0.1624  0.0298
 9731SOL    HW130644   1.876   3.979   3.641 -0.3907 -0.1852  0.0333
 9731SOL    HW230645   1.943   4.053   3.526  0.9180 -0.5728  0.5300
 9732SOL     OW30646   6.655   7.376   2.997  0.0912 -0.1662  0.1038
 9732SOL    HW130647   6.608   7.314   3.052  1.2672 -0.0688  1.2839
 9732SOL    HW230648   6.636   7.462   3.034  1.3022 -0.1413  0.7066
 9733SOL     OW30649   3.269   4.197   4.921  0.2723 -0.8139  0.3161
 9733SOL    HW130650   3.269   4.266   4.854 -0.4797  0.6539  1.7724
 9733SOL    HW230651   3.224   4.123   4.880  1.0174 -0.4406 -1.2462
 9734SOL     OW30652   7.239   5.149   6.601  0.4200 -0.2264  0.2405
 9734SOL    HW130653   7.254   5.057   6.625 -0.0318 -0.2103  0.5928
 9734SOL    HW230654   7.230   5.147   6.505  0.8790 -0.4805  0.1988
 9735SOL     OW30655   2.826   3.832   3.192  0.1791 -0.1820 -1.1079
 9735SOL    HW130656   2.857   3.745   3.216 -2.0201 -0.9834 -0.9205
 9735SOL    HW230657   2.763   3.854   3.261  0.4137  1.4070 -1.3701
 9736SOL     OW30658   7.646   2.613   2.704 -0.5037 -0.0343  0.2053
 9736SOL    HW130659   7.578   2.548   2.719  0.9415 -1.6429  0.0926
 9736SOL    HW230660   7.708   2.570   2.645  1.6167  0.6009  1.8402
 9737SOL     OW30661   1.014   3.331   2.418  0.1520  0.2310  0.1958
 9737SOL    HW130662   0.942   3.269   2.418  1.3747 -1.2608  0.1783
 9737SOL    HW230663   0.992   3.393   2.487 -0.5568 -0.9289  1.0615
 9738SOL     OW30664   6.900   3.013   1.720  0.2126 -0.3385 -0.1881
 9738SOL    HW130665   6.817   3.055   1.695 -1.3465 -3.3774 -0.5437
 9738SOL    HW230666   6.956   3.026   1.643  0.2810  2.0349  0.1723
 9739SOL     OW30667   1.422   3.600   8.289  0.3190 -0.3182 -0.3561
 9739SOL    HW130668   1.416   3.633   8.199 -1.0134  0.5269  0.0217
 9739SOL    HW230669   1.510   3.627   8.318  0.7459 -0.5721 -1.3838
 9740SOL     OW30670   6.307   8.033   6.438 -0.1048 -0.1447 -0.3712
 9740SOL    HW130671   6.229   8.054   6.489 -0.9187  2.5128 -2.4425
 9740SOL    HW230672   6.276   7.974   6.369  0.0976 -0.4982 -0.1598
 9741SOL     OW30673   6.075   1.070   4.378 -0.1551 -0.2580  0.5246
 9741SOL    HW130674   6.059   1.057   4.285  1.7317 -0.5948  0.2116
 9741SOL    HW230675   6.077   0.981   4.414 -0.2164 -0.1608  0.7720
 9742SOL     OW30676   2.103   9.118   8.835 -0.8482  0.1942  0.9318
 9742SOL    HW130677   2.080   9.050   8.772  0.2241 -0.3775  1.1345
 9742SOL    HW230678   2.146   9.186   8.783 -1.2131  0.3624  0.8476
 9743SOL     OW30679   2.519   9.028   5.685  0.1999 -0.3740  0.0984
 9743SOL    HW130680   2.468   9.105   5.711  0.4389  0.5778 -2.0416
 9743SOL    HW230681   2.464   8.953   5.707  0.4998  0.2282  3.4807
 9744SOL     OW30682   0.761   1.619   6.534 -0.0293 -0.0207 -0.1757
 9744SOL    HW130683   0.724   1.592   6.618 -2.7402 -0.9946 -1.5645
 9744SOL    HW230684   0.760   1.714   6.536 -1.1180 -0.0318  0.5114
 9745SOL     OW30685   6.167   2.579   5.014 -0.3500  0.0805 -0.2576
 9745SOL    HW130686   6.183   2.569   5.108  0.6471  0.1688 -0.4118
 9745SOL    HW230687   6.243   2.539   4.972 -1.1601 -0.6741 -1.0573
 9746SOL     OW30688   3.118   7.439   4.246  0.2503 -0.5120 -0.3551
 9746SOL    HW130689   3.105   7.484   4.162  0.0777  0.8681  0.3694
 9746SOL    HW230690   3.030   7.424   4.279  0.3124 -1.2485 -0.5016
 9747SOL     OW30691   7.580   0.080   1.212  0.5333 -0.0981 -0.1359
 9747SOL    HW130692   7.568   0.052   1.122  1.4817  0.5547 -0.4800
 9747SOL    HW230693   7.574   0.175   1.209 -0.4329 -0.1156  0.6600
 9748SOL     OW30694   0.199   7.986   4.272  0.0629  0.8717 -0.1452
 9748SOL    HW130695   0.121   7.961   4.322 -0.0670 -0.9882 -1.1872
 9748SOL    HW230696   0.170   7.984   4.181  0.9692  1.6225 -0.4647
 9749SOL     OW30697   5.042   7.391   3.168 -0.4622  0.2255  0.0424
 9749SOL    HW130698   5.053   7.407   3.074 -4.7400  0.8659 -0.5296
 9749SOL    HW230699   5.048   7.296   3.177 -1.4650  0.0168 -1.1977
 9750SOL     OW30700   3.120   4.933   1.395  0.3485 -0.2433  0.2935
 9750SOL    HW130701   3.102   4.902   1.306  2.7336 -0.2376 -0.2518
 9750SOL    HW230702   3.054   5.001   1.410  0.8663  0.9232 -2.1511
 9751SOL     OW30703   6.814   2.135   9.016  0.2341 -0.1372 -0.2680
 9751SOL    HW130704   6.789   2.143   9.107 -1.7763 -0.0317 -0.7892
 9751SOL    HW230705   6.796   2.221   8.978 -1.4236 -0.8701 -1.2820
 9752SOL     OW30706   8.544   4.105   8.007  0.0744 -0.0924 -0.3440
 9752SOL    HW130707   8.627   4.058   8.016 -0.1698 -0.4637 -0.0463
 9752SOL    HW230708   8.567   4.196   8.025  0.4066 -0.2032 -0.2005
 9753SOL     OW30709   4.178   8.729   1.298 -0.3458  0.0769  0.0002
 9753SOL    HW130710   4.210   8.811   1.336  0.1463 -0.1904  0.1797
 9753SOL    HW230711   4.137   8.683   1.371  1.4631 -0.8728  0.4933
 9754SOL     OW30712   5.154   7.356   6.979 -0.2604  0.4555 -0.0480
 9754SOL    HW130713   5.192   7.418   7.042  0.5168 -1.1221  1.1078
 9754SOL    HW230714   5.081   7.317   7.026  0.4755 -0.9174 -0.0049
 9755SOL     OW30715   5.064   6.316   8.894 -0.2190  0.0730 -0.2960
 9755SOL    HW130716   5.040   6.269   8.814  0.1843  1.0094 -0.9914
 9755SOL    HW230717   4.983   6.357   8.924 -0.6355 -1.2534  0.4730
 9756SOL     OW30718   8.552   5.591   6.160 -0.6090 -0.0937 -0.0663
 9756SOL    HW130719   8.502   5.536   6.100  0.9610 -0.4414 -1.1193
 9756SOL    HW230720   8.546   5.679   6.122 -0.2789 -0.1694 -0.2974
 9757SOL     OW30721   8.400   0.329   6.496 -0.1185  0.1052 -0.0268
 9757SOL    HW130722   8.391   0.282   6.414  1.1687 -0.4529  0.1184
 9757SOL    HW230723   8.403   0.422   6.471 -0.5395 -0.0132 -0.5194
 9758SOL     OW30724   7.513   1.690   4.043  0.1124  0.4667  0.1181
 9758SOL    HW130725   7.424   1.669   4.070 -0.0074  0.2423 -0.4396
 9758SOL    HW230726   7.517   1.786   4.045  0.9564  0.4989  3.6411
 9759SOL     OW30727   0.953   2.681   7.507 -0.7755  0.1196 -0.1655
 9759SOL    HW130728   1.023   2.621   7.531  0.4492  1.9069  1.0257
 9759SOL    HW230729   0.923   2.651   7.421 -0.4318 -2.3024  0.4982
 9760SOL     OW30730   3.811   6.403   5.601  0.4041 -0.0154 -0.2496
 9760SOL    HW130731   3.750   6.354   5.655 -2.9452 -0.3644 -3.8685
 9760SOL    HW230732   3.892   6.353   5.605 -0.5520 -1.5423  2.0789
 9761SOL     OW30733   8.543   1.876   0.857 -0.2301  0.0802 -0.1985
 9761SOL    HW130734   8.477   1.940   0.883  0.4726  0.5753  0.4090
 9761SOL    HW230735   8.623   1.905   0.901 -0.1933 -2.0043  1.2277
 9762SOL     OW30736   5.847   5.102   8.292 -0.2713  0.3123 -0.0330
 9762SOL    HW130737   5.781   5.075   8.228  0.0964 -1.0454  0.1354
 9762SOL    HW230738   5.925   5.052   8.270  0.5730  1.5106  0.1046
 9763SOL     OW30739   3.937   5.682   3.174 -0.2150  0.5196  0.2990
 9763SOL    HW130740   4.012   5.742   3.172 -0.9755  1.4769 -0.8242
 9763SOL    HW230741   3.952   5.622   3.101 -1.1518  1.5311 -0.7672
 9764SOL     OW30742   8.298   2.953   8.313 -0.6742  0.4983 -0.0456
 9764SOL    HW130743   8.262   2.939   8.400 -0.5093 -1.1977 -0.2168
 9764SOL    HW230744   8.258   3.035   8.283 -3.1958 -0.4894  0.3697
 9765SOL     OW30745   4.809   7.540   3.835 -0.3315 -0.1504  0.5821
 9765SOL    HW130746   4.723   7.582   3.830 -0.1821 -0.0059 -2.2229
 9765SOL    HW230747   4.793   7.457   3.879 -1.0231  1.7626  4.3097
 9766SOL     OW30748   8.819   8.451   8.595 -0.1744  0.0338  0.3026
 9766SOL    HW130749   8.857   8.535   8.570 -0.7440  0.1877 -0.0580
 9766SOL    HW230750   8.895   8.393   8.607  0.2117  0.5496  0.3953
 9767SOL     OW30751   4.025   0.512   0.010  0.0195 -0.2297 -0.2907
 9767SOL    HW130752   3.975   0.430   0.006 -0.4696  0.0574 -0.1021
 9767SOL    HW230753   4.023   0.536   0.102  2.3299 -1.3284  0.1188
 9768SOL     OW30754   7.269   8.221   0.459  0.0246 -0.1791  0.2656
 9768SOL    HW130755   7.340   8.158   0.442  0.5779  0.4482  0.2312
 9768SOL    HW230756   7.280   8.245   0.551 -0.4165 -0.4020  0.3812
 9769SOL     OW30757   1.404   8.870   4.841  0.2135  0.0232 -0.1024
 9769SOL    HW130758   1.395   8.936   4.772 -0.8269 -0.0132 -0.0171
 9769SOL    HW230759   1.316   8.860   4.876  0.5333 -0.7475  0.5094
 9770SOL     OW30760   7.949   9.268   5.159  0.2719 -0.1354  1.0474
 9770SOL    HW130761   7.927   9.228   5.075  1.0484 -0.2169  0.8771
 9770SOL    HW230762   8.002   9.202   5.204  1.7128  0.7488  0.6952
 9771SOL     OW30763   0.613   1.403   9.009 -0.0827 -0.1219 -0.2983
 9771SOL    HW130764   0.637   1.480   9.062 -0.8628 -0.3657  0.4428
 9771SOL    HW230765   0.613   1.331   9.072 -1.6238 -0.3164 -0.4962
 9772SOL     OW30766   6.327   5.579   4.079 -0.1444  0.0306  0.5623
 9772SOL    HW130767   6.293   5.580   4.168  1.5137  1.7138  1.2428
 9772SOL    HW230768   6.276   5.646   4.033  0.3856  0.6314  0.8365
 9773SOL     OW30769   8.974   3.420   2.068  0.2055 -0.2834 -0.6167
 9773SOL    HW130770   8.912   3.355   2.101 -0.4618  0.7782  0.3149
 9773SOL    HW230771   9.012   3.459   2.147  1.8018 -0.6461 -1.1639
 9774SOL     OW30772   1.070   8.741   3.925  0.2424 -0.1764  0.0049
 9774SOL    HW130773   1.045   8.661   3.972  1.0830 -0.7153 -0.4330
 9774SOL    HW230774   1.100   8.801   3.993  1.1367 -0.8279  0.2007
 9775SOL     OW30775   6.259   0.590   0.868 -0.3823  0.1260  0.7088
 9775SOL    HW130776   6.278   0.497   0.882 -0.3829  0.1483  0.8655
 9775SOL    HW230777   6.214   0.593   0.784 -0.6589 -0.0511  0.8485
 9776SOL     OW30778   0.177   8.566   7.734  0.0242 -0.8189 -0.1277
 9776SOL    HW130779   0.089   8.533   7.718 -1.9406  2.8708  1.6700
 9776SOL    HW230780   0.189   8.636   7.670  0.2207  0.8705  1.6613
 9777SOL     OW30781   7.090   4.178   8.935 -0.2250 -0.8243  0.3604
 9777SOL    HW130782   7.086   4.255   8.879 -1.0400  0.5278  2.1786
 9777SOL    HW230783   7.009   4.130   8.916  1.7416 -3.2244 -3.2555
 9778SOL     OW30784   1.262   8.636   1.408  0.5058 -0.2793 -0.1229
 9778SOL    HW130785   1.356   8.619   1.402  1.0867  2.1746  0.9782
 9778SOL    HW230786   1.255   8.729   1.427 -2.1487 -0.5002  0.4284
 9779SOL     OW30787   9.008   5.710   0.792  0.4069  0.4734  0.2182
 9779SOL    HW130788   9.102   5.695   0.784  1.1179  3.5056  1.4536
 9779SOL    HW230789   8.972   5.676   0.711  2.6712 -0.1000 -0.6352
 9780SOL     OW30790   7.782   8.122   5.362 -0.0750  0.9729 -0.1904
 9780SOL    HW130791   7.832   8.129   5.443 -1.3525  1.4728  0.5921
 9780SOL    HW230792   7.718   8.053   5.380 -0.7691  1.5101 -0.5351
 9781SOL     OW30793   8.824   6.217   2.385 -0.0407 -0.5072  0.4968
 9781SOL    HW130794   8.802   6.141   2.439  1.5748 -1.4840 -0.1529
 9781SOL    HW230795   8.869   6.180   2.309 -0.0730  1.0401 -0.3106
 9782SOL     OW30796   1.439   2.354   7.372  0.2162  0.3761 -0.0820
 9782SOL    HW130797   1.523   2.385   7.404 -1.0039  0.9005  2.9290
 9782SOL    HW230798   1.453   2.339   7.279  3.5431  0.6473  0.2627
 9783SOL     OW30799   0.575   2.900   7.203 -0.4501  0.5443 -0.0754
 9783SOL    HW130800   0.525   2.945   7.135 -1.6777 -0.6451 -0.0150
 9783SOL    HW230801   0.663   2.936   7.196 -1.2423  2.5489 -0.3483
 9784SOL     OW30802   7.542   7.817   9.214 -0.3104 -0.1241  0.6950
 9784SOL    HW130803   7.542   7.871   9.135 -0.5655 -0.4626  0.4593
 9784SOL    HW230804   7.537   7.880   9.286  0.5541  0.2171  0.4682
 9785SOL     OW30805   3.148   7.283   3.432  0.1302  0.1397 -0.7411
 9785SOL    HW130806   3.127   7.376   3.439  1.0457  0.2768  0.6605
 9785SOL    HW230807   3.244   7.280   3.431  0.1191 -0.7053 -2.4416
 9786SOL     OW30808   2.464   8.525   2.548  0.0767 -0.4277 -0.0674
 9786SOL    HW130809   2.400   8.455   2.534 -0.8634  0.4933 -0.4791
 9786SOL    HW230810   2.476   8.527   2.643 -1.3827  0.1185  0.1406
 9787SOL     OW30811   5.514   7.310   4.973  0.1819 -0.0810 -0.5307
 9787SOL    HW130812   5.485   7.333   5.061 -0.6684 -1.4532 -0.4309
 9787SOL    HW230813   5.557   7.225   4.983 -2.3718 -1.6241 -1.8286
 9788SOL     OW30814   8.490   2.189   9.192  0.2412  0.2338 -0.1494
 9788SOL    HW130815   8.444   2.176   9.109 -0.8063 -2.7878  0.8121
 9788SOL    HW230816   8.581   2.201   9.166 -0.1948  0.3134 -1.7797
 9789SOL     OW30817   2.086   1.793   8.706 -0.5652  0.8088 -0.2987
 9789SOL    HW130818   2.044   1.788   8.792  0.0487  1.4154  0.0410
 9789SOL    HW230819   2.014   1.781   8.644 -1.1280  1.1028  0.2840
 9790SOL     OW30820   0.215   3.083   2.790 -0.1628 -0.1943  0.4104
 9790SOL    HW130821   0.143   3.024   2.768  0.5970 -0.6182 -1.0460
 9790SOL    HW230822   0.174   3.170   2.795 -0.8208 -0.4680 -0.1072
 9791SOL     OW30823   8.437   3.951   1.638  0.1024 -0.3100 -0.8227
 9791SOL    HW130824   8.483   4.031   1.610  1.3952 -1.1317 -1.1514
 9791SOL    HW230825   8.355   3.952   1.588  0.2762  0.6044 -1.1207
 9792SOL     OW30826   6.237   9.271   6.869 -0.4160  0.0469 -1.0655
 9792SOL    HW130827   6.182   9.198   6.900  0.2374  1.4396  4.3757
 9792SOL    HW230828   6.323   9.232   6.854 -0.2391 -0.5818  1.1639
 9793SOL     OW30829   0.663   4.901   1.648  0.3631 -0.2612  0.2344
 9793SOL    HW130830   0.646   4.994   1.630  1.2238 -0.1886 -0.2053
 9793SOL    HW230831   0.578   4.859   1.634  0.1896  0.3182 -0.5037
 9794SOL     OW30832   7.807   2.538   4.932 -0.2482 -0.2371 -0.1680
 9794SOL    HW130833   7.746   2.577   4.994 -0.7695  0.4528 -1.0786
 9794SOL    HW230834   7.769   2.453   4.911  1.1368 -1.5353  2.1849
 9795SOL     OW30835   0.690   1.682   8.137 -0.3852  0.0621  0.7938
 9795SOL    HW130836   0.753   1.628   8.184 -0.4003 -0.9823 -0.3348
 9795SOL    HW230837   0.719   1.772   8.153  2.1227 -0.4052 -0.6347
 9796SOL     OW30838   6.298   0.765   6.012  0.6032  0.1817  0.1267
 9796SOL    HW130839   6.203   0.770   6.023  0.4583  0.6069 -1.1391
 9796SOL    HW230840   6.330   0.727   6.094 -0.3348  2.7993  1.8269
 9797SOL     OW30841   4.190   1.335   5.308  0.2380  0.0375 -0.1315
 9797SOL    HW130842   4.250   1.287   5.365  2.0037  0.6504 -1.4103
 9797SOL    HW230843   4.207   1.427   5.327 -1.2286  0.2390  0.3781
 9798SOL     OW30844   6.046   1.444   8.291  0.0120  0.3325 -0.6831
 9798SOL    HW130845   6.042   1.401   8.376  1.8210  0.5931 -0.4343
 9798SOL    HW230846   6.060   1.373   8.228  1.0088  0.3419 -0.4879
 9799SOL     OW30847   0.860   0.643   4.871 -0.0384 -0.1644 -0.0620
 9799SOL    HW130848   0.896   0.685   4.793 -1.1921  1.1104  0.0600
 9799SOL    HW230849   0.796   0.705   4.905 -0.4481 -1.2286  1.2139
 9800SOL     OW30850   4.373   1.945   3.611  0.9540  0.2217 -0.0803
 9800SOL    HW130851   4.460   1.967   3.578  0.7129 -0.0860 -0.9303
 9800SOL    HW230852   4.324   1.916   3.534  0.5008 -0.8942  0.6014
 9801SOL     OW30853   0.701   1.443   2.803  0.6910  0.0858  0.0805
 9801SOL    HW130854   0.763   1.515   2.811  0.0548  0.6431  0.0841
 9801SOL    HW230855   0.649   1.464   2.726  0.2964 -0.2119  0.2616
 9802SOL     OW30856   2.543   1.575   5.206  0.3346 -0.2194 -0.2556
 9802SOL    HW130857   2.619   1.588   5.149  0.1713  0.9257 -0.2236
 9802SOL    HW230858   2.499   1.660   5.208  0.6907 -0.0454  2.0915
 9803SOL     OW30859   1.643   9.106   7.426 -0.4212  0.4545 -0.2478
 9803SOL    HW130860   1.647   9.171   7.356  1.0937 -0.6078 -1.2060
 9803SOL    HW230861   1.693   9.031   7.393  0.1406 -0.1847  1.8601
 9804SOL     OW30862   7.700   8.975   1.354  0.0404 -0.3010  0.1549
 9804SOL    HW130863   7.665   8.898   1.309 -0.3195 -0.2582  0.3563
 9804SOL    HW230864   7.762   8.940   1.418 -1.7451 -0.6349  1.8214
 9805SOL     OW30865   5.338   5.103   6.645 -0.0472 -0.8019  0.4830
 9805SOL    HW130866   5.342   5.124   6.738 -0.5239 -0.6259  0.4646
 9805SOL    HW230867   5.342   5.188   6.601 -3.3310 -0.5762  0.4424
 9806SOL     OW30868   0.042   3.693   4.780 -0.1216 -0.3081 -0.1885
 9806SOL    HW130869  -0.007   3.773   4.798 -0.1024 -0.3202 -0.0812
 9806SOL    HW230870   0.102   3.685   4.854  0.6720  0.1939 -0.7662
 9807SOL     OW30871   8.148   7.137   0.824 -0.3628  0.3020  0.2275
 9807SOL    HW130872   8.164   7.045   0.842 -2.6989 -0.1943  0.0345
 9807SOL    HW230873   8.118   7.140   0.734  2.5698  1.7013 -0.8474
 9808SOL     OW30874   2.489   8.348   0.797 -0.3588 -0.2061 -0.2610
 9808SOL    HW130875   2.578   8.319   0.780 -0.1324  0.6477 -0.5868
 9808SOL    HW230876   2.485   8.436   0.760 -0.7518  0.5314  1.4398
 9809SOL     OW30877   6.519   4.034   0.793  0.1399  0.2754 -0.1096
 9809SOL    HW130878   6.442   3.978   0.779  1.6103 -2.1520  0.9367
 9809SOL    HW230879   6.506   4.071   0.880 -0.9694  1.8945 -0.9112
 9810SOL     OW30880   1.301   0.483   3.226  0.0349  0.4073  0.5058
 9810SOL    HW130881   1.322   0.570   3.190 -0.5880  0.6096  0.6212
 9810SOL    HW230882   1.314   0.423   3.152  0.8955  0.5311  0.5384
 9811SOL     OW30883   8.954   3.481   1.049 -0.0122 -0.6030 -0.1301
 9811SOL    HW130884   8.983   3.572   1.049  1.4919 -1.0181  1.7039
 9811SOL    HW230885   8.868   3.482   1.090 -0.2391  0.0223 -0.6006
 9812SOL     OW30886   0.096   2.330   1.336  0.2424 -0.0071  0.1545
 9812SOL    HW130887   0.131   2.258   1.388  1.0485  1.3285  1.5386
 9812SOL    HW230888   0.006   2.340   1.365  0.3325 -0.0283  0.4430
 9813SOL     OW30889   1.775   4.011   5.328 -0.5322 -0.6269  0.1142
 9813SOL    HW130890   1.807   4.024   5.239 -0.3182  0.9910  0.3866
 9813SOL    HW230891   1.846   4.042   5.384 -1.2106 -0.2512  0.7974
 9814SOL     OW30892   7.363   0.701   1.797 -0.5099 -0.9767 -0.1147
 9814SOL    HW130893   7.315   0.782   1.781 -0.0337 -1.0786 -2.5252
 9814SOL    HW230894   7.440   0.729   1.847  0.2648  0.3196 -1.9151
 9815SOL     OW30895   4.596   1.678   3.378 -0.0943 -0.4446  0.6006
 9815SOL    HW130896   4.602   1.675   3.474 -0.4443 -0.9589  0.6118
 9815SOL    HW230897   4.638   1.760   3.354  0.8499 -0.7538  1.1279
 9816SOL     OW30898   0.972   4.300   8.160 -0.7284  0.5576  0.3086
 9816SOL    HW130899   0.981   4.390   8.130  1.4579  0.1231 -0.5643
 9816SOL    HW230900   1.020   4.298   8.242 -1.4620  0.3475  0.7403
 9817SOL     OW30901   1.462   0.160   7.503  0.2629  0.0868  0.0975
 9817SOL    HW130902   1.377   0.196   7.529  0.9315  0.5786  1.7998
 9817SOL    HW230903   1.460   0.158   7.408 -0.7928  2.2757 -0.0012
 9818SOL     OW30904   0.780   0.092   1.318 -0.1766 -0.8239  0.2086
 9818SOL    HW130905   0.778   0.026   1.249 -0.5941  0.0229 -0.6090
 9818SOL    HW230906   0.702   0.075   1.370  0.7668 -2.2430  1.2601
 9819SOL     OW30907   6.434   6.123   4.833  0.0538  0.2984  0.2694
 9819SOL    HW130908   6.416   6.084   4.919  1.5755 -0.5501  0.2389
 9819SOL    HW230909   6.529   6.129   4.829  0.0352 -0.1890 -1.5952
 9820SOL     OW30910   9.276   3.870   2.397  0.3148 -0.1264  0.1379
 9820SOL    HW130911   9.204   3.829   2.446  0.2586  0.2296  0.3508
 9820SOL    HW230912   9.260   3.845   2.306  0.4437 -0.8230  0.3011
 9821SOL     OW30913   5.002   7.102   7.499 -0.5763 -0.3419  0.4685
 9821SOL    HW130914   5.091   7.067   7.500 -0.3855  0.0794 -0.3250
 9821SOL    HW230915   4.954   7.049   7.562 -0.2325 -1.8477 -0.4796
 9822SOL     OW30916   4.504   5.988   3.759 -0.4950  0.1441 -0.1482
 9822SOL    HW130917   4.577   6.046   3.780  0.3231 -0.9234 -0.0048
 9822SOL    HW230918   4.484   5.944   3.841  0.1066 -1.1288 -0.6711
 9823SOL     OW30919   6.085   6.230   3.076  0.2854 -0.0439  0.1748
 9823SOL    HW130920   6.087   6.283   2.996 -1.6017 -1.1062 -0.6501
 9823SOL    HW230921   6.071   6.292   3.147 -1.4127  0.6429 -0.7109
 9824SOL     OW30922   0.429   2.450   3.139 -0.0152  0.2830 -0.2116
 9824SOL    HW130923   0.470   2.429   3.055  1.6735  1.8585  0.1495
 9824SOL    HW230924   0.476   2.397   3.203 -1.1363 -0.7337 -0.2049
 9825SOL     OW30925   6.287   8.129   9.118  0.3157  0.0507  0.0257
 9825SOL    HW130926   6.203   8.096   9.086 -0.7190  1.7056  0.8794
 9825SOL    HW230927   6.346   8.054   9.113 -0.4676 -0.4726 -3.1559
 9826SOL     OW30928   0.943   4.514   7.415 -0.3091  0.2545  0.0115
 9826SOL    HW130929   0.982   4.427   7.409 -0.3067  0.2375  0.2791
 9826SOL    HW230930   0.887   4.510   7.492 -0.0770  0.5848  0.1967
 9827SOL     OW30931   2.419   1.119   4.067  0.2963 -0.1495 -0.2796
 9827SOL    HW130932   2.460   1.172   3.999 -0.0565  0.5603  0.0464
 9827SOL    HW230933   2.483   1.115   4.138 -1.3771  4.1441  1.8726
 9828SOL     OW30934   8.812   6.146   4.670  0.1882 -0.0594  0.3592
 9828SOL    HW130935   8.820   6.142   4.575 -0.9905 -0.2999  0.2475
 9828SOL    HW230936   8.838   6.059   4.700 -1.4479 -0.6859  0.0575
 9829SOL     OW30937   4.817   2.953   8.873  0.2959 -0.2286  0.3734
 9829SOL    HW130938   4.727   2.986   8.880  0.8446  1.2761  0.8612
 9829SOL    HW230939   4.850   2.956   8.963  0.1435 -2.9752  0.6021
 9830SOL     OW30940   1.528   7.364   5.812 -0.0901 -0.2899  0.3333
 9830SOL    HW130941   1.556   7.437   5.867 -0.7025  0.8852 -0.8764
 9830SOL    HW230942   1.445   7.392   5.775  0.4898 -0.8815 -1.4991
 9831SOL     OW30943   7.779   1.071   9.185 -0.2384 -0.2718  0.2198
 9831SOL    HW130944   7.713   1.003   9.196 -0.2086 -0.5415 -1.0943
 9831SOL    HW230945   7.835   1.064   9.263  0.2757 -2.3290 -0.2799
 9832SOL     OW30946   4.594   4.460   8.123 -0.5757 -0.6787  0.2209
 9832SOL    HW130947   4.525   4.482   8.060 -0.7690  0.0410  0.6715
 9832SOL    HW230948   4.650   4.538   8.125  0.7950 -1.6108 -0.8373
 9833SOL     OW30949   0.443   6.951   6.288 -0.7777 -0.3276 -0.3809
 9833SOL    HW130950   0.454   7.041   6.258 -1.5749 -0.2471 -0.4609
 9833SOL    HW230951   0.354   6.948   6.324 -0.6770 -1.0225 -0.1617
 9834SOL     OW30952   1.443   0.593   2.738 -0.3139  0.1927 -0.2931
 9834SOL    HW130953   1.519   0.642   2.770 -0.0481 -1.3603  1.6038
 9834SOL    HW230954   1.418   0.638   2.657 -1.1126  4.5005  2.0713
 9835SOL     OW30955   6.480   5.624   7.612 -0.3354  0.3462 -0.3045
 9835SOL    HW130956   6.428   5.647   7.536 -2.2801 -3.5022 -0.3447
 9835SOL    HW230957   6.428   5.652   7.687  0.0269  1.1205 -0.3268
 9836SOL     OW30958   8.640   2.034   5.693  0.1491  0.2187  0.0451
 9836SOL    HW130959   8.650   2.128   5.680  3.9840  0.4659  2.8158
 9836SOL    HW230960   8.696   1.994   5.626  0.7219  0.1018  0.5849
 9837SOL     OW30961   2.390   4.550   5.790 -0.4840  0.3118  0.5457
 9837SOL    HW130962   2.457   4.484   5.775 -0.9181 -0.1624  0.6841
 9837SOL    HW230963   2.323   4.533   5.724 -1.2924 -0.3153  1.5064
 9838SOL     OW30964   8.636   6.415   5.047 -0.5796 -0.2042 -0.3554
 9838SOL    HW130965   8.618   6.343   4.986 -0.3849 -1.1392  0.6592
 9838SOL    HW230966   8.633   6.493   4.992 -3.7344 -0.6316 -1.0264
 9839SOL     OW30967   3.169   8.967   7.785 -0.0831  0.0665 -0.1564
 9839SOL    HW130968   3.154   9.031   7.715  0.5886 -0.2171 -0.5597
 9839SOL    HW230969   3.204   8.890   7.741  1.8416  0.4323  0.6639
 9840SOL     OW30970   5.506   8.581   5.454 -0.1384 -0.2606  0.1096
 9840SOL    HW130971   5.483   8.489   5.464 -1.7177 -0.0627 -1.2038
 9840SOL    HW230972   5.591   8.579   5.411  0.1868 -1.0870  0.7564
 9841SOL     OW30973   3.291   0.894   5.494 -0.1424 -0.5425 -0.1342
 9841SOL    HW130974   3.338   0.882   5.576  0.1919  0.3853 -0.1750
 9841SOL    HW230975   3.299   0.810   5.449  0.0700 -0.9083  0.5774
 9842SOL     OW30976   2.053   0.169   5.539  0.6410  0.0048 -0.5395
 9842SOL    HW130977   1.996   0.180   5.463  0.9776  1.8167 -0.5834
 9842SOL    HW230978   2.109   0.094   5.518 -0.6541 -0.8077 -1.1614
 9843SOL     OW30979   5.165   8.495   2.710 -0.0594  0.0947  0.3355
 9843SOL    HW130980   5.128   8.583   2.721 -1.6279 -0.1154 -2.4748
 9843SOL    HW230981   5.096   8.437   2.743 -0.1226 -0.1388 -0.1998
 9844SOL     OW30982   7.503   3.262   3.818 -0.4211 -0.1533 -0.3365
 9844SOL    HW130983   7.444   3.191   3.844 -1.4970  0.8222  0.0058
 9844SOL    HW230984   7.576   3.256   3.879 -1.0442 -0.2880  0.4197
 9845SOL     OW30985   5.007   2.087   2.304 -0.2353 -0.5014  0.2808
 9845SOL    HW130986   4.913   2.102   2.300  0.0318  1.8099  1.1785
 9845SOL    HW230987   5.027   2.038   2.224 -2.0193 -0.0081 -0.5235
 9846SOL     OW30988   5.345   7.358   2.751  0.1865  0.2161 -0.3623
 9846SOL    HW130989   5.278   7.366   2.818  0.0856  0.3583 -0.4793
 9846SOL    HW230990   5.313   7.287   2.695  0.2157  0.1719 -0.3230
 9847SOL     OW30991   7.038   5.226   4.309 -0.0213  0.1848  0.2504
 9847SOL    HW130992   7.034   5.322   4.301 -0.6406  0.3755  2.3489
 9847SOL    HW230993   6.998   5.194   4.228 -1.1159  1.7321  0.1289
 9848SOL     OW30994   0.726   3.685   3.908 -0.2621 -0.1356 -0.2254
 9848SOL    HW130995   0.671   3.762   3.892  0.8677  0.6417 -0.4994
 9848SOL    HW230996   0.794   3.716   3.968 -0.1355 -1.0829  0.1430
 9849SOL     OW30997   0.614   6.165   4.360 -0.4239  0.3589  0.0734
 9849SOL    HW130998   0.633   6.178   4.452  0.9639  1.1902 -0.3076
 9849SOL    HW230999   0.700   6.157   4.318 -1.0015  0.6872 -1.2402
 9850SOL     OW31000   6.196   4.411   0.281  0.2581  0.6929 -0.1254
 9850SOL    HW131001   6.212   4.481   0.345  1.2200  1.7162 -1.4264
 9850SOL    HW231002   6.241   4.440   0.202  0.5880 -1.3497 -0.7570
 9851SOL     OW31003   1.157   4.195   8.680 -0.6550 -0.0292 -0.2928
 9851SOL    HW131004   1.071   4.235   8.677 -1.1352 -0.7435  1.8132
 9851SOL    HW231005   1.203   4.242   8.750  0.0112 -0.8403 -0.1587
 9852SOL     OW31006   8.600   1.406   1.460 -0.5256 -0.4938 -0.1084
 9852SOL    HW131007   8.583   1.471   1.392  1.4911 -0.0418 -0.2550
 9852SOL    HW231008   8.609   1.323   1.414  0.2782 -0.2811 -0.3547
 9853SOL     OW31009   6.581   1.934   1.537  0.1212 -0.5085 -0.3891
 9853SOL    HW131010   6.550   1.918   1.448 -2.1016 -0.5860  0.3507
 9853SOL    HW231011   6.652   1.997   1.527  0.4449 -1.1232 -2.2619
 9854SOL     OW31012   0.539   3.324   7.258  0.2213 -0.3816  0.8649
 9854SOL    HW131013   0.494   3.252   7.303 -0.1199 -1.2003 -0.7263
 9854SOL    HW231014   0.616   3.283   7.218  0.3027  0.2381  0.3684
 9855SOL     OW31015   8.345   0.063   5.948 -0.3401  0.5141 -0.2785
 9855SOL    HW131016   8.296   0.036   6.026  0.4450 -0.2021 -0.0119
 9855SOL    HW231017   8.285   0.044   5.875 -0.0860 -1.4591 -0.0523
 9856SOL     OW31018   5.387   8.739   5.637 -0.3696  0.1312 -0.2169
 9856SOL    HW131019   5.304   8.693   5.622  0.2164 -0.5106 -1.6166
 9856SOL    HW231020   5.438   8.724   5.558  1.0007  0.7394  0.5163
 9857SOL     OW31021   1.256   4.566   0.292 -0.1890  0.7873  0.2914
 9857SOL    HW131022   1.313   4.617   0.350 -0.1140 -0.8415  1.7325
 9857SOL    HW231023   1.174   4.615   0.289  0.6399  2.1993 -0.2972
 9858SOL     OW31024   3.315   4.584   3.033 -0.3635  0.7696  0.1518
 9858SOL    HW131025   3.260   4.646   2.985 -2.1733 -1.7751 -1.2706
 9858SOL    HW231026   3.365   4.538   2.965 -0.1199 -0.2874  1.0191
 9859SOL     OW31027   6.909   2.629   8.821 -0.0018  0.3122 -0.1994
 9859SOL    HW131028   6.859   2.551   8.797  2.3898 -1.0467 -1.1354
 9859SOL    HW231029   6.979   2.596   8.877 -0.0354  2.1066  0.9455
 9860SOL     OW31030   5.345   5.002   0.932  0.3171  0.7785  0.6723
 9860SOL    HW131031   5.289   5.066   0.888 -0.7354  0.3508  1.3447
 9860SOL    HW231032   5.304   4.918   0.914  1.4055  0.3217  0.2201
 9861SOL     OW31033   4.253   8.631   0.326  0.0493  0.3297 -0.2763
 9861SOL    HW131034   4.224   8.617   0.416 -0.7561  0.8413 -0.4502
 9861SOL    HW231035   4.344   8.600   0.325 -0.6115 -1.8311  0.1617
 9862SOL     OW31036   6.608   6.045   4.407 -0.1170 -0.7449  0.0325
 9862SOL    HW131037   6.695   6.060   4.445 -0.1059  2.2698 -0.9427
 9862SOL    HW231038   6.624   5.981   4.338  1.2650 -0.4869  0.0740
 9863SOL     OW31039   2.156   1.459   3.281 -0.4161 -0.1768 -0.1440
 9863SOL    HW131040   2.195   1.516   3.215 -0.5763  1.2019  0.8823
 9863SOL    HW231041   2.185   1.496   3.365 -0.1346 -1.9173  0.5819
 9864SOL     OW31042   3.738   6.868   0.562  0.6551 -0.5058  0.9426
 9864SOL    HW131043   3.672   6.879   0.630  0.9307 -0.0018  1.1417
 9864SOL    HW231044   3.694   6.821   0.492  0.1988 -0.5138  1.2316
 9865SOL     OW31045   7.513   5.534   4.283 -0.0310  0.0863 -0.6345
 9865SOL    HW131046   7.440   5.516   4.223  0.1160 -1.9844 -0.2699
 9865SOL    HW231047   7.586   5.558   4.226 -0.4566  0.1844 -1.1437
 9866SOL     OW31048   5.096   2.575   4.651 -0.5889  0.3417 -0.1935
 9866SOL    HW131049   5.074   2.515   4.722 -0.8674 -0.8710 -1.2658
 9866SOL    HW231050   5.048   2.542   4.575  0.1478  1.2529 -1.0995
 9867SOL     OW31051   8.751   7.114   3.406  0.1410  0.1483 -0.8853
 9867SOL    HW131052   8.761   7.172   3.331 -1.0136  2.9701  0.9848
 9867SOL    HW231053   8.822   7.139   3.465 -1.8628  1.5757  1.0454
 9868SOL     OW31054   7.819   8.764   6.889 -0.3259 -0.1297 -0.1419
 9868SOL    HW131055   7.730   8.793   6.911 -0.7871 -1.5059 -0.0920
 9868SOL    HW231056   7.851   8.831   6.829 -1.2575  0.5866  0.1246
 9869SOL     OW31057   4.707   2.616   1.218  0.4983  0.0947  0.3110
 9869SOL    HW131058   4.757   2.652   1.292  0.7717 -0.9145  0.6347
 9869SOL    HW231059   4.747   2.530   1.202 -1.1510 -0.7801  0.6321
 9870SOL     OW31060   1.461   7.985   7.566 -0.1317  0.3799  0.1996
 9870SOL    HW131061   1.491   7.895   7.574  1.1112  0.8517  1.1914
 9870SOL    HW231062   1.541   8.038   7.566 -0.7436  1.4317 -1.7073
 9871SOL     OW31063   6.166   0.308   2.006  0.2107  0.3304  0.0171
 9871SOL    HW131064   6.114   0.237   1.968 -1.1183  0.7619  0.9789
 9871SOL    HW231065   6.169   0.375   1.937 -0.6866  0.3868  0.0219
 9872SOL     OW31066   9.248   5.897   6.709 -0.9101  0.1748  0.2728
 9872SOL    HW131067   9.220   5.824   6.764 -1.5175  0.1575 -0.0508
 9872SOL    HW231068   9.343   5.904   6.724 -1.0568  0.1409  1.2754
 9873SOL     OW31069   5.756   9.016   6.540 -0.2413 -0.4516 -0.1895
 9873SOL    HW131070   5.764   9.109   6.560 -2.4355 -0.7049  2.4435
 9873SOL    HW231071   5.829   8.975   6.585 -0.2599 -0.1425  0.1276
 9874SOL     OW31072   3.921   0.933   3.217 -0.0719 -0.7757  1.0056
 9874SOL    HW131073   3.857   1.004   3.222  0.4668 -0.0868 -0.8389
 9874SOL    HW231074   3.968   0.936   3.300  1.5467  2.6645  0.1633
 9875SOL     OW31075   6.915   2.758   0.435 -0.0711  0.4767  0.8408
 9875SOL    HW131076   6.983   2.693   0.417  1.5306  2.0492  0.8644
 9875SOL    HW231077   6.909   2.761   0.530 -0.2486  0.2667  0.8364
 9876SOL     OW31078   8.753   6.137   3.777  0.2353 -0.1912 -0.4156
 9876SOL    HW131079   8.780   6.205   3.838  2.2784 -0.7064 -0.6498
 9876SOL    HW231080   8.704   6.074   3.830  1.0587 -0.1016  0.4713
 9877SOL     OW31081   0.668   2.971   0.748 -0.1152  0.6662 -0.3247
 9877SOL    HW131082   0.587   3.020   0.734 -0.8032 -0.6326 -1.0556
 9877SOL    HW231083   0.670   2.954   0.842 -1.1977 -0.1205 -0.4351
 9878SOL     OW31084   5.867   4.733   3.887  0.5968  0.0549  0.7953
 9878SOL    HW131085   5.919   4.809   3.912  0.9277  0.5721 -1.2998
 9878SOL    HW231086   5.929   4.660   3.886  1.0766  0.4574 -0.6043
 9879SOL     OW31087   7.642   2.486   0.248 -0.2485  0.3041 -0.0363
 9879SOL    HW131088   7.708   2.543   0.288  1.0475 -1.0590 -0.1654
 9879SOL    HW231089   7.618   2.425   0.317 -0.5735  0.1150 -0.3188
 9880SOL     OW31090   6.088   5.915   3.380 -0.3651 -0.0334 -0.0293
 9880SOL    HW131091   6.131   5.931   3.295 -0.2496 -0.5655 -0.0755
 9880SOL    HW231092   6.043   5.997   3.400  1.1652  0.7606  0.3155
 9881SOL     OW31093   8.729   1.057   4.784  0.0491 -0.4605 -0.1277
 9881SOL    HW131094   8.733   1.143   4.741 -1.6221 -0.7943 -1.0173
 9881SOL    HW231095   8.742   0.994   4.713 -1.4585 -0.9943  0.0448
 9882SOL     OW31096   4.267   4.510   8.212 -0.3490  0.0409 -0.0577
 9882SOL    HW131097   4.275   4.418   8.190 -0.0262 -0.1503  0.8152
 9882SOL    HW231098   4.174   4.530   8.203 -0.6833 -0.7800  1.2712
 9883SOL     OW31099   7.856   8.466   0.437  0.0193 -0.5828  0.3652
 9883SOL    HW131100   7.853   8.523   0.361 -2.2974 -0.7105  0.2908
 9883SOL    HW231101   7.917   8.509   0.497 -0.9003  1.4593 -0.0891
 9884SOL     OW31102   5.528   2.848   2.384  0.9714  0.5066 -0.2009
 9884SOL    HW131103   5.619   2.820   2.393  0.4950 -0.6990  1.4136
 9884SOL    HW231104   5.527   2.903   2.306  2.7739 -0.6947 -1.1360
 9885SOL     OW31105   5.690   0.901   5.582  1.1882  0.4757  0.1815
 9885SOL    HW131106   5.751   0.848   5.530  0.5761 -0.5803  0.5160
 9885SOL    HW231107   5.649   0.839   5.642  0.8244  1.4285  0.9388
 9886SOL     OW31108   2.722   7.551   1.329 -0.3354 -0.2686 -0.1183
 9886SOL    HW131109   2.777   7.543   1.407  1.7616 -0.6391 -1.5384
 9886SOL    HW231110   2.713   7.461   1.297 -1.0046 -0.1038 -0.4118
 9887SOL     OW31111   4.753   7.388   0.569  0.3093  0.3116 -0.8724
 9887SOL    HW131112   4.772   7.357   0.481  0.5490 -1.6053 -0.1912
 9887SOL    HW231113   4.684   7.330   0.601  0.8664  0.3780  0.5294
 9888SOL     OW31114   8.683   7.604   3.552 -0.3922  0.6805 -0.0811
 9888SOL    HW131115   8.682   7.544   3.626  0.1964  1.9247  0.9632
 9888SOL    HW231116   8.767   7.588   3.509 -0.5052  0.3311 -0.1747
 9889SOL     OW31117   8.356   3.152   6.195 -0.2435 -0.3185 -0.0472
 9889SOL    HW131118   8.319   3.227   6.149 -2.0381 -0.7995  0.5455
 9889SOL    HW231119   8.316   3.155   6.282  1.3326 -0.7394  0.7331
 9890SOL     OW31120   1.521   3.824   5.830  0.1951  0.5171 -0.0347
 9890SOL    HW131121   1.612   3.797   5.819 -0.0202 -1.0497  1.6907
 9890SOL    HW231122   1.474   3.744   5.853 -1.7739  1.1635 -1.4926
 9891SOL     OW31123   8.200   4.078   1.158 -0.1202 -0.5631 -0.1339
 9891SOL    HW131124   8.211   4.087   1.253 -0.7914 -1.7969  0.0869
 9891SOL    HW231125   8.221   3.986   1.140  1.7597  0.0571 -1.4750
 9892SOL     OW31126   4.514   6.610   9.258  0.1415  0.4848  0.3122
 9892SOL    HW131127   4.535   6.557   9.182  1.5081 -0.4610  1.2954
 9892SOL    HW231128   4.509   6.700   9.225 -1.6930 -0.1250 -1.2846
 9893SOL     OW31129   3.464   1.712   2.227 -0.0633 -0.0396  0.3711
 9893SOL    HW131130   3.398   1.708   2.159  0.4082 -0.4784 -0.0706
 9893SOL    HW231131   3.484   1.620   2.247 -0.0581  0.0833  0.9677
 9894SOL     OW31132   1.836   3.134   4.769  0.4199  0.2097  0.3742
 9894SOL    HW131133   1.819   3.076   4.843  1.0128  0.5030  0.7514
 9894SOL    HW231134   1.896   3.084   4.713 -0.4743 -0.2379 -0.2072
 9895SOL     OW31135   1.582   4.662   8.579  0.3148 -1.2638 -0.4672
 9895SOL    HW131136   1.532   4.710   8.512  1.7121  3.2031  1.2820
 9895SOL    HW231137   1.530   4.672   8.659  2.0269  0.1646  0.5651
 9896SOL     OW31138   4.690   0.366   3.309  0.6031 -0.5583 -0.0070
 9896SOL    HW131139   4.715   0.456   3.289 -2.9622  0.1417 -2.2909
 9896SOL    HW231140   4.671   0.367   3.403  1.7731  0.6945  0.2510
 9897SOL     OW31141   5.683   4.407   4.767 -0.5743 -0.2853 -0.4253
 9897SOL    HW131142   5.660   4.343   4.700 -2.4363  1.7504 -1.8504
 9897SOL    HW231143   5.637   4.487   4.742  2.4175  1.9935  0.6981
 9898SOL     OW31144   6.411   8.373   5.934  0.0140 -0.4977 -0.0360
 9898SOL    HW131145   6.330   8.329   5.962 -0.0302  0.6574  1.7797
 9898SOL    HW231146   6.385   8.423   5.856 -1.7270  1.7545  1.8387
 9899SOL     OW31147   5.112   3.961   8.731  0.3969  0.0853  0.2419
 9899SOL    HW131148   5.082   4.016   8.803 -0.0980 -0.0019  0.1106
 9899SOL    HW231149   5.193   4.003   8.700  1.2905 -0.5660  1.6289
 9900SOL     OW31150   1.429   8.628   4.630  0.1897  0.2801  0.0407
 9900SOL    HW131151   1.424   8.544   4.585 -1.9313  0.0590  0.5957
 9900SOL    HW231152   1.465   8.607   4.716  0.4576  0.0929 -0.1131
 9901SOL     OW31153   4.772   6.715   4.129  0.1821  0.2406  0.2307
 9901SOL    HW131154   4.748   6.625   4.108  1.6945  0.1190 -1.1818
 9901SOL    HW231155   4.868   6.714   4.131  0.2930  2.0764 -1.2184
 9902SOL     OW31156   3.833   6.982   4.252 -0.2227 -0.6598 -0.1384
 9902SOL    HW131157   3.848   6.977   4.158 -0.0414 -1.1558 -0.0861
 9902SOL    HW231158   3.782   7.062   4.264  0.6296 -0.0420 -0.5454
 9903SOL     OW31159   7.877   1.274   8.707 -0.4708  0.3565 -0.2398
 9903SOL    HW131160   7.904   1.186   8.732 -1.0709  0.2060 -0.1032
 9903SOL    HW231161   7.884   1.275   8.611 -0.0399  0.3016 -0.2080
 9904SOL     OW31162   2.448   6.420   8.938 -0.2796  0.4858 -0.2652
 9904SOL    HW131163   2.458   6.454   8.849 -1.4688  0.5298 -0.4078
 9904SOL    HW231164   2.361   6.450   8.965  0.6214  1.7075  1.4658
 9905SOL     OW31165   8.807   2.583   0.753 -0.5687 -0.0706 -0.3023
 9905SOL    HW131166   8.822   2.558   0.662  2.1743  0.0727  0.0330
 9905SOL    HW231167   8.858   2.521   0.804 -1.0952  0.5904  1.0722
 9906SOL     OW31168   0.658   2.070   6.161 -0.3579 -0.1896 -0.7060
 9906SOL    HW131169   0.737   2.100   6.115 -0.1491 -1.4323 -1.1797
 9906SOL    HW231170   0.600   2.041   6.091  0.7268 -4.0366 -0.2340
 9907SOL     OW31171   1.376   6.202   3.330 -0.4021 -0.1443 -0.2893
 9907SOL    HW131172   1.406   6.111   3.332  0.1489  0.0530  1.1052
 9907SOL    HW231173   1.322   6.212   3.408 -1.4008  0.4326 -1.0294
 9908SOL     OW31174   4.326   2.245   0.802  0.8141  0.2927 -0.3908
 9908SOL    HW131175   4.405   2.211   0.845  0.1111 -0.4874  0.3338
 9908SOL    HW231176   4.355   2.271   0.715  1.9383  0.3398 -0.0244
 9909SOL     OW31177   1.948   9.067   4.687  0.2617  0.1523 -0.6315
 9909SOL    HW131178   1.957   9.063   4.782 -0.2133  1.2720 -0.5181
 9909SOL    HW231179   2.032   9.039   4.653  0.3682 -0.4599  0.1156
 9910SOL     OW31180   8.805   5.513   5.452  0.2657  0.2033  0.1123
 9910SOL    HW131181   8.884   5.548   5.492  1.6218 -1.0560 -1.2727
 9910SOL    HW231182   8.768   5.586   5.403  0.2073  0.9771  1.2920
 9911SOL     OW31183   2.818   9.253   4.936  0.6583 -0.3196  0.1599
 9911SOL    HW131184   2.898   9.207   4.913  1.1041 -0.7130  2.2397
 9911SOL    HW231185   2.747   9.197   4.904  1.2068 -1.5517  1.0262
 9912SOL     OW31186   0.944   5.371   6.795  0.0021 -0.3082 -0.1216
 9912SOL    HW131187   0.970   5.309   6.727  1.3102 -1.2908  1.2179
 9912SOL    HW231188   0.972   5.331   6.876  0.0352  1.6304  0.8806
 9913SOL     OW31189   3.605   8.049   1.368  0.3566 -0.1714  0.6314
 9913SOL    HW131190   3.610   8.090   1.454 -0.2577  0.4166  0.3868
 9913SOL    HW231191   3.566   8.115   1.311  1.8498 -0.1052 -0.3857
 9914SOL     OW31192   3.126   5.599   2.367 -0.1882 -1.1131  0.1923
 9914SOL    HW131193   3.098   5.514   2.332 -3.5753  0.9583 -2.8969
 9914SOL    HW231194   3.218   5.606   2.341  0.1815 -3.7520  0.5181
 9915SOL     OW31195   2.785   3.472   1.001  0.0071  0.3953 -0.7907
 9915SOL    HW131196   2.764   3.403   0.939  1.2091 -0.6978 -0.0336
 9915SOL    HW231197   2.881   3.476   1.001 -0.0200  1.5018 -0.2213
 9916SOL     OW31198   4.697   7.921   8.521  0.4897  0.6127 -0.5817
 9916SOL    HW131199   4.689   8.011   8.552 -0.5162  0.5475 -0.6207
 9916SOL    HW231200   4.790   7.901   8.530  0.5872  1.3689  0.2103
 9917SOL     OW31201   1.436   6.226   1.874 -0.0702  0.0006  1.0520
 9917SOL    HW131202   1.405   6.143   1.837  1.1456  0.0520 -0.1518
 9917SOL    HW231203   1.531   6.217   1.878  0.1277  1.4971  0.4590
 9918SOL     OW31204   5.124   0.592   5.385 -0.5856  0.5277  0.3119
 9918SOL    HW131205   5.132   0.598   5.480 -0.9697  2.4155  0.2712
 9918SOL    HW231206   5.046   0.643   5.364 -0.1074  0.7384 -1.0781
 9919SOL     OW31207   6.172   7.908   3.024 -0.0686  0.1440 -1.0401
 9919SOL    HW131208   6.078   7.899   3.013 -0.0503  0.1993 -1.2547
 9919SOL    HW231209   6.191   7.867   3.108 -0.2899  0.1730 -0.9749
 9920SOL     OW31210   5.489   1.648   6.381 -0.2330 -0.7271 -0.5074
 9920SOL    HW131211   5.530   1.687   6.303 -2.2079 -0.9281 -1.7184
 9920SOL    HW231212   5.459   1.723   6.432  0.9056 -0.5979  0.0079
 9921SOL     OW31213   2.546   4.694   4.152 -0.1417  0.0939 -0.2517
 9921SOL    HW131214   2.497   4.654   4.223 -1.0944  1.1805 -0.2574
 9921SOL    HW231215   2.490   4.767   4.123  2.7487  3.4044  1.7805
 9922SOL     OW31216   1.765   8.989   1.730 -0.1837  0.2290 -0.0249
 9922SOL    HW131217   1.847   8.972   1.776 -0.5357  1.3897  1.0874
 9922SOL    HW231218   1.786   8.978   1.638  1.5555  1.7076  0.1484
 9923SOL     OW31219   4.965   3.097   0.710 -0.1115 -0.4500 -0.2955
 9923SOL    HW131220   4.978   3.056   0.795  0.5061  0.0973 -0.1197
 9923SOL    HW231221   4.893   3.047   0.670 -0.5982 -0.5296  0.6547
 9924SOL     OW31222   4.037   1.365   7.106  0.2224  0.6345 -0.4750
 9924SOL    HW131223   4.109   1.326   7.056  0.9919  0.8726  0.4372
 9924SOL    HW231224   4.074   1.385   7.192 -1.0289  0.4073  0.1497
 9925SOL     OW31225   2.024   3.679   4.222 -0.6227 -0.3221 -0.0453
 9925SOL    HW131226   2.072   3.673   4.305  0.4055  2.3825 -0.3246
 9925SOL    HW231227   2.074   3.625   4.161 -1.2698 -2.1626  1.0033
 9926SOL     OW31228   2.319   8.594   1.275  0.1225  0.0690  0.2157
 9926SOL    HW131229   2.332   8.520   1.216 -0.4439  0.1150  0.0257
 9926SOL    HW231230   2.365   8.569   1.355  0.7802 -0.0493 -0.1933
 9927SOL     OW31231   8.572   7.647   4.670  0.3366 -0.4356  0.4810
 9927SOL    HW131232   8.661   7.652   4.635  0.0941  0.8212  0.0089
 9927SOL    HW231233   8.534   7.733   4.653 -1.6775 -1.5559 -1.2118
 9928SOL     OW31234   1.746   0.406   5.907 -0.3778 -0.0252  0.1681
 9928SOL    HW131235   1.769   0.411   6.000 -0.1155  1.6442  0.0461
 9928SOL    HW231236   1.824   0.369   5.865 -0.9141 -1.8804  0.7166
 9929SOL     OW31237   5.568   7.003   8.042  0.2896 -0.0170  0.2603
 9929SOL    HW131238   5.628   7.050   8.100  2.7972 -4.2271  1.4951
 9929SOL    HW231239   5.525   6.939   8.098  0.6645 -2.3986 -1.9739
 9930SOL     OW31240   3.975   4.633   1.158  0.0779  0.2583 -0.1764
 9930SOL    HW131241   3.964   4.686   1.080  0.8999  1.8498  0.7461
 9930SOL    HW231242   3.902   4.658   1.215 -1.5883 -2.2057 -1.0618
 9931SOL     OW31243   7.115   3.358   8.136  0.1736  0.0450  0.5188
 9931SOL    HW131244   7.028   3.369   8.100  0.1174 -0.4609  0.4951
 9931SOL    HW231245   7.140   3.446   8.166 -0.2930  0.2125  0.4237
 9932SOL     OW31246   0.103   2.087   1.055 -0.4155 -0.4602  0.3811
 9932SOL    HW131247   0.140   2.000   1.069  0.7181  0.0098  0.3314
 9932SOL    HW231248   0.177   2.147   1.059 -0.8244  0.2942 -1.8377
 9933SOL     OW31249   7.478   2.588   3.999 -0.0284  0.1270  1.0264
 9933SOL    HW131250   7.559   2.637   4.013 -0.0369  0.2634  0.6342
 9933SOL    HW231251   7.494   2.502   4.038  0.9838 -0.4889 -0.6501
 9934SOL     OW31252   7.665   8.419   2.180 -0.0975 -0.7340  0.9568
 9934SOL    HW131253   7.680   8.331   2.214  1.8865 -0.9203 -0.2408
 9934SOL    HW231254   7.651   8.407   2.086 -0.5641  0.1820  0.8919
 9935SOL     OW31255   6.519   1.247   8.761  0.4423 -0.1118 -0.3624
 9935SOL    HW131256   6.463   1.298   8.819  1.4675 -0.0127  0.5775
 9935SOL    HW231257   6.459   1.191   8.712 -0.5563  0.8098 -0.2153
 9936SOL     OW31258   8.082   8.517   3.659 -0.2839 -0.3759 -0.2948
 9936SOL    HW131259   8.176   8.503   3.660 -0.3854 -1.3287 -1.7043
 9936SOL    HW231260   8.050   8.463   3.586 -1.5480  2.4089 -1.9444
 9937SOL     OW31261   6.516   2.854   7.266  0.4671  0.2778  0.0574
 9937SOL    HW131262   6.491   2.782   7.324 -0.1914  0.0587 -0.4765
 9937SOL    HW231263   6.498   2.820   7.178  0.4089  0.9971 -0.2114
 9938SOL     OW31264   1.303   0.798   0.547 -0.5529  0.1188  0.5398
 9938SOL    HW131265   1.311   0.740   0.622 -0.1650 -0.7468 -0.1557
 9938SOL    HW231266   1.381   0.781   0.494 -0.0509  1.8126  0.6788
 9939SOL     OW31267   1.263   5.479   2.700 -0.4835 -0.1105 -0.1912
 9939SOL    HW131268   1.318   5.400   2.698  0.2623  0.3599  0.9659
 9939SOL    HW231269   1.207   5.467   2.777 -0.8128  0.1931 -0.3830
 9940SOL     OW31270   1.520   1.937   1.631 -0.2076  0.2536  0.3949
 9940SOL    HW131271   1.581   1.956   1.703  0.2614 -2.1615  0.7361
 9940SOL    HW231272   1.543   1.999   1.563  2.1818 -0.0689  0.8036
 9941SOL     OW31273   7.776   8.773   0.003  0.2687  0.4133 -0.3798
 9941SOL    HW131274   7.708   8.837  -0.016  0.2514  0.1463 -1.2981
 9941SOL    HW231275   7.810   8.748  -0.083  0.7695 -0.2699  0.0012
 9942SOL     OW31276   4.509   2.737   8.352 -0.6106 -0.7747 -0.2976
 9942SOL    HW131277   4.456   2.665   8.318 -3.0720  1.4427 -1.5384
 9942SOL    HW231278   4.489   2.811   8.294  0.7417  1.2655  1.6765
 9943SOL     OW31279   5.204   4.881   5.121  0.2580  0.0734  0.1625
 9943SOL    HW131280   5.172   4.883   5.211 -0.2838 -2.6881  0.0938
 9943SOL    HW231281   5.261   4.958   5.115 -0.1758  0.6761  2.6531
 9944SOL     OW31282   3.573   3.695   5.489  0.2446  0.7162 -0.4638
 9944SOL    HW131283   3.560   3.762   5.556  0.2857 -1.1626  1.5378
 9944SOL    HW231284   3.664   3.667   5.501 -0.6469 -1.8384  0.9214
 9945SOL     OW31285   7.229   7.732   4.469 -0.3926  0.3980  0.4349
 9945SOL    HW131286   7.163   7.712   4.402 -0.7849 -0.7852  1.1535
 9945SOL    HW231287   7.252   7.647   4.506  0.5965  0.9367  1.0829
 9946SOL     OW31288   5.112   2.786   5.953 -0.0754  0.2847  0.0336
 9946SOL    HW131289   5.091   2.764   6.044  0.6975 -0.9295 -0.0682
 9946SOL    HW231290   5.132   2.880   5.956  1.0418  0.0520  1.3583
 9947SOL     OW31291   3.922   7.028   3.350  0.0219  0.6427  0.4957
 9947SOL    HW131292   3.847   7.085   3.332  1.2467  2.2764  0.4147
 9947SOL    HW231293   3.953   7.054   3.436  0.0914 -0.5317  0.8532
 9948SOL     OW31294   6.923   7.406   7.255  0.5858  0.2724  0.0694
 9948SOL    HW131295   6.977   7.482   7.234 -0.1307  0.6111 -0.6276
 9948SOL    HW231296   6.848   7.413   7.195  0.2358 -0.6823  0.3753
 9949SOL     OW31297   3.339   1.306   1.646 -0.0065 -0.2387 -0.1098
 9949SOL    HW131298   3.390   1.333   1.722 -0.1540  0.7851 -0.3570
 9949SOL    HW231299   3.248   1.319   1.672 -0.0541  0.2765 -0.5021
 9950SOL     OW31300   6.446   8.328   3.585 -0.4568 -0.0377  0.0247
 9950SOL    HW131301   6.539   8.339   3.608 -0.5142  2.5174 -0.7514
 9950SOL    HW231302   6.412   8.270   3.653  1.4367 -0.0740  1.0157
 9951SOL     OW31303   7.898   2.602   8.358  0.6132 -0.3575  0.2874
 9951SOL    HW131304   7.841   2.537   8.399 -0.8129 -0.2328 -1.3429
 9951SOL    HW231305   7.881   2.683   8.406  0.2845 -0.5796  0.5493
 9952SOL     OW31306   5.088   6.880   1.633  0.6447 -0.2646 -0.6884
 9952SOL    HW131307   5.064   6.807   1.576  1.5390  0.5353 -2.1631
 9952SOL    HW231308   5.069   6.958   1.582 -0.1608  0.5599  0.8021
 9953SOL     OW31309   0.912   4.364   7.111 -0.0185 -0.1909  0.1108
 9953SOL    HW131310   0.897   4.319   7.194 -0.7436  0.3675  0.2906
 9953SOL    HW231311   1.008   4.366   7.102  0.1093  0.4710  1.3584
 9954SOL     OW31312   7.493   4.802   0.434  0.5148 -0.1102  0.1307
 9954SOL    HW131313   7.510   4.863   0.506 -0.0476 -1.9298  1.8896
 9954SOL    HW231314   7.537   4.841   0.358  0.1710  2.4489  1.1480
 9955SOL     OW31315   1.666   1.796   0.265 -0.0049 -0.3979  0.1831
 9955SOL    HW131316   1.744   1.799   0.319 -1.0408  0.0992  1.7227
 9955SOL    HW231317   1.667   1.708   0.226  2.2380  0.2216 -1.3505
 9956SOL     OW31318   7.108   6.379   2.124  0.4236 -0.1734  0.0536
 9956SOL    HW131319   7.085   6.301   2.175  2.7775 -0.6399  0.5234
 9956SOL    HW231320   7.067   6.365   2.039 -1.3341 -0.6644  0.9410
 9957SOL     OW31321   0.327   1.561   5.790  0.2713 -0.0812  0.2252
 9957SOL    HW131322   0.332   1.656   5.782  0.9963 -0.2526 -2.0172
 9957SOL    HW231323   0.293   1.546   5.879 -0.5776  2.2562  0.3609
 9958SOL     OW31324   6.514   6.017   2.284  0.2566 -0.3872 -0.2128
 9958SOL    HW131325   6.487   6.107   2.267 -0.4086 -0.6633 -0.6254
 9958SOL    HW231326   6.525   6.013   2.379 -0.5948 -0.1204 -0.0985
 9959SOL     OW31327   8.381   8.705   0.609 -0.0214 -0.5961 -0.1104
 9959SOL    HW131328   8.380   8.674   0.699 -2.5236 -3.4020 -0.9277
 9959SOL    HW231329   8.403   8.628   0.557  1.6488  1.0047 -1.9687
 9960SOL     OW31330   0.704   1.027   6.127  0.1769 -0.0398 -0.0958
 9960SOL    HW131331   0.677   1.018   6.035  0.2446  1.9447 -0.3406
 9960SOL    HW231332   0.800   1.024   6.124  0.1644 -0.8173  0.0311
 9961SOL     OW31333   4.944   2.185   3.760  0.5433  0.0219  0.2147
 9961SOL    HW131334   4.869   2.147   3.807  2.1951  0.3785  3.4545
 9961SOL    HW231335   4.938   2.148   3.672 -2.4895 -1.2378  0.8038
 9962SOL     OW31336   0.579   3.853   3.004 -0.1548  0.3870  0.0907
 9962SOL    HW131337   0.525   3.793   2.952  2.6130 -0.9911 -1.4427
 9962SOL    HW231338   0.618   3.912   2.940  2.6726 -0.8048  0.5551
 9963SOL     OW31339   4.945   8.072   5.935 -0.3660  0.0055 -0.2018
 9963SOL    HW131340   5.026   8.100   5.891 -0.3447 -1.0303 -0.8468
 9963SOL    HW231341   4.942   7.977   5.923 -1.8471  0.0540 -0.4935
 9964SOL     OW31342   2.971   3.365   3.899  0.8474 -0.4179 -0.4940
 9964SOL    HW131343   2.916   3.290   3.874  0.0645  0.1091 -0.3647
 9964SOL    HW231344   3.047   3.359   3.840  0.3611 -0.7918 -1.0936
 9965SOL     OW31345   7.463   5.201   5.653 -0.1594  0.2128  0.3151
 9965SOL    HW131346   7.462   5.198   5.749 -1.8161 -0.5441  0.3063
 9965SOL    HW231347   7.382   5.246   5.630 -0.1692 -0.3178 -0.7443
 9966SOL     OW31348   2.722   5.493   0.095 -0.2037 -0.1914 -0.4717
 9966SOL    HW131349   2.793   5.548   0.064  0.6200 -0.0472  1.5482
 9966SOL    HW231350   2.722   5.418   0.035  1.9201 -0.3886 -0.2967
 9967SOL     OW31351   4.110   8.672   5.087  0.1135  0.0470  0.2247
 9967SOL    HW131352   4.202   8.659   5.065  0.0283  0.5818 -0.4454
 9967SOL    HW231353   4.063   8.661   5.005 -0.5083 -0.9659  0.6896
 9968SOL     OW31354   9.237   4.281   9.221 -0.2996 -0.7000  0.3046
 9968SOL    HW131355   9.144   4.303   9.229 -0.1417  0.3009 -0.4598
 9968SOL    HW231356   9.251   4.211   9.285 -1.3887 -0.2894  1.0068
 9969SOL     OW31357   4.006   0.523   3.981 -0.1417 -0.1076 -0.1789
 9969SOL    HW131358   4.096   0.556   3.977  0.1451 -0.8980 -0.6509
 9969SOL    HW231359   3.985   0.499   3.891 -1.0081  0.5179 -0.1496
 9970SOL     OW31360   7.187   4.664   3.257  0.4871  0.0032 -0.6979
 9970SOL    HW131361   7.228   4.589   3.215  0.4124  0.9779 -2.5872
 9970SOL    HW231362   7.257   4.728   3.265  0.1993  0.2957 -0.5016
 9971SOL     OW31363   4.466   3.535   7.163 -0.3646 -0.1793  0.2283
 9971SOL    HW131364   4.468   3.611   7.104 -0.3933  0.2152  0.7297
 9971SOL    HW231365   4.550   3.491   7.149  0.4232  0.9515  1.2347
 9972SOL     OW31366   4.565   6.350   7.844 -0.3765  0.5978  0.1442
 9972SOL    HW131367   4.519   6.315   7.767 -1.5248  0.3764  0.8928
 9972SOL    HW231368   4.652   6.310   7.840 -0.4875  0.4303 -0.9253
 9973SOL     OW31369   9.173   2.890   9.004  0.4209 -0.7750  0.0731
 9973SOL    HW131370   9.084   2.864   9.028 -0.6641  2.5164  0.0965
 9973SOL    HW231371   9.197   2.831   8.933 -1.5144 -2.1147  0.4486
 9974SOL     OW31372   1.987   6.820   8.391 -0.4160  0.1439  0.8206
 9974SOL    HW131373   2.026   6.756   8.451  2.3088  1.3957  0.5651
 9974SOL    HW231374   2.009   6.788   8.304 -0.5213  0.5591  0.6380
 9975SOL     OW31375   4.650   3.007   6.337 -0.1704 -0.0741  0.2235
 9975SOL    HW131376   4.702   3.053   6.272  2.1062 -1.9663  0.5631
 9975SOL    HW231377   4.671   3.049   6.420  0.0782 -0.2363  0.2422
 9976SOL     OW31378   7.087   0.723   2.295  0.1091  0.4220 -0.6226
 9976SOL    HW131379   7.111   0.802   2.344  1.0920  1.0865 -2.0828
 9976SOL    HW231380   7.133   0.652   2.339 -2.4409  0.2398  2.0079
 9977SOL     OW31381   0.377   6.989   4.034 -0.2878 -0.1637 -0.3999
 9977SOL    HW131382   0.448   6.928   4.015 -0.5015 -1.6315  2.8097
 9977SOL    HW231383   0.405   7.035   4.113 -2.1775  0.4079 -0.0105
 9978SOL     OW31384   0.381   8.876   4.460  0.1420 -0.9564 -0.1445
 9978SOL    HW131385   0.408   8.929   4.535  0.3740 -0.0981 -0.8102
 9978SOL    HW231386   0.390   8.785   4.490  0.4552 -0.6327  0.7812
 9979SOL     OW31387   0.105   9.233   3.825 -0.1040  0.0374 -0.0999
 9979SOL    HW131388   0.174   9.279   3.777  0.4589 -1.0038 -0.3129
 9979SOL    HW231389   0.136   9.231   3.916 -1.0959  1.8706  0.3137
 9980SOL     OW31390   6.269   2.296   1.748  0.1048  0.0236  0.1267
 9980SOL    HW131391   6.244   2.303   1.840  1.5872 -1.2208  0.6745
 9980SOL    HW231392   6.222   2.218   1.717  0.4149 -0.1678  0.1332
 9981SOL     OW31393   2.542   4.698   7.144  0.3960  0.4823 -0.2178
 9981SOL    HW131394   2.473   4.745   7.098 -0.1518 -0.2680 -0.1874
 9981SOL    HW231395   2.597   4.662   7.074  0.5987  0.8495 -0.2479
 9982SOL     OW31396   5.845   6.339   0.472  0.6787 -0.2571  0.0988
 9982SOL    HW131397   5.931   6.341   0.514 -0.1521 -0.8836  1.9514
 9982SOL    HW231398   5.783   6.332   0.545 -0.7972 -3.1292 -1.2692
 9983SOL     OW31399   6.281   8.587   4.076 -0.6271  0.1990 -0.0327
 9983SOL    HW131400   6.331   8.566   3.998  1.5263  1.8292  0.7984
 9983SOL    HW231401   6.347   8.614   4.140 -2.5154  1.8918  1.3313
 9984SOL     OW31402   8.898   2.527   8.290  0.4366 -0.2398  0.1696
 9984SOL    HW131403   8.893   2.616   8.325  2.2264 -0.6177  1.5385
 9984SOL    HW231404   8.834   2.478   8.341 -2.3969  0.6698 -2.2656
 9985SOL     OW31405   5.935   8.199   7.452 -0.0332 -0.4449 -0.7141
 9985SOL    HW131406   6.023   8.165   7.466  0.0623 -0.8452 -2.1215
 9985SOL    HW231407   5.877   8.129   7.480  0.0984 -0.3519 -0.2040
 9986SOL     OW31408   7.585   5.262   6.973  0.5271 -0.2947  0.3093
 9986SOL    HW131409   7.653   5.326   6.950 -0.0510  0.5983  1.0214
 9986SOL    HW231410   7.511   5.315   7.001  0.0813 -1.2893  1.0679
 9987SOL     OW31411   4.436   4.501   8.431  0.1774 -0.3961  0.2477
 9987SOL    HW131412   4.404   4.421   8.473  1.9441 -2.1586 -1.5328
 9987SOL    HW231413   4.383   4.510   8.352 -0.4752  0.6466  0.7758
 9988SOL     OW31414   5.655   0.529   3.435  0.0871  0.3547 -0.0111
 9988SOL    HW131415   5.706   0.603   3.401  0.8718  0.1643  0.7277
 9988SOL    HW231416   5.670   0.531   3.530  0.8242 -1.2580 -0.0655
 9989SOL     OW31417   0.352   5.857   1.248  0.0849  0.4964 -0.1604
 9989SOL    HW131418   0.361   5.797   1.174  1.1940 -2.2033  1.9661
 9989SOL    HW231419   0.295   5.927   1.217  1.2248 -0.0095 -3.7967
 9990SOL     OW31420   8.543   8.377   0.056  0.3526  0.4505 -0.5088
 9990SOL    HW131421   8.546   8.292   0.100 -1.5641  0.3402 -0.5061
 9990SOL    HW231422   8.496   8.361  -0.025  1.0670  1.2882 -1.1102
 9991SOL     OW31423   5.662   1.603   5.915 -0.0865 -0.3574  0.1985
 9991SOL    HW131424   5.705   1.588   5.831 -1.1278 -1.3809 -0.1767
 9991SOL    HW231425   5.675   1.521   5.963  3.5580  1.3177  2.5238
 9992SOL     OW31426   0.643   1.533   5.587  0.1246 -0.5008  0.4125
 9992SOL    HW131427   0.621   1.455   5.638  2.0225 -0.9846  0.6052
 9992SOL    HW231428   0.662   1.600   5.652 -0.0250 -0.3422  0.2910
 9993SOL     OW31429   2.739   2.882   8.502  0.0708 -0.4787  0.2187
 9993SOL    HW131430   2.773   2.944   8.438 -0.0277 -0.2283  0.4050
 9993SOL    HW231431   2.665   2.841   8.458  1.5698 -2.2270 -0.8150
 9994SOL     OW31432   1.933   2.579   1.644 -0.1659 -0.3123 -0.5879
 9994SOL    HW131433   1.906   2.494   1.609  0.5830  0.1496 -2.4284
 9994SOL    HW231434   2.025   2.586   1.620  0.3945  0.1052  1.5049
 9995SOL     OW31435   9.078   5.224   7.421 -0.4522 -0.3657  0.1881
 9995SOL    HW131436   9.036   5.243   7.505 -0.7991 -0.6053  0.0675
 9995SOL    HW231437   9.163   5.187   7.444 -0.0555  0.6456  0.4362
 9996SOL     OW31438   3.397   6.176   1.502 -0.2264 -0.5386  0.3923
 9996SOL    HW131439   3.378   6.106   1.565  2.0081 -1.3704  0.2235
 9996SOL    HW231440   3.447   6.132   1.433  1.9970  1.3671  0.6960
 9997SOL     OW31441   3.490   6.948   5.336 -0.8001 -0.0671 -0.3556
 9997SOL    HW131442   3.470   6.882   5.402 -0.5617  0.7772  0.5750
 9997SOL    HW231443   3.585   6.961   5.343 -0.6928 -0.3334 -1.2118
 9998SOL     OW31444   9.239   3.081   0.970  0.4942  0.0534  0.4546
 9998SOL    HW131445   9.262   3.159   1.020 -0.7334 -0.1437  1.4087
 9998SOL    HW231446   9.154   3.055   1.006 -0.2098 -0.4032 -1.4184
 9999SOL     OW31447   0.542   1.491   3.243  0.5564  0.3887 -0.1879
 9999SOL    HW131448   0.561   1.563   3.183  2.5616 -0.8113 -1.1052
 9999SOL    HW231449   0.611   1.495   3.309  0.2872 -0.3002  0.1516
10000SOL     OW31450   2.746   0.713   3.243  0.1911  0.5383  0.0577
10000SOL    HW131451   2.757   0.808   3.244  2.2543  0.3337  0.2392
10000SOL    HW231452   2.728   0.691   3.152 -0.4441  1.1020  0.0401
10001SOL     OW31453   3.941   0.116   0.390  0.0387 -0.1839  0.2331
10001SOL    HW131454   3.849   0.138   0.404  0.8705  3.8358  0.5148
10001SOL    HW231455   3.981   0.197   0.360  3.0605 -2.4162 -2.4783
10002SOL     OW31456   2.295   3.134   5.489  0.2246 -0.0932 -0.0823
10002SOL    HW131457   2.203   3.111   5.497  0.8178 -2.3997  1.0253
10002SOL    HW231458   2.321   3.100   5.403  0.1462  0.1519 -0.2026
10003SOL     OW31459   2.681   5.547   8.564  0.9143  0.2980 -0.2886
10003SOL    HW131460   2.592   5.555   8.528  0.3846  1.4842  1.1693
10003SOL    HW231461   2.685   5.459   8.601  0.2469  0.3346 -0.1214
10004SOL     OW31462   8.513   5.744   1.622 -0.2402 -0.6278 -0.4360
10004SOL    HW131463   8.565   5.697   1.686 -1.4596 -1.0471  0.2786
10004SOL    HW231464   8.489   5.678   1.557 -2.3566 -1.2043  0.8173
10005SOL     OW31465   1.950   3.448   7.488  0.4271  0.1209  0.5185
10005SOL    HW131466   2.027   3.392   7.489  0.4760  0.1241  2.9310
10005SOL    HW231467   1.968   3.513   7.420 -0.0290 -3.1483 -3.0943
10006SOL     OW31468   0.641   4.736   5.081  0.6045 -0.2824 -0.3468
10006SOL    HW131469   0.687   4.795   5.141 -0.4609 -0.2507  0.4643
10006SOL    HW231470   0.683   4.651   5.095  2.5473  0.3375 -1.9496
10007SOL     OW31471   1.794   8.124   5.930 -0.2167  0.2602 -0.1172
10007SOL    HW131472   1.774   8.053   5.990  0.1221 -0.0646 -0.3857
10007SOL    HW231473   1.727   8.190   5.948 -2.6884 -1.4697 -2.1839
10008SOL     OW31474   8.135   4.211   8.872 -0.0842 -0.5863  0.7695
10008SOL    HW131475   8.184   4.288   8.845  0.4936 -1.9034 -2.2771
10008SOL    HW231476   8.171   4.189   8.958  1.1562  1.3271  0.7910
10009SOL     OW31477   3.605   6.684   1.955 -0.4393  0.7966  0.1742
10009SOL    HW131478   3.601   6.629   1.876  2.0072  0.1095  0.4383
10009SOL    HW231479   3.559   6.633   2.022  1.4778 -0.9005  0.3233
10010SOL     OW31480   2.893   7.221   5.541  0.5838  0.0899 -0.1448
10010SOL    HW131481   2.844   7.213   5.459  0.0479 -0.8325  0.2447
10010SOL    HW231482   2.837   7.179   5.606  0.8280  1.1531  0.7741
10011SOL     OW31483   5.682   5.596   6.806 -0.1424 -0.0934 -0.8563
10011SOL    HW131484   5.727   5.603   6.891  0.1845 -1.5989 -0.8610
10011SOL    HW231485   5.753   5.598   6.742 -0.2656 -0.3274 -0.9997
10012SOL     OW31486   5.831   1.600   8.378 -0.0575 -0.3245  0.1286
10012SOL    HW131487   5.868   1.687   8.364  0.2051 -0.3911  0.4065
10012SOL    HW231488   5.887   1.542   8.326  1.4944 -0.7019  2.1289
10013SOL     OW31489   7.863   1.759   6.858  0.2221 -0.5404 -0.1737
10013SOL    HW131490   7.818   1.699   6.916 -0.3422 -0.9923 -1.0601
10013SOL    HW231491   7.880   1.708   6.778 -1.5177  0.8387 -1.5069
10014SOL     OW31492   4.300   2.231   6.733  0.0748  0.4192  0.1001
10014SOL    HW131493   4.233   2.265   6.792 -0.3303  0.5460 -0.4250
10014SOL    HW231494   4.285   2.277   6.651 -0.1372 -0.6175 -0.4631
10015SOL     OW31495   0.490   4.387   6.560 -0.0830  0.3497  0.5373
10015SOL    HW131496   0.520   4.347   6.641 -0.7674  0.7232  0.9842
10015SOL    HW231497   0.399   4.358   6.550  0.3680 -0.7153 -0.7641
10016SOL     OW31498   8.623   1.375   5.813 -0.7419 -0.1699  0.6942
10016SOL    HW131499   8.698   1.411   5.861  1.0829 -2.2367 -0.4174
10016SOL    HW231500   8.593   1.448   5.759  0.2884  0.7966  1.3741
10017SOL     OW31501   2.412   3.838   1.531 -0.1073  0.1249 -0.3416
10017SOL    HW131502   2.327   3.808   1.499 -0.9098 -1.4905  2.9199
10017SOL    HW231503   2.474   3.772   1.500 -0.2901  0.3549 -1.2338
10018SOL     OW31504   8.530   1.628   6.928  0.3428 -0.0754 -0.5052
10018SOL    HW131505   8.467   1.630   6.855 -0.7581 -2.4003  0.3006
10018SOL    HW231506   8.584   1.552   6.910  0.9248  0.1091  0.4454
10019SOL     OW31507   8.760   8.699   8.202  0.2301 -0.3050  0.5366
10019SOL    HW131508   8.755   8.788   8.235 -0.9456 -1.0659  2.5620
10019SOL    HW231509   8.776   8.709   8.108  1.7014  1.9897  0.9588
10020SOL     OW31510   9.094   8.350   1.714  0.0548 -0.1846  0.0272
10020SOL    HW131511   9.165   8.310   1.665  0.9546  0.5152  0.7264
10020SOL    HW231512   9.102   8.444   1.695 -0.7664 -0.1053  0.0228
10021SOL     OW31513   1.683   7.955   5.340  0.0685 -0.2214  0.1474
10021SOL    HW131514   1.737   7.900   5.397  1.3167  0.6150 -0.1885
10021SOL    HW231515   1.726   8.040   5.341 -0.3730  0.0530 -1.3567
10022SOL     OW31516   0.950   4.377   5.876 -0.9679 -0.3518 -0.4936
10022SOL    HW131517   0.999   4.458   5.890  1.1376 -1.9072  2.0849
10022SOL    HW231518   0.859   4.405   5.868 -0.2670  2.2792 -0.2240
10023SOL     OW31519   4.744   7.657   1.454  0.2270  0.7691 -0.5886
10023SOL    HW131520   4.769   7.570   1.423 -0.7369  0.3962 -0.3488
10023SOL    HW231521   4.698   7.641   1.537 -1.5609  1.3416 -1.4230
10024SOL     OW31522   7.716   0.267   5.769 -1.0297 -0.6721 -0.0377
10024SOL    HW131523   7.720   0.269   5.673  2.2312  5.1309 -0.2736
10024SOL    HW231524   7.788   0.209   5.795  0.8441  0.9201 -1.3790
10025SOL     OW31525   3.711   5.132   3.757 -0.1027  0.1190 -0.1451
10025SOL    HW131526   3.623   5.105   3.781  0.9113 -2.8630  0.6532
10025SOL    HW231527   3.708   5.142   3.662 -1.3712  0.5249 -0.0782
10026SOL     OW31528   1.556   7.222   1.510 -0.3865 -0.6361 -0.4358
10026SOL    HW131529   1.541   7.308   1.550 -1.3171 -0.8729 -0.2640
10026SOL    HW231530   1.621   7.239   1.442  0.5538 -0.0570  0.5615
10027SOL     OW31531   3.420   1.746   8.747 -0.3562 -0.0089 -0.6876
10027SOL    HW131532   3.437   1.686   8.675  0.9037  0.2874 -0.6558
10027SOL    HW231533   3.432   1.693   8.826 -2.7422 -0.6091 -0.6371
10028SOL     OW31534   6.013   3.893   5.997  0.3570 -0.6688  0.1419
10028SOL    HW131535   6.048   3.943   6.070  2.7435  1.2883 -2.1210
10028SOL    HW231536   6.068   3.814   5.992 -1.0349 -1.7813  1.4988
10029SOL     OW31537   2.911   3.835   5.531  0.2364 -0.4119 -0.1880
10029SOL    HW131538   3.000   3.820   5.562  0.4184 -1.3531 -1.0962
10029SOL    HW231539   2.876   3.747   5.516 -0.6729 -0.0354 -0.3002
10030SOL     OW31540   4.828   3.083   4.241  0.5748  0.6337  0.3716
10030SOL    HW131541   4.915   3.118   4.224  0.4733  0.5465 -0.3674
10030SOL    HW231542   4.791   3.067   4.154  0.0078  0.2108  0.6815
10031SOL     OW31543   7.847   6.017   3.987 -0.2473  0.4068  0.3425
10031SOL    HW131544   7.923   6.063   3.950 -0.5373  0.6457  0.0423
10031SOL    HW231545   7.879   5.981   4.069  0.4327 -0.1847 -0.1636
10032SOL     OW31546   8.998   7.330   9.030 -0.0289  0.1471  0.3989
10032SOL    HW131547   8.933   7.400   9.039  0.3482  0.4364  0.8813
10032SOL    HW231548   9.017   7.328   8.936 -1.5819 -0.7160  0.0666
10033SOL     OW31549   7.043   0.217   5.642  0.2418  0.4552 -0.2750
10033SOL    HW131550   7.076   0.237   5.729  0.9625  0.7969 -0.6151
10033SOL    HW231551   7.043   0.121   5.638 -1.8712  0.3460  0.8495
10034SOL     OW31552   3.938   6.174   2.341 -0.3903 -0.4314 -0.1213
10034SOL    HW131553   4.006   6.194   2.276 -0.2642  0.6484  0.3156
10034SOL    HW231554   3.988   6.151   2.420 -0.5238  0.5686  0.2602
10035SOL     OW31555   0.778   9.212   0.804 -0.0948  0.4418 -0.2600
10035SOL    HW131556   0.807   9.211   0.713  0.0206  2.3873 -0.2840
10035SOL    HW231557   0.691   9.252   0.801 -0.9772 -1.3483  0.2916
10036SOL     OW31558   7.573   1.211   7.466  0.2294 -0.5554  0.0569
10036SOL    HW131559   7.657   1.252   7.487  0.7835 -1.7685  0.3089
10036SOL    HW231560   7.593   1.154   7.392 -0.5250 -0.3742 -0.2902
10037SOL     OW31561   7.636   4.232   1.214 -0.6606 -0.0103 -0.3307
10037SOL    HW131562   7.581   4.251   1.290 -2.5667  1.2376 -1.9172
10037SOL    HW231563   7.691   4.309   1.204  0.8321 -0.8866  0.7245
10038SOL     OW31564   5.986   7.352   8.921  0.0167  0.2530 -0.5165
10038SOL    HW131565   6.057   7.334   8.982 -0.3424  0.9782  0.1266
10038SOL    HW231566   5.949   7.435   8.950 -1.7902 -0.6134 -0.1602
10039SOL     OW31567   7.234   3.668   0.798 -0.0386  0.2297 -0.2396
10039SOL    HW131568   7.168   3.674   0.868 -0.9175  0.9198 -1.0949
10039SOL    HW231569   7.273   3.581   0.809 -0.4019  0.1898  0.8838
10040SOL     OW31570   1.441   4.636   6.863  0.4102 -0.1600 -0.0871
10040SOL    HW131571   1.372   4.581   6.826 -0.3342 -0.3208  1.4539
10040SOL    HW231572   1.502   4.574   6.903  0.7576  0.0384 -0.3111
10041SOL     OW31573   0.403   5.450   7.025 -0.4205  0.0810 -0.2525
10041SOL    HW131574   0.366   5.490   6.947 -2.3338 -0.4149  0.3462
10041SOL    HW231575   0.443   5.369   6.994  0.2964  0.6802 -0.9370
10042SOL     OW31576   9.008   6.423   9.110 -0.1422  0.2981 -0.6656
10042SOL    HW131577   8.958   6.374   9.045 -0.1613  0.8693 -1.0924
10042SOL    HW231578   9.008   6.367   9.187 -0.8371 -0.0256 -0.8862
10043SOL     OW31579   1.478   0.733   5.713  0.0484  0.3334 -0.0850
10043SOL    HW131580   1.464   0.642   5.685  0.6462 -0.3481  1.7053
10043SOL    HW231581   1.573   0.745   5.710  0.0561  0.5227  0.7527
10044SOL     OW31582   8.795   6.724   1.962  0.0773 -0.6196  0.5281
10044SOL    HW131583   8.820   6.638   1.929  1.2268  0.1136 -0.5971
10044SOL    HW231584   8.750   6.766   1.889  0.0201 -0.0429  0.8886
10045SOL     OW31585   2.999   1.578   4.952  0.4070 -0.0106  0.2491
10045SOL    HW131586   3.035   1.516   5.016  0.2386 -1.0192 -0.6056
10045SOL    HW231587   3.004   1.531   4.869 -4.5462 -1.0220  0.2304
10046SOL     OW31588   8.568   3.712   6.356  0.2589  0.0361 -0.4194
10046SOL    HW131589   8.642   3.765   6.326 -0.7697  1.6614 -0.2012
10046SOL    HW231590   8.600   3.672   6.437  0.7614  1.1023 -0.0662
10047SOL     OW31591   9.249   5.741   7.196  0.5747  0.0220  0.0639
10047SOL    HW131592   9.210   5.823   7.163  1.2717  0.3078 -0.0540
10047SOL    HW231593   9.321   5.722   7.136  0.2488 -0.8380 -0.0704
10048SOL     OW31594   0.801   7.133   7.405 -0.5500 -0.1485  0.0113
10048SOL    HW131595   0.743   7.137   7.481 -1.1729 -1.1015 -0.3973
10048SOL    HW231596   0.835   7.222   7.396 -1.4031  0.2601  0.6839
10049SOL     OW31597   5.790   3.127   0.027 -0.0473  0.3613 -0.3528
10049SOL    HW131598   5.767   3.067   0.098  0.6366  0.2595 -0.2132
10049SOL    HW231599   5.883   3.110   0.010 -0.1760  0.4657 -1.1974
10050SOL     OW31600   3.373   0.656   5.376 -0.4696 -0.3954  0.0453
10050SOL    HW131601   3.403   0.603   5.450  1.1144  1.1769  0.5902
10050SOL    HW231602   3.312   0.599   5.329 -0.6213 -1.8429  1.8980
10051SOL     OW31603   0.190   2.588   0.846 -0.1794 -0.2043  0.0181
10051SOL    HW131604   0.193   2.505   0.799 -1.6831 -0.1668 -0.1750
10051SOL    HW231605   0.137   2.570   0.923 -1.1387  0.7390 -0.3968
10052SOL     OW31606   7.599   1.547   8.243 -0.2184  0.0963  0.0658
10052SOL    HW131607   7.574   1.633   8.274 -0.3671 -0.2761  0.9969
10052SOL    HW231608   7.537   1.529   8.172 -0.9037  0.3002  0.5967
10053SOL     OW31609   7.931   1.701   3.472 -0.3445  0.6778 -0.4293
10053SOL    HW131610   7.922   1.729   3.564  2.1283  0.6488 -0.1255
10053SOL    HW231611   7.875   1.624   3.466 -0.8463  0.8906  0.9436
10054SOL     OW31612   5.751   9.261   4.680  0.3103  0.2575  0.1966
10054SOL    HW131613   5.711   9.342   4.712 -0.6087  0.4864 -1.4039
10054SOL    HW231614   5.814   9.289   4.614 -0.1081 -0.3202 -0.4682
10055SOL     OW31615   4.377   5.402   6.057 -0.1002 -0.7257  0.5402
10055SOL    HW131616   4.296   5.379   6.011 -1.2009  0.6664  1.6963
10055SOL    HW231617   4.403   5.486   6.020 -1.0809  0.4927  2.4110
10056SOL     OW31618   7.147   3.184   7.889  0.3838 -0.2942 -0.3805
10056SOL    HW131619   7.084   3.114   7.905 -0.9211  0.2345 -2.7091
10056SOL    HW231620   7.150   3.234   7.971 -0.4694 -1.6649  0.5219
10057SOL     OW31621   1.819   9.267   7.678  0.0797  0.1867 -0.3188
10057SOL    HW131622   1.750   9.202   7.691  1.3577 -1.3313 -0.8118
10057SOL    HW231623   1.836   9.302   7.765 -0.3717 -0.3985  0.0138
10058SOL     OW31624   3.088   4.855   4.107  0.5459  0.5961 -0.5508
10058SOL    HW131625   3.104   4.918   4.176  0.3305 -1.1628  1.1925
10058SOL    HW231626   3.027   4.899   4.048  0.0091  1.8250  0.8533
10059SOL     OW31627   0.949   8.970   7.602 -0.1840 -0.1163 -0.2238
10059SOL    HW131628   0.969   8.885   7.563  0.1675 -2.0070  3.6312
10059SOL    HW231629   0.856   8.966   7.622 -0.1999  0.4697 -0.1736
10060SOL     OW31630   5.352   3.385   8.539  0.2514 -0.5815  0.1462
10060SOL    HW131631   5.388   3.472   8.523 -1.6247 -0.0181 -1.3755
10060SOL    HW231632   5.258   3.399   8.550 -0.1674 -2.4531 -0.6364
10061SOL     OW31633   2.368   2.635   8.575 -0.3821 -0.0227  0.3788
10061SOL    HW131634   2.443   2.623   8.632  1.6602  0.5637 -2.0153
10061SOL    HW231635   2.357   2.551   8.530  0.1614  0.4688 -0.7164
10062SOL     OW31636   7.168   4.888   5.673  0.2307 -0.1023  0.1884
10062SOL    HW131637   7.189   4.980   5.687  0.6893  0.0576 -1.4070
10062SOL    HW231638   7.247   4.851   5.633 -0.3700 -0.9180 -0.2682
10063SOL     OW31639   0.796   6.279   7.351  0.2222 -0.0196 -0.5891
10063SOL    HW131640   0.851   6.272   7.429  3.3222  0.8618 -2.4811
10063SOL    HW231641   0.790   6.190   7.317 -0.2725 -0.2532  0.1093
10064SOL     OW31642   2.714   3.549   2.235 -0.2529  0.1795 -0.6086
10064SOL    HW131643   2.664   3.553   2.317  0.0150 -1.1109 -0.3593
10064SOL    HW231644   2.745   3.639   2.222  0.2685  0.2879  1.0812
10065SOL     OW31645   3.504   3.225   3.938  0.8582 -0.4403 -0.2524
10065SOL    HW131646   3.441   3.173   3.989  0.5254 -0.9654 -1.1878
10065SOL    HW231647   3.584   3.223   3.991  0.6174 -1.2405  0.1094
10066SOL     OW31648   2.353   0.841   3.775 -0.4436 -0.4615  0.4184
10066SOL    HW131649   2.311   0.908   3.720 -0.8935 -0.7160  0.4484
10066SOL    HW231650   2.280   0.795   3.816 -0.1428 -1.1457  0.1973
10067SOL     OW31651   0.448   8.279   5.687  0.4260 -0.0961 -0.0554
10067SOL    HW131652   0.524   8.228   5.660  0.9020  1.0685 -0.9753
10067SOL    HW231653   0.481   8.367   5.702 -0.4403  0.0405  1.2074
10068SOL     OW31654   3.392   8.815   7.207  0.5234  0.0440  0.0796
10068SOL    HW131655   3.355   8.882   7.149  1.6953  0.9562  0.3511
10068SOL    HW231656   3.329   8.743   7.203 -0.8370  1.1848 -0.1506
10069SOL     OW31657   4.485   5.593   7.757 -0.2482  0.1601  0.3114
10069SOL    HW131658   4.442   5.512   7.783 -0.1767 -0.0720 -0.2799
10069SOL    HW231659   4.467   5.602   7.664  2.0075 -0.6039 -0.2600
10070SOL     OW31660   2.485   0.547   1.795  0.5452  0.0768  0.1229
10070SOL    HW131661   2.549   0.585   1.854  0.1265  0.0406  0.6092
10070SOL    HW231662   2.504   0.586   1.710 -0.8895  2.7010  0.8858
10071SOL     OW31663   9.054   8.356   0.117 -0.1200 -0.1409 -0.4536
10071SOL    HW131664   9.047   8.328   0.208 -1.3604 -0.4734 -0.6474
10071SOL    HW231665   9.141   8.396   0.112  0.0071 -0.2051  0.8483
10072SOL     OW31666   9.196   1.974   8.300  0.2658  0.0196 -0.0173
10072SOL    HW131667   9.209   2.066   8.276 -1.0978  0.6923  1.6087
10072SOL    HW231668   9.205   1.972   8.395  2.1901 -1.9306 -0.1581
10073SOL     OW31669   1.508   3.038   9.131  0.9074 -0.1785 -0.3839
10073SOL    HW131670   1.480   3.128   9.143  1.3734  0.1990 -1.8895
10073SOL    HW231671   1.567   3.020   9.205 -1.0470 -0.0883  1.2901
10074SOL     OW31672   7.262   7.123   7.961 -0.2470 -0.8290 -0.4951
10074SOL    HW131673   7.337   7.140   8.017  0.8078 -1.8026 -1.5747
10074SOL    HW231674   7.295   7.133   7.872 -1.7127 -0.0450 -0.9891
10075SOL     OW31675   2.448   8.925   7.299 -0.6795 -0.3330 -0.0829
10075SOL    HW131676   2.434   8.984   7.224  1.3434 -0.7937 -0.8892
10075SOL    HW231677   2.458   8.984   7.374  1.1260  0.4007 -0.8486
10076SOL     OW31678   6.934   4.844   4.346  0.0524  0.0522  0.7570
10076SOL    HW131679   6.916   4.797   4.428 -0.2408  0.6055  1.0122
10076SOL    HW231680   6.861   4.904   4.336  0.5201  0.5900  0.5252
10077SOL     OW31681   5.764   0.621   0.155  0.0081 -0.2825 -0.4968
10077SOL    HW131682   5.723   0.705   0.176 -0.1015 -0.3797 -0.3123
10077SOL    HW231683   5.856   0.632   0.176 -0.3680 -0.9283  1.7970
10078SOL     OW31684   1.781   7.602   4.076  0.0295 -0.2489 -0.0596
10078SOL    HW131685   1.871   7.633   4.088  0.3492 -1.4210  0.8215
10078SOL    HW231686   1.727   7.680   4.089  0.8756  0.3116  0.2103
10079SOL     OW31687   4.449   0.677   9.083 -0.0878 -0.4764  0.2542
10079SOL    HW131688   4.447   0.717   9.170  0.4196 -0.9987  0.5106
10079SOL    HW231689   4.363   0.636   9.074  0.1388 -1.1006  0.8434
10080SOL     OW31690   0.078   2.280   2.363  0.4050  0.5959 -0.2071
10080SOL    HW131691   0.020   2.250   2.292 -1.3575 -0.0541  1.4261
10080SOL    HW231692   0.086   2.204   2.420  0.2864  1.6372  1.2313
10081SOL     OW31693   8.711   1.754   1.772  0.2280 -0.8048  0.0655
10081SOL    HW131694   8.757   1.676   1.803  0.6725 -0.1032  1.2324
10081SOL    HW231695   8.645   1.772   1.839 -0.2574 -0.5109 -0.4860
10082SOL     OW31696   2.016   5.854   4.428  0.3646  0.8099  0.0835
10082SOL    HW131697   2.054   5.935   4.393  0.2782  0.8225  0.0175
10082SOL    HW231698   2.027   5.862   4.523  1.3953  0.3828  0.0134
10083SOL     OW31699   1.364   5.643   6.884 -0.7128 -0.0184 -0.3198
10083SOL    HW131700   1.436   5.686   6.930 -1.9200  1.2437  0.4429
10083SOL    HW231701   1.290   5.647   6.945 -1.6627 -0.5846 -1.3951
10084SOL     OW31702   2.594   4.972   4.866 -0.2728 -0.2749  0.1528
10084SOL    HW131703   2.527   4.965   4.797  0.1058 -0.0005 -0.2515
10084SOL    HW231704   2.546   5.002   4.943 -0.2557  2.4036 -0.7676
10085SOL     OW31705   5.520   4.259   1.903 -0.3644  0.1859 -0.0157
10085SOL    HW131706   5.562   4.275   1.819  0.8799  0.9755  0.7406
10085SOL    HW231707   5.504   4.346   1.940  0.8483 -0.1596  1.3968
10086SOL     OW31708   4.949   6.760   1.838 -0.3197  0.2513 -0.3003
10086SOL    HW131709   4.862   6.783   1.808  0.3436  0.3741 -2.2878
10086SOL    HW231710   5.008   6.810   1.781  1.0607  0.5077  1.2662
10087SOL     OW31711   9.252   6.173   4.776  0.0421 -0.0110 -0.5813
10087SOL    HW131712   9.175   6.208   4.822  0.1406  0.4574 -0.7662
10087SOL    HW231713   9.317   6.159   4.846 -0.3780 -0.8973 -0.3524
10088SOL     OW31714   3.768   2.339   0.299  0.6103 -0.2215 -0.5378
10088SOL    HW131715   3.742   2.249   0.320 -0.1837  0.6759  2.9601
10088SOL    HW231716   3.700   2.394   0.337  2.0245  1.9452 -0.9259
10089SOL     OW31717   7.938   2.543   0.526  0.0525  0.4476 -0.4011
10089SOL    HW131718   8.022   2.579   0.498 -0.0551  1.5252  0.5842
10089SOL    HW231719   7.873   2.608   0.497 -0.2702  0.4403  0.2860
10090SOL     OW31720   7.107   3.995   3.032 -0.1172 -0.1396 -0.1653
10090SOL    HW131721   7.165   4.016   3.104  0.2301  0.3442 -0.5780
10090SOL    HW231722   7.019   3.999   3.069 -0.0200  1.2763 -0.0409
10091SOL     OW31723   5.392   7.532   6.755 -0.1457  0.1949 -0.3536
10091SOL    HW131724   5.479   7.560   6.785 -0.7860 -0.5397  2.5555
10091SOL    HW231725   5.384   7.569   6.667  2.7951  0.9108 -0.4438
10092SOL     OW31726   3.542   1.321   0.640 -0.7029  0.0795 -0.2827
10092SOL    HW131727   3.621   1.368   0.613 -1.5647  1.5984 -0.2436
10092SOL    HW231728   3.575   1.249   0.695  0.7490 -0.3028 -1.5754
10093SOL     OW31729   7.431   3.572   6.055  0.0521  0.1591  0.3897
10093SOL    HW131730   7.514   3.619   6.066 -0.9572  1.8520  1.3174
10093SOL    HW231731   7.407   3.588   5.964 -0.5234  2.0202  0.8087
10094SOL     OW31732   7.317   1.612   5.773  0.8530 -0.1669  1.0001
10094SOL    HW131733   7.264   1.667   5.715  1.0079  0.7181  1.6793
10094SOL    HW231734   7.326   1.663   5.853 -1.1483 -2.2208  2.6691
10095SOL     OW31735   5.979   1.058   2.280 -0.6617 -0.1914 -0.2990
10095SOL    HW131736   5.977   1.017   2.367 -1.1377 -0.3772 -0.3904
10095SOL    HW231737   6.054   1.018   2.236  0.5658  1.0810  0.5806
10096SOL     OW31738   5.366   3.492   1.927 -0.7188  0.3814  0.0623
10096SOL    HW131739   5.360   3.530   1.839 -2.0226  0.1398  0.0284
10096SOL    HW231740   5.312   3.550   1.982 -1.8681 -0.7845  0.2102
10097SOL     OW31741   6.159   8.280   6.826  0.2153  0.1294 -0.0525
10097SOL    HW131742   6.094   8.332   6.872  0.8419  0.9552 -0.0806
10097SOL    HW231743   6.122   8.266   6.738 -0.7642 -1.0422  0.5131
10098SOL     OW31744   7.323   1.980   7.944  0.1785 -0.4370  0.2385
10098SOL    HW131745   7.273   2.019   7.872 -0.2522  0.4388  0.9935
10098SOL    HW231746   7.410   1.965   7.908  0.0725  0.3306 -0.3567
10099SOL     OW31747   8.181   1.292   5.701 -0.0081  0.3839 -0.0806
10099SOL    HW131748   8.204   1.250   5.784  0.0881  1.8129  0.6442
10099SOL    HW231749   8.245   1.258   5.638 -0.6245 -1.3951  0.1906
10100SOL     OW31750   2.386   8.671   2.107  0.1495  0.4504 -0.3451
10100SOL    HW131751   2.437   8.749   2.082 -0.2957  1.0384  0.5513
10100SOL    HW231752   2.352   8.691   2.194 -2.1755  0.3616 -1.1674
10101SOL     OW31753   6.235   1.666   3.292  0.3629 -0.5304  0.1094
10101SOL    HW131754   6.309   1.670   3.352 -0.7044 -1.6683  1.6041
10101SOL    HW231755   6.159   1.654   3.349 -1.1677  1.7847 -1.2797
10102SOL     OW31756   7.312   1.607   2.113 -0.3056  0.2168 -0.2690
10102SOL    HW131757   7.332   1.700   2.110 -1.7818  0.5236 -1.6051
10102SOL    HW231758   7.216   1.603   2.118 -0.2378 -1.2257  0.4009
10103SOL     OW31759   3.938   3.098   8.586 -0.4991  0.0573  0.1137
10103SOL    HW131760   4.028   3.066   8.584 -0.4032  0.2616  0.7502
10103SOL    HW231761   3.901   3.062   8.666 -0.5631  1.0455  0.5475
10104SOL     OW31762   1.232   3.688   2.887 -0.0077  0.3357 -0.0744
10104SOL    HW131763   1.285   3.640   2.951  1.1882  1.6331 -0.0396
10104SOL    HW231764   1.296   3.730   2.830 -1.0178  1.4538 -0.4167
10105SOL     OW31765   2.846   3.146   3.810  0.2499  0.3051  0.2053
10105SOL    HW131766   2.790   3.124   3.736 -0.2026 -3.7027  1.5021
10105SOL    HW231767   2.919   3.084   3.804  2.1536  2.3119  1.1642
10106SOL     OW31768   8.477   3.335   0.187 -0.0516  0.4302 -0.0104
10106SOL    HW131769   8.451   3.251   0.148  0.4562 -0.3125  1.1902
10106SOL    HW231770   8.573   3.336   0.180 -0.1171  1.3372 -0.8483
10107SOL     OW31771   3.757   2.232   6.019  0.3741 -0.6403  0.3703
10107SOL    HW131772   3.728   2.171   6.087  2.7746 -0.1013  1.9856
10107SOL    HW231773   3.741   2.318   6.057  0.9175 -0.3236 -0.1199
10108SOL     OW31774   6.189   1.731   7.524  0.0112 -0.1999 -0.0278
10108SOL    HW131775   6.105   1.685   7.532 -0.2202  0.3397  0.7623
10108SOL    HW231776   6.198   1.749   7.431  0.5492 -2.6434 -0.5078
10109SOL     OW31777   9.257   8.691   0.458 -0.3870  0.2400  0.3441
10109SOL    HW131778   9.237   8.687   0.552  0.3937 -2.3887  0.4501
10109SOL    HW231779   9.179   8.656   0.416  0.5438 -1.8176  0.2532
10110SOL     OW31780   3.687   8.266   7.364 -0.5468  0.1544  0.4519
10110SOL    HW131781   3.770   8.244   7.405 -0.1755  4.0578  2.3010
10110SOL    HW231782   3.627   8.196   7.390  1.8680 -2.2814 -0.1839
10111SOL     OW31783   4.170   0.189   2.259  0.8015  0.1036  0.1307
10111SOL    HW131784   4.098   0.136   2.227  1.7094  0.1171 -2.1318
10111SOL    HW231785   4.129   0.270   2.289 -0.2577 -0.4909  0.3339
10112SOL     OW31786   5.710   5.250   5.464 -0.2766  0.4107 -0.1545
10112SOL    HW131787   5.735   5.209   5.381 -0.6002  2.9553 -1.6222
10112SOL    HW231788   5.793   5.267   5.508 -0.1413 -1.8275  0.5768
10113SOL     OW31789   8.044   3.442   8.735 -0.0146  0.2140 -0.2097
10113SOL    HW131790   8.068   3.527   8.697  1.9516  0.1957  0.8588
10113SOL    HW231791   7.949   3.438   8.726 -0.1967  2.6403 -0.0424
10114SOL     OW31792   8.688   8.898   2.355  0.5216 -0.1100  0.2308
10114SOL    HW131793   8.656   8.808   2.359  1.1326 -0.3166  0.5986
10114SOL    HW231794   8.663   8.935   2.440  0.5891 -0.0460  0.2225
10115SOL     OW31795   5.075   1.855   2.826 -0.6862 -0.0956  0.0515
10115SOL    HW131796   5.064   1.949   2.814 -0.9302 -0.2482 -1.0701
10115SOL    HW231797   5.155   1.833   2.778 -0.0565 -0.3091  1.1727
10116SOL     OW31798   8.373   6.947   5.921  0.0761  0.5496 -0.1375
10116SOL    HW131799   8.344   7.026   5.876  0.7379 -0.0827 -1.7541
10116SOL    HW231800   8.361   6.877   5.857  1.2261 -0.3703  0.6078
10117SOL     OW31801   6.269   5.465   0.179 -0.0344 -0.4374 -0.6484
10117SOL    HW131802   6.261   5.533   0.112 -0.3358  0.8269  0.6166
10117SOL    HW231803   6.363   5.461   0.196 -0.1545  1.1277  0.6547
10118SOL     OW31804   4.498   6.204   4.993 -0.5060  0.4086 -0.3444
10118SOL    HW131805   4.456   6.191   5.077 -0.1070 -2.8270 -0.5161
10118SOL    HW231806   4.448   6.274   4.951 -0.8128  2.0058  2.4230
10119SOL     OW31807   3.080   1.024   0.580  0.3456 -0.2579  0.0186
10119SOL    HW131808   3.154   1.058   0.529 -0.2576 -1.0266 -1.4548
10119SOL    HW231809   3.029   1.101   0.603 -0.0987  0.0546 -1.7935
10120SOL     OW31810   3.759   3.840   7.359 -0.6344  0.1357  0.5157
10120SOL    HW131811   3.761   3.934   7.376  0.6394  0.8362 -2.6952
10120SOL    HW231812   3.846   3.809   7.386 -0.0161  0.5027 -0.9330
10121SOL     OW31813   8.114   6.228   7.117 -0.4761 -0.0777 -0.2269
10121SOL    HW131814   8.186   6.292   7.119  0.2936 -0.8979  1.7667
10121SOL    HW231815   8.036   6.278   7.140  0.2406  0.1177  2.1047
10122SOL     OW31816   9.228   0.586   4.843 -0.4403 -0.5639 -0.6045
10122SOL    HW131817   9.150   0.579   4.788  0.0991  0.4642 -1.5383
10122SOL    HW231818   9.211   0.528   4.917 -2.2497 -0.0694 -0.5969
10123SOL     OW31819   7.806   4.752   9.047 -0.1584 -0.3505  0.5750
10123SOL    HW131820   7.875   4.688   9.062  0.7714  0.3599 -0.4452
10123SOL    HW231821   7.763   4.722   8.966  0.1069  0.1556  0.2420
10124SOL     OW31822   7.358   4.954   8.930 -0.2199  0.4236  0.4479
10124SOL    HW131823   7.318   4.880   8.884  1.1082  0.8176 -1.4212
10124SOL    HW231824   7.453   4.939   8.922  0.1492  3.0821 -1.3790
10125SOL     OW31825   1.790   4.935   4.501  0.1735 -0.0739  0.0248
10125SOL    HW131826   1.812   4.879   4.426 -0.0599 -1.5247  1.0048
10125SOL    HW231827   1.781   4.875   4.575 -1.9884  1.0354  0.7465
10126SOL     OW31828   2.232   4.088   3.026 -0.3733  0.0514 -0.0224
10126SOL    HW131829   2.274   4.094   2.940 -1.0469  0.3012 -0.3365
10126SOL    HW231830   2.241   4.176   3.063  1.8518 -0.5569  1.1090
10127SOL     OW31831   6.704   9.123   3.595 -0.2398 -0.4602 -0.7503
10127SOL    HW131832   6.653   9.044   3.575  1.0664 -2.0243  1.5121
10127SOL    HW231833   6.652   9.167   3.663  0.0501 -0.5580 -0.4610
10128SOL     OW31834   2.153   5.377   4.391  0.0790 -0.0030  0.0238
10128SOL    HW131835   2.084   5.414   4.446  0.0557  0.8052 -0.5165
10128SOL    HW231836   2.232   5.382   4.445 -0.4468 -1.9818  1.0712
10129SOL     OW31837   7.381   7.280   2.823  0.2086  0.3993 -0.1665
10129SOL    HW131838   7.465   7.262   2.781  0.6023 -0.3972  0.9104
10129SOL    HW231839   7.355   7.365   2.789  1.8367  1.0321  0.0790
10130SOL     OW31840   4.914   8.343   7.791 -0.1883 -0.0389  0.0961
10130SOL    HW131841   4.980   8.362   7.724 -1.0945 -0.9453 -1.1159
10130SOL    HW231842   4.898   8.426   7.834 -0.0429  0.7254 -1.2755
10131SOL     OW31843   7.534   3.421   3.385 -0.1871  0.2294  0.0660
10131SOL    HW131844   7.591   3.362   3.433  0.7509 -1.5117 -2.9349
10131SOL    HW231845   7.447   3.404   3.420  0.4565 -0.7189  1.2904
10132SOL     OW31846   1.258   5.857   8.769 -0.8072 -0.5623 -0.6405
10132SOL    HW131847   1.210   5.940   8.768  1.0118  0.6140  1.1524
10132SOL    HW231848   1.222   5.809   8.844 -1.0665 -0.9372 -0.9930
10133SOL     OW31849   1.572   5.182   8.320  0.1101  0.0850  0.4932
10133SOL    HW131850   1.544   5.258   8.372 -0.2181 -0.4140  1.0559
10133SOL    HW231851   1.558   5.210   8.229  1.1618  1.1497  0.6310
10134SOL     OW31852   5.708   5.694   4.752 -0.1377 -0.2416  0.0688
10134SOL    HW131853   5.642   5.689   4.683 -2.0013 -1.4154  1.8251
10134SOL    HW231854   5.670   5.647   4.826  2.1537  0.1538  1.6270
10135SOL     OW31855   0.758   8.113   5.871  0.7265  0.2835 -0.0900
10135SOL    HW131856   0.722   8.112   5.782  1.0559  1.6825 -0.2649
10135SOL    HW231857   0.800   8.028   5.880 -0.6388 -0.4961 -0.7015
10136SOL     OW31858   3.413   3.300   4.782 -0.1077  0.0188  0.3656
10136SOL    HW131859   3.346   3.353   4.738 -0.4815 -1.9784 -1.6785
10136SOL    HW231860   3.388   3.301   4.874 -1.6702  1.1242 -0.0365
10137SOL     OW31861   4.149   0.167   7.998 -0.5540 -0.2147 -0.1677
10137SOL    HW131862   4.159   0.262   7.999 -0.2631 -0.2424 -0.2503
10137SOL    HW231863   4.208   0.136   8.068 -2.1598 -0.1991  1.2487
10138SOL     OW31864   5.668   8.480   0.377  0.2927  0.0111 -0.3080
10138SOL    HW131865   5.752   8.442   0.404  0.5739  0.9569  0.1750
10138SOL    HW231866   5.602   8.424   0.418  0.6667 -0.8733 -0.8768
10139SOL     OW31867   3.844   0.458   1.421 -0.3970 -0.2907  0.7748
10139SOL    HW131868   3.779   0.432   1.355  0.4487 -1.3421  0.3092
10139SOL    HW231869   3.798   0.521   1.476 -1.2418  0.3845 -0.6234
10140SOL     OW31870   3.338   0.163   5.830  0.0670  0.0404 -0.0222
10140SOL    HW131871   3.386   0.238   5.866 -0.7836  0.2823  0.6287
10140SOL    HW231872   3.300   0.195   5.749  1.3706 -0.2888 -0.7922
10141SOL     OW31873   2.449   8.919   5.260  0.4929 -0.2534  0.0364
10141SOL    HW131874   2.463   9.006   5.297  1.0514 -0.8044  1.1913
10141SOL    HW231875   2.505   8.916   5.182  0.6198  0.3543  0.1053
10142SOL     OW31876   0.723   1.563   3.909 -0.1132 -0.5189  0.3665
10142SOL    HW131877   0.754   1.559   4.000 -0.9775  0.5453  0.7368
10142SOL    HW231878   0.778   1.501   3.862  1.2954 -0.0655  1.3525
10143SOL     OW31879   2.618   9.130   1.444 -0.5252 -0.2163 -0.5227
10143SOL    HW131880   2.601   9.180   1.524  1.6271  0.6169 -0.5340
10143SOL    HW231881   2.699   9.167   1.410  0.2472 -2.6318 -1.4447
10144SOL     OW31882   4.252   7.670   3.268 -0.1594  0.3572 -0.7052
10144SOL    HW131883   4.199   7.677   3.347 -0.2585 -1.9546 -0.5100
10144SOL    HW231884   4.191   7.687   3.196  0.0494  3.0378 -0.3517
10145SOL     OW31885   0.740   6.227   3.132  0.7014  0.4612 -0.6510
10145SOL    HW131886   0.738   6.145   3.082  0.0127 -0.1371  0.3155
10145SOL    HW231887   0.804   6.212   3.202 -1.1354 -0.1954  0.9904
10146SOL     OW31888   3.800   8.724   9.041 -0.6157  0.2244 -0.4230
10146SOL    HW131889   3.872   8.661   9.044 -0.8180  0.0291  0.7154
10146SOL    HW231890   3.728   8.677   8.999 -0.7882 -0.3406  0.4850
10147SOL     OW31891   7.930   8.484   5.625  0.6646 -0.7296 -0.1305
10147SOL    HW131892   7.933   8.532   5.542  2.5014  0.9988  0.8258
10147SOL    HW231893   7.839   8.492   5.654 -0.1449 -1.8484 -2.1893
10148SOL     OW31894   3.056   5.315   1.911 -0.3694  0.2726 -0.4988
10148SOL    HW131895   3.082   5.223   1.913  1.9743  0.8743  0.6886
10148SOL    HW231896   2.961   5.312   1.898 -0.1307 -2.2098 -2.6114
10149SOL     OW31897   2.159   1.717   4.338  0.0899 -0.7557 -0.2022
10149SOL    HW131898   2.200   1.750   4.418 -0.2060  0.4986 -0.5305
10149SOL    HW231899   2.220   1.652   4.304  0.9792 -0.1685  0.2290
10150SOL     OW31900   0.267   5.673   1.959  0.5507 -0.1782  0.1752
10150SOL    HW131901   0.272   5.577   1.963 -2.7420 -0.4490  0.7609
10150SOL    HW231902   0.273   5.693   1.865 -1.8403 -1.3145 -0.2914
10151SOL     OW31903   1.418   0.231   4.464  0.8677  0.2320  0.5605
10151SOL    HW131904   1.359   0.156   4.470  0.4684  0.5522  0.7385
10151SOL    HW231905   1.426   0.248   4.371  1.4559 -0.4089  0.4844
10152SOL     OW31906   4.764   4.700   1.573  0.3051 -0.2232  0.2811
10152SOL    HW131907   4.852   4.736   1.589  0.3209 -0.4887  0.8014
10152SOL    HW231908   4.730   4.681   1.660  0.0767 -0.9431  0.0391
10153SOL     OW31909   5.108   5.723   6.897 -0.0580  0.1065 -0.7010
10153SOL    HW131910   5.181   5.780   6.873 -0.1888  0.3250 -0.5787
10153SOL    HW231911   5.132   5.637   6.861 -0.1636  0.3845 -1.4303
10154SOL     OW31912   4.564   7.420   1.994  0.1761 -0.0511  0.6593
10154SOL    HW131913   4.575   7.375   2.078 -1.3157 -1.0338  0.3569
10154SOL    HW231914   4.470   7.434   1.986  0.3556  0.6420 -0.5590
10155SOL     OW31915   8.165   1.613   3.790 -0.3462 -0.1630  0.0651
10155SOL    HW131916   8.143   1.697   3.751 -1.2712 -0.2728  0.3427
10155SOL    HW231917   8.247   1.629   3.838  0.2933  0.2025 -1.0997
10156SOL     OW31918   1.460   1.965   2.551 -0.1710 -0.3461 -0.0635
10156SOL    HW131919   1.438   1.983   2.642 -0.0965 -0.3680 -0.0416
10156SOL    HW231920   1.477   1.871   2.548  2.5377  0.0641  0.4578
10157SOL     OW31921   0.692   4.058   2.465  0.0987 -0.0598 -0.1435
10157SOL    HW131922   0.705   4.153   2.457 -1.1615 -0.0248 -2.8325
10157SOL    HW231923   0.616   4.050   2.523  0.2934  0.5408  0.2092
10158SOL     OW31924   3.288   5.395   4.846 -0.6884  0.3370  0.1139
10158SOL    HW131925   3.331   5.365   4.926  0.1443  0.8411 -0.1243
10158SOL    HW231926   3.260   5.315   4.802  3.3951 -0.4176 -1.5760
10159SOL     OW31927   1.506   2.121   3.812 -0.2867 -0.2897  0.0613
10159SOL    HW131928   1.562   2.198   3.814 -1.8819  0.9162 -0.1053
10159SOL    HW231929   1.506   2.090   3.903 -2.3485  1.9998  0.9381
10160SOL     OW31930   2.386   5.734   6.516  0.3657  0.0001 -0.5625
10160SOL    HW131931   2.374   5.812   6.569 -0.8660  0.5290 -1.5487
10160SOL    HW231932   2.479   5.713   6.524  0.3363  0.4150  1.2568
10161SOL     OW31933   2.763   5.608   1.797 -0.5001  0.2189 -0.3681
10161SOL    HW131934   2.671   5.635   1.789 -0.2619  1.1193 -0.1134
10161SOL    HW231935   2.805   5.641   1.717 -0.5395 -0.8682 -0.8683
10162SOL     OW31936   4.611   7.061   2.000 -0.4259 -0.4081  0.1174
10162SOL    HW131937   4.535   7.112   2.030 -0.7707 -1.3695  0.9190
10162SOL    HW231938   4.617   6.988   2.061  2.2184  0.5472  1.1354
10163SOL     OW31939   5.890   3.498   6.387  0.6344  0.1042 -0.3714
10163SOL    HW131940   5.901   3.492   6.482  0.1567  0.4249 -0.2917
10163SOL    HW231941   5.796   3.515   6.375  0.2821 -2.0557 -1.0005
10164SOL     OW31942   6.687   5.978   1.261  0.2504 -0.2651  0.3486
10164SOL    HW131943   6.742   5.969   1.182  2.0427  0.5020  1.4297
10164SOL    HW231944   6.666   6.072   1.264  1.8547  0.0972  1.7716
10165SOL     OW31945   8.061   8.666   8.062  0.3541  0.0575 -0.4826
10165SOL    HW131946   8.019   8.673   7.977  0.5400  0.3104 -0.5550
10165SOL    HW231947   8.151   8.639   8.042 -0.4570 -3.1985 -0.1957
10166SOL     OW31948   6.819   7.508   1.240  0.1184  0.3362  0.6325
10166SOL    HW131949   6.843   7.596   1.208 -0.5681  0.5734  0.7538
10166SOL    HW231950   6.887   7.451   1.205  0.3974  0.8699  0.2803
10167SOL     OW31951   4.827   6.444   1.360  0.0117 -0.1458 -0.0562
10167SOL    HW131952   4.758   6.508   1.342  0.5322  0.1730 -1.0301
10167SOL    HW231953   4.824   6.431   1.454  0.9740  2.6488  0.4672
10168SOL     OW31954   0.184   3.681   2.495 -0.1004 -0.1681  0.8688
10168SOL    HW131955   0.114   3.734   2.455 -1.1462 -1.8242  0.3775
10168SOL    HW231956   0.239   3.655   2.421 -0.0639 -0.4283  0.9881
10169SOL     OW31957   1.751   8.762   7.617 -0.2048 -0.2359 -0.4006
10169SOL    HW131958   1.722   8.748   7.527 -3.0918  1.0199  0.2134
10169SOL    HW231959   1.684   8.720   7.671 -0.4388  1.9538  1.1652
10170SOL     OW31960   4.644   9.169   2.392 -0.5827 -0.1999 -0.0713
10170SOL    HW131961   4.623   9.246   2.445 -0.3429  0.4213 -0.8526
10170SOL    HW231962   4.735   9.181   2.368 -0.6170 -0.6034 -0.4130
10171SOL     OW31963   3.798   4.671   0.381 -0.9020  0.6236 -0.3006
10171SOL    HW131964   3.852   4.600   0.416  0.1541  2.2452  1.5872
10171SOL    HW231965   3.741   4.696   0.454 -2.3176  0.7415 -1.4121
10172SOL     OW31966   4.387   7.524   0.668 -0.3734 -0.7149 -0.0685
10172SOL    HW131967   4.311   7.473   0.640 -0.9485 -0.3872  0.8424
10172SOL    HW231968   4.463   7.474   0.636 -0.9594 -1.1045 -0.8844
10173SOL     OW31969   7.982   5.260   7.556 -0.6040  0.2428  0.1944
10173SOL    HW131970   8.000   5.354   7.561 -1.4452  0.4060  0.3635
10173SOL    HW231971   7.956   5.235   7.645 -1.7861  0.1617 -0.1580
10174SOL     OW31972   8.264   3.047   1.886 -0.3479 -0.0656  0.0560
10174SOL    HW131973   8.344   3.054   1.938 -1.7039  0.8266  2.1667
10174SOL    HW231974   8.262   3.127   1.834  1.0517 -0.9921 -1.5229
10175SOL     OW31975   1.829   4.082   1.947 -0.2100  0.3985  0.0652
10175SOL    HW131976   1.839   4.063   2.040 -1.3939 -0.6955 -0.0006
10175SOL    HW231977   1.855   4.000   1.903  0.3365  0.9049 -0.5703
10176SOL     OW31978   5.798   9.027   1.171 -0.2223  0.2306 -0.4054
10176SOL    HW131979   5.822   9.110   1.131 -3.0491  1.2117 -0.2803
10176SOL    HW231980   5.839   9.030   1.258  3.5891 -0.6894 -1.9759
10177SOL     OW31981   5.912   8.019   6.104 -0.1502 -0.6971 -0.0249
10177SOL    HW131982   5.821   8.048   6.094  0.2514  0.5603 -0.3138
10177SOL    HW231983   5.944   8.006   6.015  0.3951  0.3999 -0.0094
10178SOL     OW31984   7.592   9.058   8.612 -0.1488  0.0638  0.3393
10178SOL    HW131985   7.622   9.040   8.523  0.5155 -0.0070  0.5691
10178SOL    HW231986   7.500   9.032   8.612  0.3286 -1.7509  0.2001
10179SOL     OW31987   3.433   0.750   0.860  0.1202  0.3294 -0.0880
10179SOL    HW131988   3.389   0.688   0.918  0.6054  1.0314  1.0406
10179SOL    HW231989   3.416   0.836   0.898  1.3321  0.7192 -0.3855
10180SOL     OW31990   2.576   4.062   3.058  0.3050  0.7428  0.0810
10180SOL    HW131991   2.583   3.967   3.055 -0.4400  0.6906 -1.2435
10180SOL    HW231992   2.616   4.087   3.141  0.1261 -0.7547  0.6564
10181SOL     OW31993   4.450   4.366   2.270 -0.2951 -0.1139  0.0167
10181SOL    HW131994   4.482   4.312   2.198  0.0286  0.3581 -0.1991
10181SOL    HW231995   4.355   4.366   2.260 -0.4526 -2.1522  1.1080
10182SOL     OW31996   4.422   6.283   8.497  0.0627 -0.6890 -0.3220
10182SOL    HW131997   4.439   6.377   8.486 -1.5258 -0.4122 -0.5841
10182SOL    HW231998   4.352   6.278   8.562 -0.7754 -1.6096 -1.2624
10183SOL     OW31999   8.907   6.274   5.743  0.0520 -0.0309 -0.2704
10183SOL    HW132000   8.964   6.345   5.771 -0.1952 -0.4107  1.2761
10183SOL    HW232001   8.840   6.269   5.811 -0.0880 -1.5672 -0.4866
10184SOL     OW32002   3.039   2.483   3.940  0.2376 -0.9337  0.1376
10184SOL    HW132003   2.975   2.515   3.876  1.0951  2.9995  0.9473
10184SOL    HW232004   2.996   2.493   4.024  0.5769 -2.0755  0.4588
10185SOL     OW32005   0.876   3.729   3.111  0.0338 -0.3586 -0.5452
10185SOL    HW132006   0.847   3.750   3.022  0.3788  0.4716 -0.4731
10185SOL    HW232007   0.937   3.800   3.134  1.0429 -1.3152 -0.1738
10186SOL     OW32008   1.168   8.596   5.852 -0.5027  0.0293 -0.6405
10186SOL    HW132009   1.092   8.654   5.848 -0.4490  0.0432 -3.3308
10186SOL    HW232010   1.239   8.651   5.885 -1.1925  0.5922 -0.0822
10187SOL     OW32011   9.003   3.228   3.910 -0.3931 -0.2415  0.1350
10187SOL    HW132012   9.086   3.183   3.928  1.0612  2.1983 -0.0007
10187SOL    HW232013   9.004   3.302   3.970 -1.3042  1.2040 -1.5624
10188SOL     OW32014   0.185   2.807   3.283  0.3342  0.3433 -0.2350
10188SOL    HW132015   0.105   2.791   3.232  1.0957  1.3278 -1.8051
10188SOL    HW232016   0.227   2.721   3.288 -1.0736 -0.3264  1.1507
10189SOL     OW32017   6.182   7.685   7.773  0.2141 -0.4139 -0.5401
10189SOL    HW132018   6.106   7.629   7.763 -0.6499  0.7746 -0.8732
10189SOL    HW232019   6.257   7.625   7.770 -0.7278 -1.7076  0.7640
10190SOL     OW32020   2.421   3.669   7.488  0.1341 -0.2629 -0.1632
10190SOL    HW132021   2.459   3.728   7.423  0.1776  1.1257  1.0859
10190SOL    HW232022   2.394   3.725   7.559 -1.2347 -1.6045  0.4303
10191SOL     OW32023   7.129   5.806   4.891  0.1837 -0.0683  0.2912
10191SOL    HW132024   7.174   5.739   4.943 -0.1085 -1.0845 -0.7184
10191SOL    HW232025   7.037   5.799   4.918 -0.1328 -1.2339 -0.9487
10192SOL     OW32026   1.891   5.593   8.813  0.1530  0.0395  0.3168
10192SOL    HW132027   1.910   5.670   8.866 -0.2258 -0.0483  0.5836
10192SOL    HW232028   1.954   5.597   8.741 -0.7833  1.3937 -0.4825
10193SOL     OW32029   4.624   9.256   3.316 -0.4823  0.4559 -0.9302
10193SOL    HW132030   4.640   9.288   3.227 -1.3854 -0.7990 -1.5878
10193SOL    HW232031   4.552   9.194   3.306 -0.1700 -0.2014  0.5812
10194SOL     OW32032   3.202   4.465   1.508  0.2593  0.1436 -0.6201
10194SOL    HW132033   3.125   4.468   1.451 -0.1780 -0.5934 -0.0768
10194SOL    HW232034   3.185   4.393   1.568  0.7997  0.7926  0.3323
10195SOL     OW32035   8.628   3.838   8.333  0.2175 -0.5510  0.0819
10195SOL    HW132036   8.682   3.838   8.412  0.6088  1.1949 -0.1399
10195SOL    HW232037   8.592   3.749   8.328  2.1914 -1.4410  0.8251
10196SOL     OW32038   7.361   1.858   2.006  0.3077  0.5445 -0.6598
10196SOL    HW132039   7.421   1.921   1.968 -1.0760  1.2465 -1.7654
10196SOL    HW232040   7.277   1.905   2.012 -0.0659 -0.2541  1.2151
10197SOL     OW32041   8.085   5.507   7.600 -0.1057  0.1912  0.5234
10197SOL    HW132042   8.059   5.534   7.688 -0.4031  2.7161 -0.2414
10197SOL    HW232043   8.180   5.505   7.602  0.0121  2.5289  0.3984
10198SOL     OW32044   5.483   9.079   6.504 -0.3410  0.0029 -0.7286
10198SOL    HW132045   5.479   9.161   6.553  2.0160 -0.2159 -0.0258
10198SOL    HW232046   5.576   9.070   6.482 -0.7650 -1.8208 -1.9745
10199SOL     OW32047   1.684   6.460   1.272  0.1699  0.0877 -0.7019
10199SOL    HW132048   1.595   6.492   1.289 -0.6392 -1.7734 -1.0944
10199SOL    HW232049   1.728   6.464   1.357 -1.1465 -1.3439  0.0950
10200SOL     OW32050   8.721   0.227   6.782  0.0547  0.4704 -0.2180
10200SOL    HW132051   8.695   0.139   6.755 -1.4106  0.3660  1.3505
10200SOL    HW232052   8.661   0.285   6.735 -0.6028  0.4569  0.5775
10201SOL     OW32053   2.938   4.248   5.417  0.3623 -0.6725  0.0207
10201SOL    HW132054   2.872   4.313   5.440  1.0989  0.8978 -2.0502
10201SOL    HW232055   3.013   4.300   5.386  2.1504 -2.4255  1.1544
10202SOL     OW32056   8.089   0.530   7.624  0.1146 -0.0837 -0.3498
10202SOL    HW132057   8.049   0.564   7.704  0.8715 -0.3424  0.1554
10202SOL    HW232058   8.059   0.589   7.555 -0.1561  0.4356  0.2022
10203SOL     OW32059   5.511   5.054   4.810  0.0565 -0.3032  0.7927
10203SOL    HW132060   5.553   5.136   4.783 -0.2847 -0.9281 -1.9355
10203SOL    HW232061   5.455   5.079   4.883 -1.0838  2.2615 -0.7899
10204SOL     OW32062   0.085   1.858   7.248  0.0911  0.3622  0.5227
10204SOL    HW132063   0.097   1.952   7.264 -1.2870  0.1969  2.8839
10204SOL    HW232064  -0.007   1.849   7.223  0.1324 -0.4073  0.6251
10205SOL     OW32065   6.366   4.037   2.099 -0.0630  0.4618 -0.2922
10205SOL    HW132066   6.305   4.104   2.132 -0.9545 -0.2002 -0.5597
10205SOL    HW232067   6.393   4.070   2.013 -0.8061  0.3066 -0.5975
10206SOL     OW32068   3.830   4.218   2.248  0.0154 -0.3681 -0.1521
10206SOL    HW132069   3.818   4.158   2.173  1.6847  0.4409 -1.1159
10206SOL    HW232070   3.810   4.164   2.324 -0.5706 -1.5597 -1.1003
10207SOL     OW32071   0.856   2.979   7.235 -0.5405 -0.0617  0.2684
10207SOL    HW132072   0.932   3.030   7.261 -0.6842  0.5955 -0.5417
10207SOL    HW232073   0.890   2.891   7.218  0.3645  0.5966 -1.6265
10208SOL     OW32074   3.223   1.472   5.554 -0.2025 -0.5281  0.4218
10208SOL    HW132075   3.225   1.376   5.560 -0.2887 -0.7056 -1.6427
10208SOL    HW232076   3.295   1.493   5.494 -0.0782  0.7223  0.9825
10209SOL     OW32077   7.515   0.318   4.290  0.3907 -0.2771 -0.1039
10209SOL    HW132078   7.467   0.377   4.232 -0.6622 -0.5179  0.4974
10209SOL    HW232079   7.584   0.373   4.328  0.9889 -0.0812 -1.4303
10210SOL     OW32080   7.340   2.736   7.974 -0.1221 -0.2508 -0.2512
10210SOL    HW132081   7.424   2.691   7.986 -0.2270 -0.3994 -0.0587
10210SOL    HW232082   7.345   2.813   8.032 -0.4471 -0.7166  0.4178
10211SOL     OW32083   6.514   5.579   7.228  0.3539 -0.0920  0.1357
10211SOL    HW132084   6.503   5.490   7.261  0.1018 -0.1434 -0.0895
10211SOL    HW232085   6.438   5.594   7.172  1.2429 -0.3434 -1.1891
10212SOL     OW32086   8.966   8.093   6.395 -0.1893 -0.5349  0.3588
10212SOL    HW132087   9.022   8.138   6.458 -1.1292 -0.5594  1.2399
10212SOL    HW232088   9.027   8.041   6.342  0.6237 -0.5280  1.2562
10213SOL     OW32089   2.391   3.849   6.040 -0.1938  0.2712  0.2882
10213SOL    HW132090   2.404   3.917   6.106 -0.9345  1.2822 -0.5715
10213SOL    HW232091   2.329   3.887   5.978 -1.3505 -1.5297  0.2571
10214SOL     OW32092   1.998   0.569   6.499  0.1134 -0.2024 -0.1483
10214SOL    HW132093   1.904   0.577   6.483 -0.1224 -3.4125 -0.9229
10214SOL    HW232094   2.035   0.541   6.415  1.1566 -2.6351  1.0370
10215SOL     OW32095   2.161   7.529   5.246  0.0991  0.2450 -0.7023
10215SOL    HW132096   2.212   7.564   5.173  0.7216 -1.4041 -1.0809
10215SOL    HW232097   2.141   7.439   5.221  1.9426 -1.0184  1.9241
10216SOL     OW32098   5.611   0.427   1.103  0.8745  0.4953 -0.0818
10216SOL    HW132099   5.530   0.414   1.053  0.8019  1.4090 -0.2178
10216SOL    HW232100   5.605   0.516   1.137  2.1596  0.8518 -0.7160
10217SOL     OW32101   5.369   8.002   5.619 -0.4917  0.7518 -0.0073
10217SOL    HW132102   5.391   7.911   5.639 -1.2863  0.8706  1.6012
10217SOL    HW232103   5.355   8.003   5.524  3.5761  0.1225 -0.8028
10218SOL     OW32104   4.029   1.862   0.609 -0.5261 -0.0173  0.0300
10218SOL    HW132105   4.081   1.850   0.529 -2.9746  0.7822 -1.7979
10218SOL    HW232106   4.032   1.956   0.626 -1.0538 -0.0099  0.1065
10219SOL     OW32107   2.061   5.385   5.822 -0.0801 -0.4574  0.0563
10219SOL    HW132108   2.026   5.356   5.738 -0.8357 -1.7728  0.7918
10219SOL    HW232109   2.155   5.373   5.815 -0.2835 -2.3868  0.0165
10220SOL     OW32110   5.747   4.273   1.339 -0.1335 -0.0876 -0.2519
10220SOL    HW132111   5.773   4.281   1.247  0.4246  0.6024 -0.0368
10220SOL    HW232112   5.817   4.224   1.380 -0.6862 -0.9560 -0.3115
10221SOL     OW32113   1.904   2.438   8.506  0.1731  0.2939 -0.3502
10221SOL    HW132114   1.871   2.356   8.471  2.6846 -0.9273 -0.0534
10221SOL    HW232115   1.965   2.471   8.440  1.1019  0.5927  0.6234
10222SOL     OW32116   8.465   6.181   1.025  0.1001 -0.1209  0.2003
10222SOL    HW132117   8.452   6.088   1.040 -1.0506  0.0009  0.0100
10222SOL    HW232118   8.378   6.220   1.031  0.4390  0.8197 -0.5542
10223SOL     OW32119   3.102   8.716   5.613 -0.0587 -0.2259 -0.0504
10223SOL    HW132120   3.046   8.725   5.536  0.1684 -0.0424 -0.1950
10223SOL    HW232121   3.190   8.709   5.578  0.0728  0.1279  0.1999
10224SOL     OW32122   3.128   6.613   0.548  0.0404  0.0744 -0.2909
10224SOL    HW132123   3.086   6.542   0.499 -1.6941  0.1797  0.9217
10224SOL    HW232124   3.173   6.664   0.482 -0.7748 -0.7504 -1.5389
10225SOL     OW32125   7.423   7.934   1.137 -0.0574  0.3252  0.1301
10225SOL    HW132126   7.472   7.857   1.107  0.5442  1.1581 -1.1288
10225SOL    HW232127   7.369   7.959   1.061 -0.0948  1.2547  0.4473
10226SOL     OW32128   9.126   1.369   1.984 -0.0812  0.0974 -0.0286
10226SOL    HW132129   9.054   1.316   2.019 -1.3128  0.5150 -1.7523
10226SOL    HW232130   9.179   1.391   2.060 -1.9379  0.0054  1.3759
10227SOL     OW32131   5.009   3.246   7.556  0.4707  0.2492  0.2150
10227SOL    HW132132   5.084   3.281   7.604 -0.3396 -0.3393  1.9823
10227SOL    HW232133   4.958   3.198   7.621 -2.0119  1.4801 -0.6482
10228SOL     OW32134   4.042   3.204   1.512  0.0623 -0.1086 -0.3271
10228SOL    HW132135   4.075   3.131   1.564  0.3393  0.6016  0.5335
10228SOL    HW232136   3.958   3.173   1.478 -0.9906 -0.0243  1.9942
10229SOL     OW32137   0.260   5.699   0.177 -0.3345  0.2001 -0.2167
10229SOL    HW132138   0.265   5.656   0.262 -0.3612  1.6093  0.5381
10229SOL    HW232139   0.306   5.640   0.117 -0.4270 -0.8763  0.7386
10230SOL     OW32140   7.443   2.391   0.503 -0.4034  0.7355 -0.3406
10230SOL    HW132141   7.484   2.354   0.581 -0.7256  1.6643  0.2794
10230SOL    HW232142   7.401   2.472   0.533  0.4392  1.7267 -1.6743
10231SOL     OW32143   3.373   6.783   5.028 -0.0806 -0.0825 -0.1516
10231SOL    HW132144   3.441   6.739   5.079 -0.5418  0.0758  0.6301
10231SOL    HW232145   3.347   6.720   4.962  0.0813 -0.5427  0.2188
10232SOL     OW32146   1.196   0.631   2.894 -0.1273 -0.3267  0.4329
10232SOL    HW132147   1.279   0.592   2.867  0.8688  1.7496  0.2591
10232SOL    HW232148   1.222   0.711   2.941 -2.0049 -0.4301  1.7419
10233SOL     OW32149   1.773   5.765   8.439  0.1454  0.0048 -0.1310
10233SOL    HW132150   1.803   5.677   8.460 -1.4613 -0.2755  1.2348
10233SOL    HW232151   1.750   5.762   8.346  0.2133 -0.9818 -0.1257
10234SOL     OW32152   2.577   7.312   0.072 -0.6595  0.1016  1.0380
10234SOL    HW132153   2.579   7.229   0.024 -1.0608 -0.1408  1.4413
10234SOL    HW232154   2.609   7.376   0.009 -2.6552  0.0624 -0.0901
10235SOL     OW32155   4.181   1.177   6.386  0.3539 -0.0374  0.8376
10235SOL    HW132156   4.232   1.177   6.467 -0.1155 -1.5132  1.1488
10235SOL    HW232157   4.121   1.251   6.396  0.1129 -0.3787  1.9496
10236SOL     OW32158   7.838   4.016   1.187  0.5994  0.0130  0.2014
10236SOL    HW132159   7.882   4.047   1.108 -0.0040  0.5665  0.0760
10236SOL    HW232160   7.766   4.077   1.200 -0.2510 -0.9858  0.3069
10237SOL     OW32161   2.784   2.540   8.206 -0.2242 -0.3636 -0.3755
10237SOL    HW132162   2.705   2.557   8.258  0.6186  0.8834  0.5367
10237SOL    HW232163   2.752   2.530   8.116 -1.4673 -0.3732  0.0482
10238SOL     OW32164   3.914   7.420   0.147 -0.0024  0.0835 -0.5915
10238SOL    HW132165   3.849   7.465   0.092  0.2920  2.4558  0.8435
10238SOL    HW232166   3.976   7.488   0.171  1.5690 -1.5575  0.2407
10239SOL     OW32167   0.803   0.606   5.776  0.2721  0.2145 -0.3180
10239SOL    HW132168   0.719   0.572   5.746 -0.2449  2.7159 -2.0107
10239SOL    HW232169   0.802   0.698   5.750  3.0146  0.6489  0.7979
10240SOL     OW32170   1.546   8.917   0.700 -0.0036 -0.3124  0.0764
10240SOL    HW132171   1.610   8.946   0.636  0.0849  1.9476  1.0658
10240SOL    HW232172   1.486   8.991   0.708 -1.8321 -1.7595  0.3352
10241SOL     OW32173   0.597   4.097   2.164 -0.9476  0.0148 -0.3427
10241SOL    HW132174   0.586   4.191   2.158  0.5022  0.2099 -0.4157
10241SOL    HW232175   0.654   4.084   2.240 -1.5310 -0.8486 -0.0250
10242SOL     OW32176   6.263   7.091   0.040  0.4341 -0.0025  0.1155
10242SOL    HW132177   6.253   7.078   0.134  1.2243  0.8687  0.3349
10242SOL    HW232178   6.183   7.137   0.013  1.2948  2.0558  0.8553
10243SOL     OW32179   1.067   6.425   9.232 -0.3169  0.0119  0.3928
10243SOL    HW132180   1.131   6.385   9.172 -0.5918  0.3917 -0.1671
10243SOL    HW232181   1.070   6.518   9.210 -1.9997 -0.1236 -0.5574
10244SOL     OW32182   1.615   2.859   8.719 -0.1710 -0.7749  0.0761
10244SOL    HW132183   1.535   2.807   8.729 -0.6237 -0.7869 -2.8187
10244SOL    HW232184   1.662   2.817   8.647  2.3135 -0.5372  1.4558
10245SOL     OW32185   8.627   4.888   6.522  0.2484  0.2183 -0.1017
10245SOL    HW132186   8.703   4.835   6.548  0.4895  1.2614  1.4595
10245SOL    HW232187   8.596   4.847   6.441  1.1609 -1.5423  0.3775
10246SOL     OW32188   9.096   6.003   5.220 -0.5442  0.0667 -0.0926
10246SOL    HW132189   9.021   6.060   5.203  0.6416  2.2435  1.4845
10246SOL    HW232190   9.114   6.014   5.313 -0.0519 -2.7550  0.2490
10247SOL     OW32191   1.925   1.589   3.247 -0.1831  0.0639  0.1884
10247SOL    HW132192   1.869   1.592   3.325 -0.9070  1.2040 -0.3529
10247SOL    HW232193   2.008   1.554   3.280 -0.6282  0.0539  1.3742
10248SOL     OW32194   1.583   7.489   6.879  0.0195  0.4398  0.4820
10248SOL    HW132195   1.613   7.401   6.858  0.6936  0.2644  2.0354
10248SOL    HW232196   1.492   7.492   6.848  0.4551 -0.2570 -0.9646
10249SOL     OW32197   5.742   1.998   6.479 -0.5748  0.3569  0.6622
10249SOL    HW132198   5.745   2.075   6.536  0.2320  0.1362  0.9281
10249SOL    HW232199   5.755   1.924   6.538  0.4634  0.1347  0.1774
10250SOL     OW32200   8.660   3.262   8.055  0.6572  0.3283  0.3848
10250SOL    HW132201   8.698   3.197   7.997  1.1894  0.9892 -0.0158
10250SOL    HW232202   8.674   3.226   8.143 -1.1393 -1.2126  0.1087
10251SOL     OW32203   4.107   2.268   6.920  0.0649  0.6581 -0.1373
10251SOL    HW132204   4.061   2.334   6.971 -0.6608  0.1946 -0.1694
10251SOL    HW232205   4.101   2.188   6.973  3.9344  1.2903  1.5972
10252SOL     OW32206   5.373   1.719   7.130 -0.7179 -0.0978  0.1371
10252SOL    HW132207   5.396   1.795   7.182 -0.0491  0.2335 -0.6252
10252SOL    HW232208   5.456   1.675   7.113 -0.6960  0.6456 -1.9341
10253SOL     OW32209   7.888   7.630   3.380  0.5375  0.3973  0.1564
10253SOL    HW132210   7.974   7.609   3.346  0.6701  1.6796 -0.3464
10253SOL    HW232211   7.849   7.545   3.401  1.4444 -0.2641 -0.7562
10254SOL     OW32212   3.775   1.755   7.191  0.1984  0.1638 -0.1491
10254SOL    HW132213   3.858   1.755   7.144  0.4847 -1.9390  0.2423
10254SOL    HW232214   3.712   1.721   7.127 -0.1487  0.7373 -0.1155
10255SOL     OW32215   0.923   6.282   4.551 -0.0287  0.1618 -0.3959
10255SOL    HW132216   0.871   6.219   4.600 -0.3925  0.0704 -0.9026
10255SOL    HW232217   1.014   6.260   4.572 -0.1842  0.2747  0.4278
10256SOL     OW32218   2.857   5.091   0.721 -0.1447  0.0715 -0.1298
10256SOL    HW132219   2.849   5.137   0.804 -2.6544 -1.4270  0.5650
10256SOL    HW232220   2.782   5.123   0.669  0.4857 -0.1653 -1.2114
10257SOL     OW32221   5.732   0.411   2.068 -0.4674  0.0831 -0.0471
10257SOL    HW132222   5.714   0.365   1.986  1.4302 -0.9471  0.0402
10257SOL    HW232223   5.715   0.503   2.049 -1.2019 -0.2841 -1.2343
10258SOL     OW32224   5.749   7.912   7.031  0.2959 -0.3551  0.0143
10258SOL    HW132225   5.740   7.953   7.117 -0.3335 -2.6580  1.1193
10258SOL    HW232226   5.779   7.824   7.049  0.5127 -0.7910 -2.1777
10259SOL     OW32227   9.028   1.141   3.494 -0.0988 -0.3802  0.3484
10259SOL    HW132228   8.997   1.227   3.467  2.2833 -0.2150 -2.3134
10259SOL    HW232229   8.953   1.102   3.539 -1.6985  2.5304  0.4949
10260SOL     OW32230   2.919   7.812   4.551  0.3697 -0.1407  0.0025
10260SOL    HW132231   2.978   7.744   4.584  1.4906  1.7167  2.2023
10260SOL    HW232232   2.883   7.776   4.471  3.4026 -2.0159 -0.7055
10261SOL     OW32233   7.597   2.315   3.321  0.3985  0.2482  0.0902
10261SOL    HW132234   7.526   2.379   3.323  0.8641  0.7588  0.4905
10261SOL    HW232235   7.660   2.350   3.259  0.2678 -0.2451 -0.3271
10262SOL     OW32236   5.777   8.377   3.981  0.1877  0.0879  0.2744
10262SOL    HW132237   5.787   8.472   3.974  0.1241  0.0109 -1.0417
10262SOL    HW232238   5.699   8.366   4.036 -0.7478  0.8373 -0.8444
10263SOL     OW32239   1.246   4.694   3.426  0.5271  0.2068  0.1242
10263SOL    HW132240   1.236   4.599   3.429 -0.6852  0.3358  1.3628
10263SOL    HW232241   1.203   4.720   3.345 -1.1494 -0.1392  0.8593
10264SOL     OW32242   4.412   7.554   7.363 -0.0695  0.0510 -0.6879
10264SOL    HW132243   4.338   7.585   7.415  0.4650 -0.3675  0.3590
10264SOL    HW232244   4.458   7.493   7.421  0.8979  0.0383 -1.4400
10265SOL     OW32245   9.060   7.596   7.774  0.2083 -0.3476  0.1632
10265SOL    HW132246   8.977   7.566   7.810  0.3905 -2.0834 -0.7091
10265SOL    HW232247   9.112   7.516   7.767  1.7732  0.6299  0.2222
10266SOL     OW32248   8.965   2.484   8.871 -0.5850  0.1283 -0.9980
10266SOL    HW132249   9.000   2.557   8.820  0.8299  0.5084  0.4216
10266SOL    HW232250   8.910   2.525   8.937  1.6294  0.1858  0.9546
10267SOL     OW32251   2.731   3.793   4.469  0.2357  0.0214  0.3859
10267SOL    HW132252   2.685   3.847   4.533  2.0122  0.2193  1.5337
10267SOL    HW232253   2.670   3.721   4.451 -1.6668  1.6879 -0.2548
10268SOL     OW32254   2.332   8.710   5.092  0.2976 -0.2558  0.1714
10268SOL    HW132255   2.353   8.783   5.150  1.3688 -0.7785  0.4550
10268SOL    HW232256   2.289   8.645   5.148  1.7957 -0.9799  0.5256
10269SOL     OW32257   8.752   7.963   4.077 -0.0247  0.0447 -0.1909
10269SOL    HW132258   8.699   8.027   4.125  0.6533  0.9386 -0.6243
10269SOL    HW232259   8.828   8.012   4.046  1.4399 -1.3650  0.9940
10270SOL     OW32260   2.391   5.505   8.537  0.3339 -0.4702  0.3426
10270SOL    HW132261   2.425   5.438   8.596  1.4968 -1.2817 -1.1945
10270SOL    HW232262   2.338   5.456   8.474  1.1538  0.0359 -0.7655
10271SOL     OW32263   2.495   0.815   9.059  0.2942 -0.0434  0.1691
10271SOL    HW132264   2.564   0.787   9.119  0.1356 -1.1409 -0.1369
10271SOL    HW232265   2.514   0.908   9.041 -0.4414  0.7328  2.9817
10272SOL     OW32266   0.929   6.464   4.221 -0.0056  0.3563 -0.1953
10272SOL    HW132267   0.855   6.433   4.274  0.4629  0.0320  0.2855
10272SOL    HW232268   0.997   6.398   4.234 -0.0839 -0.0718 -1.7123
10273SOL     OW32269   8.837   8.963   2.136  0.3038 -0.1932 -0.9375
10273SOL    HW132270   8.760   8.955   2.080  0.3604  0.0060 -1.0451
10273SOL    HW232271   8.810   8.926   2.220  0.4511 -1.2135 -1.3216
10274SOL     OW32272   6.578   2.953   5.682 -0.0352 -0.4028  0.6912
10274SOL    HW132273   6.548   2.891   5.615 -0.3678 -0.0328  0.4928
10274SOL    HW232274   6.582   2.901   5.762 -0.2112 -0.7042  0.5086
10275SOL     OW32275   2.907   6.571   5.993  0.4828  0.3138  0.5962
10275SOL    HW132276   2.824   6.543   5.955 -0.2543  0.0182  2.2978
10275SOL    HW232277   2.970   6.565   5.922 -0.6807 -0.8161 -0.3871
10276SOL     OW32278   5.920   3.914   3.131 -0.3169  0.1468  0.2259
10276SOL    HW132279   5.893   3.950   3.215 -0.1883  0.7139  0.0262
10276SOL    HW232280   5.846   3.931   3.073 -0.9998 -1.4959  0.5507
10277SOL     OW32281   9.059   4.219   4.277 -0.2805  0.1006  0.3827
10277SOL    HW132282   9.086   4.249   4.363  0.0965  2.1987 -0.4113
10277SOL    HW232283   9.140   4.192   4.234 -0.4064 -0.4584  0.4844
10278SOL     OW32284   8.693   6.296   5.944  0.0926 -0.0118  0.0944
10278SOL    HW132285   8.640   6.326   5.870 -1.7633 -2.1904  0.4278
10278SOL    HW232286   8.640   6.318   6.021 -0.2235 -1.8813  0.4588
10279SOL     OW32287   9.177   6.438   1.691  0.7012  0.2493 -0.1714
10279SOL    HW132288   9.114   6.497   1.649 -0.4565 -0.9971 -0.2693
10279SOL    HW232289   9.172   6.460   1.784 -0.8739 -0.6587  0.0035
10280SOL     OW32290   8.378   8.417   6.713 -0.3291  0.2286 -0.1336
10280SOL    HW132291   8.299   8.408   6.765 -0.6454  2.4092 -0.1222
10280SOL    HW232292   8.426   8.335   6.726  0.2808  1.0695  4.7052
10281SOL     OW32293   6.952   7.349   1.721  0.1061 -0.5653 -0.4812
10281SOL    HW132294   6.914   7.410   1.658  1.3313  0.4560 -0.2768
10281SOL    HW232295   7.007   7.292   1.668  2.9277  1.6876 -0.2242
10282SOL     OW32296   0.425   5.272   3.629 -0.5007 -0.5638 -0.2187
10282SOL    HW132297   0.505   5.292   3.581 -0.1234 -0.6303  0.3667
10282SOL    HW232298   0.356   5.276   3.563 -0.3817  2.0051 -0.2951
10283SOL     OW32299   6.109   3.305   0.104  0.0839 -0.0342  0.4604
10283SOL    HW132300   6.084   3.222   0.064 -1.4058  0.7666 -0.3601
10283SOL    HW232301   6.185   3.334   0.054  0.9146 -1.0773  1.0496
10284SOL     OW32302   3.289   2.965   2.952  0.0199 -0.2986  0.1503
10284SOL    HW132303   3.237   3.008   2.885 -0.6264 -1.2664  0.0083
10284SOL    HW232304   3.284   2.872   2.930  0.4689 -0.5531  1.0734
10285SOL     OW32305   3.585   7.954   7.813  0.0205  0.1157 -0.0037
10285SOL    HW132306   3.593   7.952   7.908 -0.1892  0.7317  0.0277
10285SOL    HW232307   3.498   7.989   7.796  0.0988  0.1157 -0.4222
10286SOL     OW32308   0.370   2.433   2.672 -0.5120  0.8263  0.3444
10286SOL    HW132309   0.368   2.453   2.579 -2.6262 -2.0428 -0.3658
10286SOL    HW232310   0.279   2.418   2.695  0.1174 -0.1419  2.4786
10287SOL     OW32311   0.825   3.341   3.359 -0.5810  0.1144 -0.4700
10287SOL    HW132312   0.774   3.299   3.429  0.5982 -0.1431  0.2799
10287SOL    HW232313   0.829   3.433   3.383 -0.4508  0.0815 -0.3607
10288SOL     OW32314   9.238   4.672   5.822 -0.1888 -0.4426  0.1030
10288SOL    HW132315   9.301   4.663   5.894 -1.3231 -2.2588  0.9380
10288SOL    HW232316   9.292   4.691   5.746  1.2306 -0.3950  1.0749
10289SOL     OW32317   2.301   0.003   6.794 -0.3560 -0.2779 -0.1725
10289SOL    HW132318   2.258   0.084   6.768 -0.3434  0.2196  1.3240
10289SOL    HW232319   2.376   0.030   6.846 -0.3093 -1.2512  0.2857
10290SOL     OW32320   1.522   1.006   5.970  0.0477 -0.4998 -0.1094
10290SOL    HW132321   1.532   0.991   5.876 -1.7293  2.2261 -0.8301
10290SOL    HW232322   1.482   0.925   6.002  0.6545 -1.4748 -1.6671
10291SOL     OW32323   7.713   4.835   1.882  0.0026  0.2145  0.0010
10291SOL    HW132324   7.744   4.754   1.840 -0.1007 -0.4298  1.1169
10291SOL    HW232325   7.619   4.838   1.861 -0.4771 -1.1134  1.6579
10292SOL     OW32326   2.660   3.071   3.271 -0.0032 -0.3681 -0.5152
10292SOL    HW132327   2.572   3.062   3.235 -0.3432 -0.7926  0.3707
10292SOL    HW232328   2.695   2.981   3.272  0.0012 -0.3646  0.1769
10293SOL     OW32329   6.613   8.538   8.718  0.2284 -0.4078  0.0319
10293SOL    HW132330   6.675   8.466   8.725 -0.1884 -0.8872 -1.0018
10293SOL    HW232331   6.533   8.497   8.684 -0.4820  0.2915  0.8258
10294SOL     OW32332   3.212   9.155   4.465 -0.0067 -0.7443 -0.3070
10294SOL    HW132333   3.160   9.077   4.446 -0.9034 -0.1120 -0.5110
10294SOL    HW232334   3.162   9.201   4.532  0.2382 -0.0685 -0.5805
10295SOL     OW32335   6.864   4.501   0.423 -0.0722 -0.0374  0.0062
10295SOL    HW132336   6.958   4.513   0.414 -0.0599  0.6741  0.9152
10295SOL    HW232337   6.852   4.474   0.514 -0.5983 -1.9322 -0.5765
10296SOL     OW32338   1.611   1.114   6.721 -0.0329  0.6529  0.2607
10296SOL    HW132339   1.591   1.175   6.651 -0.5663 -0.6468 -0.7572
10296SOL    HW232340   1.532   1.111   6.774 -0.1894  0.4725  0.0195
10297SOL     OW32341   4.620   5.776   6.522  0.4023 -0.0256  0.0162
10297SOL    HW132342   4.706   5.749   6.488  0.5474 -0.0487  0.3956
10297SOL    HW232343   4.589   5.840   6.458  0.8002  0.1439 -0.0162
10298SOL     OW32344   3.443   0.561   1.241  0.2345 -0.2415  0.4319
10298SOL    HW132345   3.476   0.638   1.287  0.1031 -0.9973  1.8552
10298SOL    HW232346   3.498   0.489   1.272  1.0177 -0.6070 -1.6394
10299SOL     OW32347   1.459   5.718   1.451 -0.1072 -0.2206 -0.3088
10299SOL    HW132348   1.469   5.624   1.463 -1.8615 -0.3460  0.5392
10299SOL    HW232349   1.524   5.742   1.385  2.3653 -1.5119  1.4996
10300SOL     OW32350   5.462   1.875   1.403  0.3866  0.0714  0.2316
10300SOL    HW132351   5.456   1.918   1.318 -2.7749 -0.0760  0.2736
10300SOL    HW232352   5.371   1.854   1.427  1.1173  0.2068  3.7100
10301SOL     OW32353   1.877   5.365   3.403 -0.5986 -0.0382 -0.7321
10301SOL    HW132354   1.896   5.272   3.395 -2.2771 -0.3810 -1.2731
10301SOL    HW232355   1.877   5.382   3.497 -0.5519 -0.6480 -0.6192
10302SOL     OW32356   3.292   1.113   2.600  0.0884 -0.0084 -0.3163
10302SOL    HW132357   3.365   1.057   2.575  0.7143  0.2968  0.7696
10302SOL    HW232358   3.328   1.201   2.604 -0.0325  0.0020  1.2925
10303SOL     OW32359   4.403   9.185   1.988 -0.6493 -0.1510  0.6422
10303SOL    HW132360   4.363   9.103   1.959  0.9824 -0.5254 -0.6954
10303SOL    HW232361   4.498   9.169   1.982 -0.2645  1.1051  2.4914
10304SOL     OW32362   8.314   6.409   7.063 -0.0990  0.0226  0.2283
10304SOL    HW132363   8.256   6.455   7.003  0.2141  0.2560  0.1020
10304SOL    HW232364   8.402   6.437   7.038 -0.0029  0.8573  1.3912
10305SOL     OW32365   3.597   6.605   3.474  0.3666 -0.2529 -0.2684
10305SOL    HW132366   3.655   6.529   3.477  0.5789 -0.0805  1.5343
10305SOL    HW232367   3.655   6.680   3.468  0.2812 -0.1511  0.0996
10306SOL     OW32368   4.637   4.390   8.682  0.3831 -0.1318 -0.0930
10306SOL    HW132369   4.591   4.470   8.707  0.0517 -0.8605  1.8911
10306SOL    HW232370   4.722   4.396   8.725  0.7850 -0.3420 -0.8502
10307SOL     OW32371   8.698   9.216   6.726 -0.0063  0.2396 -0.2403
10307SOL    HW132372   8.692   9.125   6.753  2.4590 -0.0151 -0.2980
10307SOL    HW232373   8.699   9.212   6.630  0.0545  0.3315 -0.2434
10308SOL     OW32374   4.519   8.178   0.170 -0.2130 -0.2592  0.0091
10308SOL    HW132375   4.581   8.165   0.241  0.0465 -1.5307 -0.4160
10308SOL    HW232376   4.525   8.097   0.119 -2.6767 -0.6797  0.3050
10309SOL     OW32377   1.169   8.022   5.875  0.2561 -0.1191 -0.0442
10309SOL    HW132378   1.258   8.054   5.889  0.2210 -0.9493  2.4667
10309SOL    HW232379   1.169   7.993   5.783  2.3425  0.5628 -0.3196
10310SOL     OW32380   4.385   3.108   8.486 -0.4021  0.0079  0.6585
10310SOL    HW132381   4.328   3.085   8.559 -0.0921  1.6636  1.4539
10310SOL    HW232382   4.339   3.178   8.440 -0.3844 -0.7040 -0.4920
10311SOL     OW32383   3.123   5.811   1.706 -0.2979 -0.7335  0.4139
10311SOL    HW132384   3.063   5.773   1.642 -0.3760  0.1679 -0.0641
10311SOL    HW232385   3.159   5.736   1.753  0.8283 -1.5305 -1.6147
10312SOL     OW32386   3.315   6.460   2.875  0.1609  0.1482  0.3062
10312SOL    HW132387   3.402   6.466   2.835 -0.3512 -0.6145 -0.9613
10312SOL    HW232388   3.323   6.512   2.956  1.7684  0.1290  0.1968
10313SOL     OW32389   2.033   3.627   1.721 -0.0503 -0.3858 -0.4685
10313SOL    HW132390   2.041   3.565   1.648 -0.9968  0.6483 -1.5081
10313SOL    HW232391   2.018   3.573   1.798 -0.5536 -1.4591 -1.3020
10314SOL     OW32392   0.008   7.030   5.028 -0.2342 -0.2562  1.1508
10314SOL    HW132393   0.089   7.035   5.079 -1.5814 -1.0993  3.5391
10314SOL    HW232394  -0.040   7.110   5.052 -1.0008 -0.7895  1.4294
10315SOL     OW32395   4.990   6.821   7.588 -0.1983 -0.2213 -0.1956
10315SOL    HW132396   4.908   6.781   7.559 -0.6323  0.5800 -0.1075
10315SOL    HW232397   4.970   6.858   7.674  0.1023  0.4106 -0.3859
10316SOL     OW32398   5.947   4.715   5.751  0.4199 -0.2207 -0.2600
10316SOL    HW132399   6.012   4.777   5.720  1.6969 -0.1146  2.3298
10316SOL    HW232400   5.904   4.760   5.824  0.2992 -1.7454  0.6564
10317SOL     OW32401   0.909   4.231   5.068  0.0500 -0.3481 -0.3453
10317SOL    HW132402   0.913   4.199   5.158 -1.5656 -2.7214 -1.0150
10317SOL    HW232403   0.957   4.314   5.069 -0.2605 -0.1153  2.7557
10318SOL     OW32404   0.276   3.167   7.184 -0.6472  0.0221  0.1572
10318SOL    HW132405   0.290   3.080   7.147  0.9397  0.1966  0.2820
10318SOL    HW232406   0.282   3.226   7.109 -0.7898  0.0942  0.2036
10319SOL     OW32407   4.819   4.382   1.763 -0.5202  0.7058  0.1903
10319SOL    HW132408   4.771   4.312   1.807  3.2306 -1.0131  1.9964
10319SOL    HW232409   4.796   4.372   1.670 -1.3783 -1.8729  0.6044
10320SOL     OW32410   8.631   4.891   5.992  0.4761  0.1818 -0.2422
10320SOL    HW132411   8.678   4.856   5.917  0.4065 -0.8818  0.2022
10320SOL    HW232412   8.680   4.971   6.015  0.9839  0.0686 -0.8927
10321SOL     OW32413   1.355   2.901   6.129 -0.0125 -0.0150  0.0779
10321SOL    HW132414   1.406   2.877   6.052 -0.4075  0.6596 -0.4050
10321SOL    HW232415   1.420   2.909   6.199  0.3935 -0.2991 -0.2597
10322SOL     OW32416   0.380   9.121   7.186 -0.0425 -0.2603 -0.0170
10322SOL    HW132417   0.415   9.150   7.270 -0.8227 -2.1267  0.9939
10322SOL    HW232418   0.289   9.097   7.205 -1.1538  1.9073 -2.0115
10323SOL     OW32419   5.196   5.544   8.226  0.3873 -0.2918  0.1753
10323SOL    HW132420   5.221   5.535   8.318  0.1572  2.3436  0.5871
10323SOL    HW232421   5.233   5.629   8.200  0.5853 -1.0398 -2.2313
10324SOL     OW32422   7.792   8.027   6.951  0.0327  0.0188  0.6948
10324SOL    HW132423   7.781   8.016   6.857  0.8192 -0.3942  0.6464
10324SOL    HW232424   7.757   7.947   6.989  0.7700 -0.3299  0.6703
10325SOL     OW32425   8.211   4.996   3.993 -0.0336 -0.1924  0.2006
10325SOL    HW132426   8.211   5.062   4.062  1.7012  0.2037 -0.1429
10325SOL    HW232427   8.247   5.041   3.917  0.9256 -1.4596 -0.1229
10326SOL     OW32428   7.933   1.860   4.537  0.0079  0.4080  0.1946
10326SOL    HW132429   8.012   1.910   4.557  1.1498 -1.7461  1.5110
10326SOL    HW232430   7.964   1.785   4.486 -1.0411 -0.7838  1.2258
10327SOL     OW32431   1.164   4.530   4.762 -0.4721 -0.0286  0.3474
10327SOL    HW132432   1.164   4.464   4.694 -0.6696  1.2433 -0.9373
10327SOL    HW232433   1.073   4.535   4.791 -0.4619 -0.2985  0.4241
10328SOL     OW32434   0.198   9.129   3.475  0.4489  0.3773 -0.4769
10328SOL    HW132435   0.156   9.047   3.501 -0.6464  1.0291 -0.1078
10328SOL    HW232436   0.290   9.118   3.498  0.3809 -0.8520 -0.7075
10329SOL     OW32437   4.693   1.683   4.426 -0.0414  0.0273 -0.3662
10329SOL    HW132438   4.786   1.673   4.443 -0.3072 -1.9629  0.1824
10329SOL    HW232439   4.672   1.770   4.459  1.7695  0.8695 -1.3074
10330SOL     OW32440   0.803   8.397   2.865  0.0412  0.3017 -0.0617
10330SOL    HW132441   0.729   8.401   2.925 -0.2807  0.6559 -0.4744
10330SOL    HW232442   0.767   8.361   2.784  0.5969 -0.7372  0.1322
10331SOL     OW32443   8.104   4.303   7.849  0.6584 -0.2709  0.0335
10331SOL    HW132444   8.130   4.226   7.899  2.0993 -0.5674 -1.1025
10331SOL    HW232445   8.183   4.330   7.802 -0.5048  0.1761 -1.8108
10332SOL     OW32446   4.350   2.306   4.111 -0.0019  0.0077 -0.3861
10332SOL    HW132447   4.384   2.342   4.193 -2.5394  0.1455  0.6852
10332SOL    HW232448   4.347   2.212   4.126 -1.2612  0.1050  0.0170
10333SOL     OW32449   8.631   0.681   6.312 -0.0515  0.2226  0.3374
10333SOL    HW132450   8.653   0.655   6.222 -1.0562 -0.6723  0.3285
10333SOL    HW232451   8.594   0.769   6.303 -0.7734 -0.1238 -0.2251
10334SOL     OW32452   2.083   8.549   6.506  0.1587 -0.2160 -0.5919
10334SOL    HW132453   2.096   8.643   6.493  0.5193  0.0574  1.3755
10334SOL    HW232454   2.116   8.508   6.427  1.9821  1.1977 -0.6220
10335SOL     OW32455   0.328   6.859   1.410 -0.0355  0.0252 -0.0173
10335SOL    HW132456   0.346   6.891   1.499 -0.0146  2.3057 -0.7600
10335SOL    HW232457   0.398   6.796   1.393  1.0584  0.9260  0.9409
10336SOL     OW32458   2.201   0.247   6.726  0.5278 -0.3274 -0.5370
10336SOL    HW132459   2.131   0.276   6.784  1.2083  0.2273  0.0254
10336SOL    HW232460   2.168   0.265   6.638 -0.3091 -0.7093 -0.3134
10337SOL     OW32461   1.869   0.447   2.995  0.1698 -0.3490 -0.1878
10337SOL    HW132462   1.869   0.507   3.070  0.4738 -0.5249 -0.0451
10337SOL    HW232463   1.962   0.434   2.975  0.0770  1.3853 -1.9672
10338SOL     OW32464   2.476   5.131   5.761 -0.0802 -0.1385 -0.1001
10338SOL    HW132465   2.564   5.110   5.792  0.2948  0.5167 -0.6881
10338SOL    HW232466   2.465   5.075   5.683 -1.0936 -1.9271  1.2478
10339SOL     OW32467   6.847   0.810   7.071  0.4454  0.2989  0.6473
10339SOL    HW132468   6.809   0.726   7.097  0.2877  0.5527  1.2555
10339SOL    HW232469   6.846   0.808   6.976 -3.9806  1.4893  0.4520
10340SOL     OW32470   2.776   7.705   5.922  0.5452  1.0036 -0.9730
10340SOL    HW132471   2.700   7.670   5.969  1.2509 -0.8229 -1.0825
10340SOL    HW232472   2.750   7.792   5.894 -1.8442  0.0929 -1.7979
10341SOL     OW32473   4.978   5.593   2.283  0.0479  0.3829 -0.1356
10341SOL    HW132474   4.922   5.564   2.354 -1.0054 -0.1608 -1.1434
10341SOL    HW232475   4.924   5.654   2.232  0.9122  1.0698 -0.2447
10342SOL     OW32476   5.482   8.398   8.899  0.3474 -0.1775 -0.0872
10342SOL    HW132477   5.441   8.483   8.882 -0.3239 -0.5692 -0.4494
10342SOL    HW232478   5.446   8.369   8.982  0.2971 -0.2769 -0.1431
10343SOL     OW32479   5.260   6.077   5.446 -0.3664  0.5194 -0.3404
10343SOL    HW132480   5.170   6.095   5.420 -0.4875  1.5229  0.6526
10343SOL    HW232481   5.313   6.103   5.371 -0.8358  1.1099 -0.4716
10344SOL     OW32482   7.646   9.263   4.806  0.0353  0.6964 -0.2414
10344SOL    HW132483   7.598   9.222   4.733 -0.3112  0.6055  0.0368
10344SOL    HW232484   7.626   9.208   4.881  1.0785  0.2969 -0.2456
10345SOL     OW32485   2.053   7.515   4.248  0.4347  0.1452 -0.6171
10345SOL    HW132486   2.065   7.585   4.183  0.8693  1.6234  0.9656
10345SOL    HW232487   2.097   7.439   4.211  0.3304  0.8305 -2.2064
10346SOL     OW32488   1.584   5.031   5.503  0.4543 -0.4792  0.1068
10346SOL    HW132489   1.489   5.017   5.509  0.4489 -0.9183 -0.8642
10346SOL    HW232490   1.593   5.126   5.496  0.0088 -0.5025 -0.9433
10347SOL     OW32491   3.359   4.474   7.537  0.0363  0.1060  0.0032
10347SOL    HW132492   3.440   4.522   7.552 -0.3462  0.4269  1.1604
10347SOL    HW232493   3.385   4.382   7.534  0.7074  0.3228 -1.7235
10348SOL     OW32494   4.490   2.561   7.520 -0.5422  0.2176 -0.4455
10348SOL    HW132495   4.580   2.587   7.540 -0.5349 -0.1737  0.0678
10348SOL    HW232496   4.453   2.635   7.472 -0.4030  1.0187  0.6407
10349SOL     OW32497   1.786   0.680   7.190 -0.2347  0.0073 -0.8245
10349SOL    HW132498   1.806   0.587   7.199  0.0784  0.0802 -0.7656
10349SOL    HW232499   1.702   0.682   7.144 -0.7174 -0.3249  0.0158
10350SOL     OW32500   1.358   8.889   0.354  0.0909 -0.1512  0.1874
10350SOL    HW132501   1.334   8.959   0.415 -1.0434  0.6517 -1.1020
10350SOL    HW232502   1.452   8.878   0.366  0.3171  1.6529  0.4016
10351SOL     OW32503   6.077   5.768   2.026 -0.7051  0.3050  0.3635
10351SOL    HW132504   6.018   5.817   2.083 -0.9706 -0.3125  0.6352
10351SOL    HW232505   6.133   5.834   1.985 -1.8983  0.9407 -0.2763
10352SOL     OW32506   4.574   1.228   4.522 -0.2988 -0.4099 -0.3077
10352SOL    HW132507   4.546   1.163   4.586  0.6952 -0.0239  0.5490
10352SOL    HW232508   4.670   1.219   4.518 -0.0574  1.4358  0.3454
10353SOL     OW32509   4.248   7.512   1.754 -0.0090  0.1751  0.0979
10353SOL    HW132510   4.233   7.440   1.814  2.5639  0.7925  1.6723
10353SOL    HW232511   4.230   7.591   1.806 -0.7984  0.7000 -0.9442
10354SOL     OW32512   7.200   4.955   1.346  0.1754  0.5519  0.5246
10354SOL    HW132513   7.128   4.991   1.398 -0.1282  1.6351 -0.5872
10354SOL    HW232514   7.247   5.032   1.313  1.9261 -0.1254  1.2916
10355SOL     OW32515   1.646   4.116   4.588 -0.3048 -0.9677 -0.0968
10355SOL    HW132516   1.637   4.029   4.548 -2.0538 -0.3422 -1.1964
10355SOL    HW232517   1.570   4.165   4.556  1.2198  1.3431 -0.4607
10356SOL     OW32518   0.044   3.305   2.813 -0.2888  0.3501 -0.4993
10356SOL    HW132519   0.013   3.269   2.730  1.2140 -0.7258 -0.6330
10356SOL    HW232520  -0.036   3.317   2.865 -1.0280 -1.2892 -1.1902
10357SOL     OW32521   5.510   0.908   2.462 -0.4452 -0.0151  0.5712
10357SOL    HW132522   5.580   0.842   2.456 -1.4965 -1.0128 -1.3663
10357SOL    HW232523   5.430   0.857   2.477 -1.4415  0.6678 -2.0114
10358SOL     OW32524   2.996   1.610   5.608  0.2523 -0.4136 -0.0019
10358SOL    HW132525   2.972   1.549   5.678  0.2735  0.5798  0.8948
10358SOL    HW232526   3.078   1.575   5.573 -0.2844 -1.4860 -0.2288
10359SOL     OW32527   7.715   8.057   4.328 -0.0874  0.6385 -0.4334
10359SOL    HW132528   7.804   8.039   4.297  1.2199  4.2655  0.6991
10359SOL    HW232529   7.671   8.097   4.252 -0.3524  0.0217 -0.6110
10360SOL     OW32530   7.608   7.664   8.717 -0.2044 -0.0284  0.5527
10360SOL    HW132531   7.541   7.731   8.732 -0.1467  0.2152 -0.2399
10360SOL    HW232532   7.573   7.611   8.645  0.1430 -0.3240  0.6025
10361SOL     OW32533   2.951   6.482   4.012 -0.3730  0.1309  0.3194
10361SOL    HW132534   2.862   6.451   4.031 -0.3960  0.5258  0.8696
10361SOL    HW232535   2.939   6.552   3.948 -0.4999  0.5042  0.7473
10362SOL     OW32536   7.029   4.359   4.134  0.1721  0.1762 -0.0554
10362SOL    HW132537   6.937   4.376   4.116 -0.2369 -0.5427  1.2305
10362SOL    HW232538   7.044   4.272   4.097 -0.0399 -0.2851  0.9160
10363SOL     OW32539   1.731   6.639   6.469 -0.2010  0.1214  0.2422
10363SOL    HW132540   1.783   6.718   6.452 -2.4892  1.3013 -1.9125
10363SOL    HW232541   1.793   6.567   6.455  1.5445  1.4763  0.6216
10364SOL     OW32542   3.409   8.557   2.959 -0.6111 -0.5986  0.7504
10364SOL    HW132543   3.433   8.543   3.050 -0.9373 -2.4776  0.5917
10364SOL    HW232544   3.314   8.561   2.960 -0.5842  0.2539  0.5816
10365SOL     OW32545   4.433   1.293   0.845  0.2647  0.0367 -0.2109
10365SOL    HW132546   4.526   1.308   0.864  1.5189 -0.2523 -4.9082
10365SOL    HW232547   4.393   1.380   0.848  0.2491  0.0431  2.9792
10366SOL     OW32548   6.686   7.205   5.014  0.5276 -0.1836  0.4197
10366SOL    HW132549   6.738   7.276   5.052 -0.2764 -0.3175  1.8036
10366SOL    HW232550   6.714   7.202   4.922  3.5056 -0.7687  1.2725
10367SOL     OW32551   7.030   5.061   2.453  0.2844 -0.1166 -0.4484
10367SOL    HW132552   7.090   5.116   2.402 -0.6426  0.9794 -0.4017
10367SOL    HW232553   7.065   5.063   2.542  0.0861  0.6950 -0.3753
10368SOL     OW32554   1.411   5.225   8.894  0.3179  0.0431  0.2025
10368SOL    HW132555   1.417   5.237   8.989 -2.5279 -1.2690  0.6599
10368SOL    HW232556   1.327   5.264   8.870  0.2221 -1.0764 -1.4933
10369SOL     OW32557   1.173   3.393   2.217 -0.8752 -0.5555 -0.7211
10369SOL    HW132558   1.128   3.369   2.298  1.4062 -0.3128  0.7148
10369SOL    HW232559   1.174   3.489   2.218  0.1614 -0.5621 -0.4167
10370SOL     OW32560   7.944   2.281   8.329 -0.2253  0.0696 -0.0050
10370SOL    HW132561   7.904   2.238   8.405  1.8007 -1.6297  0.1750
10370SOL    HW232562   7.949   2.373   8.355 -3.7000  0.3957  0.0254
10371SOL     OW32563   2.906   6.805   1.011  0.1714  0.2465  0.7931
10371SOL    HW132564   2.881   6.897   1.022 -0.3832 -0.0360  2.1781
10371SOL    HW232565   2.982   6.808   0.953  0.3202  1.6055  1.0100
10372SOL     OW32566   6.842   2.422   0.140  0.4539 -0.5749 -0.2340
10372SOL    HW132567   6.907   2.388   0.201  1.1876 -0.8704 -1.1602
10372SOL    HW232568   6.824   2.511   0.171 -0.7191 -1.3740  1.6040
10373SOL     OW32569   6.678   7.600   8.325  0.3652  0.0102 -0.1617
10373SOL    HW132570   6.709   7.595   8.235  1.6147 -1.6623  0.3088
10373SOL    HW232571   6.623   7.678   8.328  0.4084  0.1617 -2.3269
10374SOL     OW32572   1.554   5.325   7.312  0.4250  0.5535  0.0442
10374SOL    HW132573   1.459   5.318   7.301  0.6738 -2.2942 -1.4076
10374SOL    HW232574   1.581   5.388   7.245 -0.3159  0.3758 -0.4333
10375SOL     OW32575   8.506   8.257   5.743  0.1200 -0.4277  0.4958
10375SOL    HW132576   8.533   8.204   5.817  0.0967  0.9364  1.5277
10375SOL    HW232577   8.572   8.326   5.737  0.8418 -1.2199 -1.5865
10376SOL     OW32578   0.615   0.460   6.270  0.2957  0.0486  0.0644
10376SOL    HW132579   0.700   0.416   6.278  0.4785  0.5652  1.0733
10376SOL    HW232580   0.560   0.417   6.336 -0.2950 -0.4206 -0.7204
10377SOL     OW32581   1.573   1.757   4.692 -0.4584 -0.3903  0.6361
10377SOL    HW132582   1.588   1.811   4.615 -1.3006 -0.7624  0.2088
10377SOL    HW232583   1.556   1.820   4.762  1.6658  0.0094  0.8603
10378SOL     OW32584   8.384   4.326   4.704  0.3642  0.4031 -0.0758
10378SOL    HW132585   8.468   4.371   4.713 -0.3408  1.6782  0.3647
10378SOL    HW232586   8.320   4.389   4.735 -0.5896 -1.3094  1.6434
10379SOL     OW32587   5.474   1.018   4.541  0.5470 -0.4160  0.0753
10379SOL    HW132588   5.566   1.005   4.520  0.8340 -1.8189  1.9750
10379SOL    HW232589   5.427   0.966   4.475  0.9417  1.5988 -1.9318
10380SOL     OW32590   8.496   0.377   6.983  0.3045  0.2177  0.0356
10380SOL    HW132591   8.477   0.369   6.889  0.7508 -2.3969  0.0751
10380SOL    HW232592   8.414   0.353   7.026  0.6639 -0.6155  0.2766
10381SOL     OW32593   7.179   8.944   5.585  0.3726 -0.1307  0.4569
10381SOL    HW132594   7.209   8.914   5.500 -0.6472 -0.7471  0.3052
10381SOL    HW232595   7.086   8.925   5.587  0.1357  0.9498  1.2577
10382SOL     OW32596   8.485   8.648   9.134 -0.0156  0.1955  0.2780
10382SOL    HW132597   8.486   8.571   9.191  0.9295  0.1227  0.1783
10382SOL    HW232598   8.543   8.624   9.061 -1.7905 -0.0129 -1.1296
10383SOL     OW32599   2.674   1.533   6.364  0.3835 -0.0465  0.1465
10383SOL    HW132600   2.668   1.511   6.457 -0.6091 -0.6434 -0.0473
10383SOL    HW232601   2.760   1.499   6.337  0.7996  0.3735  0.8915
10384SOL     OW32602   6.042   5.832   1.479  0.1901 -0.4453 -0.4443
10384SOL    HW132603   6.089   5.756   1.513  0.1959 -0.3158 -0.1545
10384SOL    HW232604   6.111   5.890   1.445  0.8898  1.9357  4.1546
10385SOL     OW32605   6.648   4.032   4.400 -0.2207  0.4952  0.1211
10385SOL    HW132606   6.711   4.100   4.379  0.7664  0.2787  2.1689
10385SOL    HW232607   6.563   4.072   4.381  0.3833  1.9149  0.2702
10386SOL     OW32608   1.837   2.536   7.617 -0.5771 -0.4613 -0.6681
10386SOL    HW132609   1.863   2.456   7.571  1.7149  1.2010 -2.5193
10386SOL    HW232610   1.884   2.531   7.700 -0.8742 -1.2475 -0.5319
10387SOL     OW32611   3.053   7.762   5.703  0.7000 -0.4198 -0.3466
10387SOL    HW132612   3.057   7.731   5.794  1.8280  0.4448 -0.0702
10387SOL    HW232613   3.011   7.691   5.655  1.9295 -1.7544  0.4901
10388SOL     OW32614   4.190   3.089   3.300 -0.3694 -0.2734 -0.0153
10388SOL    HW132615   4.194   3.140   3.219  1.1576  0.0671  0.2377
10388SOL    HW232616   4.124   3.022   3.284 -1.3501  0.8626 -0.9018
10389SOL     OW32617   7.657   7.330   7.545 -0.2701  0.0045 -0.3597
10389SOL    HW132618   7.648   7.323   7.640  3.4595  0.5187  0.1706
10389SOL    HW232619   7.629   7.419   7.524 -2.1661 -0.4572  0.0141
10390SOL     OW32620   6.519   0.703   2.395  0.0676  0.3902 -0.1056
10390SOL    HW132621   6.578   0.636   2.430 -1.8375 -2.7442 -2.2646
10390SOL    HW232622   6.573   0.781   2.387  3.1940 -1.5226  0.4032
10391SOL     OW32623   3.529   9.163   1.159  0.3239 -0.0772  0.3816
10391SOL    HW132624   3.604   9.141   1.103 -1.0827 -0.7310 -1.3420
10391SOL    HW232625   3.465   9.203   1.099  0.1249  2.6237  2.2060
10392SOL     OW32626   3.751   3.448   2.863  0.2534  0.3620 -0.0823
10392SOL    HW132627   3.683   3.515   2.867  1.3615  1.5684 -0.5849
10392SOL    HW232628   3.827   3.490   2.903  1.3085 -0.1678 -1.4645
10393SOL     OW32629   1.394   2.075   1.095  0.0617  0.2979 -0.1847
10393SOL    HW132630   1.300   2.088   1.105  0.0028  0.1420 -0.5116
10393SOL    HW232631   1.402   2.016   1.020  0.3682 -0.5370  0.4884
10394SOL     OW32632   1.655   8.937   7.942  0.0724  0.3052 -0.5664
10394SOL    HW132633   1.635   8.977   7.858  0.1592  0.1696 -0.6524
10394SOL    HW232634   1.744   8.903   7.932  0.8412  1.9793  0.2121
10395SOL     OW32635   6.975   4.665   5.428 -0.1259  0.4889  0.4377
10395SOL    HW132636   6.897   4.619   5.459 -0.3284  0.7295  0.2968
10395SOL    HW232637   7.004   4.718   5.502 -1.1651  1.8029 -0.0305
10396SOL     OW32638   1.944   5.438   4.857  0.3340  0.3885  0.5489
10396SOL    HW132639   1.920   5.477   4.941 -0.9013 -0.5205  0.6543
10396SOL    HW232640   1.993   5.359   4.879 -0.6017 -0.2333  0.4521
10397SOL     OW32641   2.680   1.381   3.336  0.1486  0.2363 -0.6669
10397SOL    HW132642   2.669   1.340   3.251 -0.3195  1.7622 -1.3791
10397SOL    HW232643   2.591   1.400   3.365  0.3201  0.0765 -0.0166
10398SOL     OW32644   2.755   5.082   3.241 -0.0172 -0.4184  0.7164
10398SOL    HW132645   2.827   5.032   3.203  0.6098  1.1291 -0.2120
10398SOL    HW232646   2.792   5.120   3.320 -0.0319 -0.1846  0.6100
10399SOL     OW32647   2.692   1.208   2.384 -0.1132  0.3046  0.3481
10399SOL    HW132648   2.713   1.179   2.295  0.0569  0.1222  0.4466
10399SOL    HW232649   2.611   1.163   2.406 -1.0177  1.5509 -0.2996
10400SOL     OW32650   2.998   3.480   4.740  0.2666  0.4891  0.7032
10400SOL    HW132651   2.929   3.414   4.731  1.2301 -0.5997  0.9996
10400SOL    HW232652   3.000   3.524   4.655 -1.1177  0.8977  0.8550
10401SOL     OW32653   6.908   8.868   5.594 -0.5648  0.3809  0.3597
10401SOL    HW132654   6.863   8.875   5.510 -1.3001 -1.3196  0.5886
10401SOL    HW232655   6.840   8.843   5.656  0.1020  0.9656  1.3499
10402SOL     OW32656   7.810   5.308   1.146 -0.1806 -0.1466 -0.1904
10402SOL    HW132657   7.831   5.226   1.100 -2.2419  1.2872 -4.2512
10402SOL    HW232658   7.719   5.297   1.173 -0.1829  0.4449  0.0485
10403SOL     OW32659   0.002   1.125   4.780 -0.3680  0.5489  0.6074
10403SOL    HW132660  -0.013   1.168   4.864  0.2158  1.7356  0.1268
10403SOL    HW232661  -0.010   1.032   4.798 -2.0961  0.9256  1.5798
10404SOL     OW32662   4.818   3.963   6.025  0.3714  0.1269 -0.4878
10404SOL    HW132663   4.774   4.015   6.091  1.1213  1.4423 -0.9921
10404SOL    HW232664   4.798   4.007   5.942  2.1610  0.4628 -0.7816
10405SOL     OW32665   5.843   3.882   1.334  0.0650  0.1668  0.0021
10405SOL    HW132666   5.756   3.918   1.348  0.5563  1.4609 -0.1249
10405SOL    HW232667   5.859   3.827   1.411 -0.5547  0.5712  0.4317
10406SOL     OW32668   1.341   4.792   1.101 -0.1433 -0.0834  0.1167
10406SOL    HW132669   1.281   4.862   1.075 -1.0672 -1.2623 -1.0644
10406SOL    HW232670   1.412   4.838   1.147 -0.1967  1.7650 -1.4910
10407SOL     OW32671   7.893   6.383   7.763 -0.4408 -0.6566  0.0074
10407SOL    HW132672   7.945   6.309   7.795  0.6307  0.5716  1.2565
10407SOL    HW232673   7.948   6.426   7.698 -0.1187  0.2710  0.8587
10408SOL     OW32674   0.117   7.925   4.807  0.0301  0.0809 -0.5216
10408SOL    HW132675   0.127   7.841   4.763  3.0465 -0.1612  0.3697
10408SOL    HW232676   0.116   7.903   4.901 -1.1672  0.9369 -0.3023
10409SOL     OW32677   7.508   0.668   2.641 -0.5069 -0.7904  0.0275
10409SOL    HW132678   7.421   0.658   2.601 -0.8381  0.4186  0.3918
10409SOL    HW232679   7.496   0.640   2.732 -0.2664 -1.5511 -0.1693
10410SOL     OW32680   0.986   3.951   6.576  0.3595  0.6221  0.2052
10410SOL    HW132681   1.067   3.994   6.548  1.0907 -0.0172  1.2328
10410SOL    HW232682   1.016   3.866   6.611 -0.8939 -0.1421 -0.5384
10411SOL     OW32683   2.033   6.770   7.779  0.0108 -0.0658 -0.4680
10411SOL    HW132684   1.969   6.739   7.843  0.3619  0.1681  0.0080
10411SOL    HW232685   2.038   6.864   7.794  0.2901 -0.0481 -0.6599
10412SOL     OW32686   6.102   2.679   2.603  0.3910  0.7397 -0.1702
10412SOL    HW132687   6.087   2.731   2.681  0.5589  0.2694  0.1827
10412SOL    HW232688   6.142   2.598   2.635 -2.7944 -1.0527 -0.2633
10413SOL     OW32689   2.295   0.892   9.233  0.4159 -0.4539 -0.6877
10413SOL    HW132690   2.327   0.969   9.280  1.6437 -1.8972  0.9462
10413SOL    HW232691   2.372   0.861   9.184  0.5218 -1.7862  0.2842
10414SOL     OW32692   8.744   3.988   2.499  0.0093  0.1235 -0.0266
10414SOL    HW132693   8.677   3.931   2.536 -0.4559  1.0340  0.5866
10414SOL    HW232694   8.695   4.054   2.450  0.4331  0.9235  0.5987
10415SOL     OW32695   8.898   2.544   6.340  0.6331 -0.5763  0.1273
10415SOL    HW132696   8.945   2.516   6.418  1.6705  1.7424  0.4123
10415SOL    HW232697   8.857   2.627   6.364  3.6531  1.9948 -2.5617
10416SOL     OW32698   7.032   2.209   6.216 -0.4593 -0.1392 -0.9530
10416SOL    HW132699   7.020   2.161   6.298 -0.2169  0.1618 -0.7395
10416SOL    HW232700   6.984   2.158   6.151 -1.2580  0.0005 -0.4893
10417SOL     OW32701   0.005   6.931   7.879  0.1616 -0.0851 -0.2817
10417SOL    HW132702   0.046   6.899   7.960  0.9213  1.1545 -0.1488
10417SOL    HW232703   0.045   6.879   7.810 -0.1495 -0.8371  0.0908
10418SOL     OW32704   5.314   4.564   0.868 -0.1122 -0.0551  0.2154
10418SOL    HW132705   5.287   4.477   0.898  2.5561 -1.0679 -0.0079
10418SOL    HW232706   5.365   4.599   0.941  0.5800  0.4251 -0.4878
10419SOL     OW32707   3.696   0.206   9.267 -0.0683 -0.3583 -0.1060
10419SOL    HW132708   3.670   0.180   9.178 -2.6641  0.7906  0.2359
10419SOL    HW232709   3.630   0.270   9.294  0.8967 -0.3449  2.5122
10420SOL     OW32710   7.485   4.828   4.817 -0.5098 -0.8079 -0.5869
10420SOL    HW132711   7.498   4.774   4.739 -0.3895 -0.5963 -0.7141
10420SOL    HW232712   7.481   4.765   4.890  1.1736 -0.9064 -0.5318
10421SOL     OW32713   1.230   2.574   7.061  0.0121 -0.1515 -0.0982
10421SOL    HW132714   1.258   2.599   6.973 -0.9625  1.0812 -0.0756
10421SOL    HW232715   1.290   2.619   7.120 -1.0662  1.3150 -0.0845
10422SOL     OW32716   2.148   6.323   7.302 -0.0939  0.6495  0.2518
10422SOL    HW132717   2.072   6.367   7.265  1.0356  1.8227 -0.7497
10422SOL    HW232718   2.116   6.286   7.385 -1.7509  1.0485 -0.1711
10423SOL     OW32719   2.751   3.297   0.255  0.0191  0.1762 -0.1956
10423SOL    HW132720   2.731   3.380   0.299  2.0057  1.2524 -1.1927
10423SOL    HW232721   2.727   3.312   0.163 -2.0658 -1.3136  0.0268
10424SOL     OW32722   6.784   1.643   2.470  0.1161  0.2000 -0.2441
10424SOL    HW132723   6.870   1.627   2.432  0.3439  1.7903 -0.4510
10424SOL    HW232724   6.767   1.736   2.455 -1.0077  0.2529  1.0808
10425SOL     OW32725   3.538   3.614   2.882 -0.7065 -0.5833  0.2052
10425SOL    HW132726   3.475   3.552   2.919 -2.5130  0.5651 -0.7866
10425SOL    HW232727   3.491   3.654   2.808  1.2589  0.2239 -0.6786
10426SOL     OW32728   1.340   0.602   9.243  0.5216 -0.8983  0.3632
10426SOL    HW132729   1.337   0.643   9.329  2.0793 -0.4545  0.2334
10426SOL    HW232730   1.385   0.519   9.257  0.9373 -0.7476 -0.0423
10427SOL     OW32731   4.155   1.408   6.661 -0.2423  0.3639  0.2585
10427SOL    HW132732   4.188   1.496   6.681  0.0375  0.2740  0.1965
10427SOL    HW232733   4.120   1.415   6.572 -0.0241  0.3572  0.1726
10428SOL     OW32734   8.814   4.260   6.839  0.8467  0.3894 -0.0140
10428SOL    HW132735   8.876   4.187   6.832 -0.7813 -1.0874  0.3753
10428SOL    HW232736   8.832   4.315   6.763  1.4767 -0.9242 -0.8398
10429SOL     OW32737   1.213   7.135   0.563 -0.0179  0.3854  0.5961
10429SOL    HW132738   1.142   7.192   0.594 -0.5128 -0.6160  1.3533
10429SOL    HW232739   1.184   7.047   0.584  1.6972 -0.0200  1.4102
10430SOL     OW32740   6.678   7.611   7.688  0.2698  0.1508 -0.0298
10430SOL    HW132741   6.748   7.609   7.623 -0.2282 -0.1836 -0.5591
10430SOL    HW232742   6.624   7.686   7.663  0.9123  0.9595  0.8974
10431SOL     OW32743   6.015   2.772   9.222 -0.4640 -0.0997 -0.4479
10431SOL    HW132744   6.031   2.801   9.133 -1.4794 -0.6189 -0.8162
10431SOL    HW232745   6.097   2.732   9.250 -0.7140 -1.7780 -1.9074
10432SOL     OW32746   4.795   3.610   1.936 -0.2143  0.0414 -0.6187
10432SOL    HW132747   4.758   3.555   1.866 -0.3426 -0.8551  0.1291
10432SOL    HW232748   4.861   3.554   1.977 -1.6404 -0.3068  1.3669
10433SOL     OW32749   9.262   2.901   5.155 -0.6905  0.4582  0.4065
10433SOL    HW132750   9.341   2.849   5.165 -1.1038 -0.5578 -1.2244
10433SOL    HW232751   9.288   2.975   5.101 -0.8787  0.0252 -0.2871
10434SOL     OW32752   8.525   5.401   1.154 -0.6419  0.1617  0.6548
10434SOL    HW132753   8.589   5.416   1.084  0.4319 -1.6830  1.1802
10434SOL    HW232754   8.452   5.356   1.112  0.2049 -1.3675  0.7505
10435SOL     OW32755   4.073   2.287   7.789 -0.5525  0.0032  0.3005
10435SOL    HW132756   4.105   2.288   7.879 -0.7334  1.3699  0.3593
10435SOL    HW232757   3.978   2.290   7.797 -0.5681  0.1497  0.0577
10436SOL     OW32758   7.187   1.058   5.004  0.0147 -0.2443 -0.4698
10436SOL    HW132759   7.108   1.047   5.057  0.6763  0.5915  0.7334
10436SOL    HW232760   7.154   1.077   4.916 -1.1795  1.3595  0.2665
10437SOL     OW32761   3.315   2.553   5.560 -0.0083 -0.1482  0.3930
10437SOL    HW132762   3.409   2.565   5.546 -0.3083  0.7802 -0.9768
10437SOL    HW232763   3.307   2.541   5.655  1.4773 -0.1213  0.5472
10438SOL     OW32764   1.136   6.673   7.317  0.1255  0.1839  0.4966
10438SOL    HW132765   1.157   6.685   7.225 -2.3585  0.7754 -0.0786
10438SOL    HW232766   1.111   6.581   7.325  0.6933  0.0448  0.6540
10439SOL     OW32767   3.458   8.088   3.064 -0.2799  0.1050 -0.6075
10439SOL    HW132768   3.396   8.039   3.119 -0.9684  0.9065 -0.6472
10439SOL    HW232769   3.405   8.120   2.991  0.4914 -0.3882 -1.4051
10440SOL     OW32770   6.048   3.677   4.900  0.3867  0.0750 -0.5132
10440SOL    HW132771   5.955   3.694   4.884  0.0051 -1.2112  0.1989
10440SOL    HW232772   6.073   3.741   4.967 -0.3020 -0.2925  0.1197
10441SOL     OW32773   4.188   2.919   3.701 -1.3190 -0.3735 -0.5383
10441SOL    HW132774   4.168   3.009   3.675 -0.3533  0.2078  0.6378
10441SOL    HW232775   4.226   2.879   3.623 -2.2209  0.0614 -1.2229
10442SOL     OW32776   1.112   9.067   3.216 -0.6586  0.0673 -0.4688
10442SOL    HW132777   1.069   9.056   3.301  0.7686  0.4573  0.3436
10442SOL    HW232778   1.052   9.122   3.165 -1.3535  0.1628  0.4315
10443SOL     OW32779   7.470   0.513   6.289 -0.3019 -0.0673 -0.1563
10443SOL    HW132780   7.519   0.557   6.359  0.7320 -1.2884 -0.0708
10443SOL    HW232781   7.409   0.580   6.257  2.2565  1.9552 -1.1467
10444SOL     OW32782   6.716   6.051   6.735 -0.1975 -0.1231 -0.4609
10444SOL    HW132783   6.764   6.105   6.798  0.2416  0.7034 -1.4864
10444SOL    HW232784   6.643   6.105   6.706  0.5998  0.2203 -1.9651
10445SOL     OW32785   2.836   0.194   8.200 -0.1092  0.5061  0.4040
10445SOL    HW132786   2.912   0.244   8.171 -1.2036  1.4348 -0.9812
10445SOL    HW232787   2.770   0.209   8.133 -0.6103 -2.6027  0.0123
10446SOL     OW32788   5.551   6.438   7.539 -0.3804  0.1390 -0.0832
10446SOL    HW132789   5.516   6.494   7.470 -1.2894  0.1719  0.3876
10446SOL    HW232790   5.567   6.354   7.496 -1.5081 -0.0233 -0.2123
10447SOL     OW32791   3.197   0.887   4.262  0.1686  0.3092  0.7458
10447SOL    HW132792   3.207   0.808   4.316  0.2294  0.4464  0.9386
10447SOL    HW232793   3.130   0.938   4.308  0.4087  0.5480  0.8325
10448SOL     OW32794   9.158   0.162   4.097 -0.0276 -0.2403  0.4948
10448SOL    HW132795   9.232   0.103   4.082 -0.2686 -0.7051  1.0732
10448SOL    HW232796   9.195   0.250   4.093  0.6752 -0.4834  1.3916
10449SOL     OW32797   4.559   2.289   5.728 -0.5774 -0.2027  0.4750
10449SOL    HW132798   4.511   2.368   5.703  0.0009  0.1197  0.3582
10449SOL    HW232799   4.570   2.297   5.823  1.2090  0.8787  0.2315
10450SOL     OW32800   3.695   8.228   3.138  0.1942 -0.3270  0.5839
10450SOL    HW132801   3.607   8.246   3.103  1.0412 -1.4454 -2.4664
10450SOL    HW232802   3.754   8.271   3.077  1.8519 -3.2971 -0.0844
10451SOL     OW32803   1.570   1.086   4.451 -0.1680  0.0905  0.2168
10451SOL    HW132804   1.483   1.121   4.436 -0.0444  0.2019 -0.2576
10451SOL    HW232805   1.586   1.028   4.377 -0.7334 -1.7182  1.4216
10452SOL     OW32806   0.567   5.456   3.163  1.0512 -0.5215  0.3613
10452SOL    HW132807   0.584   5.529   3.222  0.6057 -0.7626  0.7924
10452SOL    HW232808   0.598   5.487   3.077  1.6231 -0.1400  0.6948
10453SOL     OW32809   1.902   3.269   0.492 -1.1273 -0.6502 -0.0544
10453SOL    HW132810   1.933   3.326   0.421 -1.0740 -0.3981  0.1709
10453SOL    HW232811   1.826   3.314   0.528 -0.0758  0.1356  1.2411
10454SOL     OW32812   7.147   6.223   1.401  0.5490  0.0128  0.3781
10454SOL    HW132813   7.174   6.135   1.427  0.6738 -0.3355 -0.8425
10454SOL    HW232814   7.216   6.253   1.343  0.6803  1.0714  1.0730
10455SOL     OW32815   8.271   5.253   1.028 -0.1478 -0.8180  0.5914
10455SOL    HW132816   8.255   5.217   0.940  0.7320  0.2110 -0.0234
10455SOL    HW232817   8.208   5.324   1.037 -1.1517 -1.7832  1.3606
10456SOL     OW32818   2.039   5.664   5.277 -0.4350  0.1283  0.6029
10456SOL    HW132819   1.984   5.741   5.291 -0.6878 -0.3139  2.3669
10456SOL    HW232820   1.990   5.610   5.215 -0.5257  1.1085 -0.2006
10457SOL     OW32821   0.587   3.583   0.252 -0.0327  0.5093 -0.1004
10457SOL    HW132822   0.615   3.527   0.325  0.5994  2.2020  1.0222
10457SOL    HW232823   0.498   3.609   0.273 -0.6839 -0.7921 -1.1093
10458SOL     OW32824   0.663   0.519   3.754 -0.2993  0.1347  0.4341
10458SOL    HW132825   0.582   0.530   3.704 -1.2961 -1.4328  1.6053
10458SOL    HW232826   0.702   0.606   3.757 -2.2316  1.0446  0.3266
10459SOL     OW32827   4.828   4.394   5.514 -0.1558 -0.0122  0.5640
10459SOL    HW132828   4.848   4.355   5.599 -0.2133 -0.5313  0.3485
10459SOL    HW232829   4.744   4.356   5.490  0.0449 -0.1780  0.1039
10460SOL     OW32830   5.213   8.562   7.771 -0.3353 -0.5222 -0.0391
10460SOL    HW132831   5.192   8.524   7.685  0.0047 -0.3344 -0.2068
10460SOL    HW232832   5.128   8.573   7.814 -0.4055 -2.6924  0.5407
10461SOL     OW32833   7.510   7.191   8.141  0.3753  0.0406  0.4776
10461SOL    HW132834   7.530   7.263   8.081  1.0271 -0.5367 -0.0202
10461SOL    HW232835   7.449   7.229   8.205  2.5327  1.7291  1.6786
10462SOL     OW32836   8.432   0.916   4.186  0.5320  0.3471 -0.1565
10462SOL    HW132837   8.385   0.837   4.159 -2.3292  1.6916  0.5463
10462SOL    HW232838   8.426   0.975   4.111 -1.7736  1.6693  0.9494
10463SOL     OW32839   0.139   3.976   1.941 -0.2467  0.3188  0.2831
10463SOL    HW132840   0.128   4.070   1.955  1.6516  0.3460  2.0860
10463SOL    HW232841   0.196   3.970   1.865  1.0847  0.7242  1.2203
10464SOL     OW32842   4.067   7.660   5.798 -0.1606  0.2623 -0.0085
10464SOL    HW132843   4.007   7.590   5.822 -0.5748  0.8508  0.7246
10464SOL    HW232844   4.014   7.721   5.746 -0.0035  0.4092  0.0017
10465SOL     OW32845   3.335   0.350   3.283  0.7125 -0.1109 -0.5235
10465SOL    HW132846   3.306   0.280   3.343  0.6460  0.6320  0.3287
10465SOL    HW232847   3.299   0.430   3.321  0.4102  0.3543 -1.7346
10466SOL     OW32848   8.261   5.049   3.289  0.1598  0.5449  0.3271
10466SOL    HW132849   8.314   4.995   3.348 -0.3148  1.7859  1.9750
10466SOL    HW232850   8.325   5.106   3.246  0.4027  0.5556  0.6898
10467SOL     OW32851   0.486   0.022   8.763 -0.2750  0.4140 -0.4943
10467SOL    HW132852   0.430  -0.020   8.829  0.3823 -0.5745 -0.5570
10467SOL    HW232853   0.455  -0.012   8.679 -0.7480  1.2514 -0.6764
10468SOL     OW32854   6.188   2.241   7.776  0.2161 -0.3004 -0.0189
10468SOL    HW132855   6.147   2.246   7.689 -0.0706  0.9935  0.1693
10468SOL    HW232856   6.230   2.155   7.778 -1.1717 -1.0368 -0.8171
10469SOL     OW32857   0.267   3.941   7.554  0.0846  0.1321 -0.4971
10469SOL    HW132858   0.182   3.965   7.591 -1.1005 -3.7183 -0.3068
10469SOL    HW232859   0.287   4.013   7.494 -2.5381  1.9137  0.5319
10470SOL     OW32860   2.561   7.422   4.328 -0.3283 -0.2878 -0.4713
10470SOL    HW132861   2.499   7.491   4.352 -2.4440 -2.4087  0.6130
10470SOL    HW232862   2.530   7.389   4.244 -1.9720 -2.6017  0.9266
10471SOL     OW32863   1.835   3.300   5.429  0.1091 -0.3750 -1.0806
10471SOL    HW132864   1.907   3.329   5.485 -1.4101  0.5520  0.5253
10471SOL    HW232865   1.793   3.230   5.478 -2.7171  2.0321  0.3042
10472SOL     OW32866   1.292   1.795   4.348  0.7783  0.5087 -0.1549
10472SOL    HW132867   1.245   1.762   4.272 -1.9173  0.5621  1.3604
10472SOL    HW232868   1.372   1.742   4.352  0.8682  0.3500 -2.8145
10473SOL     OW32869   3.273   4.774   0.578 -0.4418  0.8718  0.0039
10473SOL    HW132870   3.225   4.706   0.625 -0.4076  1.5671  1.0966
10473SOL    HW232871   3.238   4.857   0.613  0.1298  1.4043 -0.6508
10474SOL     OW32872   0.223   4.358   9.271  0.0919  0.1015 -0.1851
10474SOL    HW132873   0.140   4.324   9.237 -0.9488  1.7758  0.5522
10474SOL    HW232874   0.248   4.427   9.209  0.6881 -0.0575 -0.1310
10475SOL     OW32875   2.649   0.303   1.787 -0.0987 -0.0130 -0.5228
10475SOL    HW132876   2.566   0.350   1.779 -0.3231 -0.4468 -0.7646
10475SOL    HW232877   2.627   0.211   1.770  0.6479  0.0301 -1.8704
10476SOL     OW32878   7.045   4.375   1.176  0.4286  0.0561 -0.5269
10476SOL    HW132879   6.962   4.405   1.139  0.1465 -0.8752 -0.6824
10476SOL    HW232880   7.112   4.416   1.122  0.0514  0.0922 -0.9702
10477SOL     OW32881   9.062   1.029   5.350  0.0510 -0.0681 -0.1576
10477SOL    HW132882   9.054   0.934   5.345 -2.5928  0.1462 -1.9035
10477SOL    HW232883   9.063   1.058   5.259  1.3675  1.6089  0.3144
10478SOL     OW32884   7.859   6.204   3.158  0.4489 -0.0532  0.1614
10478SOL    HW132885   7.784   6.206   3.217 -1.6674 -0.6701 -2.3096
10478SOL    HW232886   7.910   6.283   3.180 -0.6393  0.1289  2.2185
10479SOL     OW32887   8.216   5.948   6.501  0.0361  0.3131 -0.4217
10479SOL    HW132888   8.305   5.966   6.471  0.5979 -1.6388 -0.1014
10479SOL    HW232889   8.226   5.872   6.559 -1.8667 -0.1156 -0.5929
10480SOL     OW32890   5.387   8.165   8.308  0.0514  0.3460  0.2999
10480SOL    HW132891   5.308   8.116   8.331  0.5632 -0.9496 -0.6316
10480SOL    HW232892   5.450   8.143   8.377  0.0041  0.3662  0.3493
10481SOL     OW32893   1.342   1.431   0.739 -0.1037 -0.1991 -0.4297
10481SOL    HW132894   1.404   1.461   0.672 -0.1999  1.7766  0.2952
10481SOL    HW232895   1.256   1.444   0.700 -0.2488  2.7185  0.6317
10482SOL     OW32896   3.779   7.606   4.927  0.1452 -0.0050 -0.4265
10482SOL    HW132897   3.856   7.630   4.978  0.5772  2.1403 -1.9218
10482SOL    HW232898   3.740   7.691   4.903  0.0445 -0.8459 -3.6855
10483SOL     OW32899   6.817   6.652   4.567  0.2266 -0.1279 -0.5076
10483SOL    HW132900   6.793   6.740   4.596  1.0458  0.1505 -0.6500
10483SOL    HW232901   6.734   6.604   4.563 -0.0818  0.2199  0.9589
10484SOL     OW32902   8.408   7.254   5.258 -0.0664  0.0402 -0.2056
10484SOL    HW132903   8.472   7.304   5.309 -1.7045  2.7573 -0.6018
10484SOL    HW232904   8.423   7.282   5.167 -1.2440  0.0796 -0.3990
10485SOL     OW32905   5.329   1.483   5.801 -0.0567 -0.1225  0.1466
10485SOL    HW132906   5.310   1.554   5.739 -1.2823 -0.9774 -0.4986
10485SOL    HW232907   5.383   1.422   5.752 -0.8168 -0.6779 -0.0222
10486SOL     OW32908   9.273   1.012   2.524  0.2807  0.3742 -0.2198
10486SOL    HW132909   9.224   1.016   2.606 -1.3061 -2.5670 -0.8885
10486SOL    HW232910   9.276   1.103   2.493 -3.0510  0.9716  0.8824
10487SOL     OW32911   8.510   7.183   8.753  0.1761 -0.0448 -0.1373
10487SOL    HW132912   8.516   7.091   8.728  1.2899  0.3725 -1.5679
10487SOL    HW232913   8.461   7.224   8.682  0.5121  0.6311  0.0154
10488SOL     OW32914   3.492   9.045   4.401  0.4704  0.3954 -0.2105
10488SOL    HW132915   3.423   9.106   4.428  0.1601  0.8920 -2.0210
10488SOL    HW232916   3.556   9.047   4.473 -0.0598  2.0401  0.2392
10489SOL     OW32917   0.899   0.018   0.216 -0.3239  0.0375  0.2089
10489SOL    HW132918   0.911   0.094   0.273 -0.1484  1.4878 -1.6848
10489SOL    HW232919   0.811   0.028   0.179 -0.1928 -0.5249 -0.2783
10490SOL     OW32920   1.454   7.353   4.377 -0.2502  0.1039  0.1384
10490SOL    HW132921   1.480   7.404   4.300 -1.9864 -1.1937 -1.3861
10490SOL    HW232922   1.410   7.277   4.341 -0.6185 -0.8395  2.4474
10491SOL     OW32923   4.848   7.941   5.276  0.3366 -0.0723 -0.2512
10491SOL    HW132924   4.872   7.866   5.331  1.5066 -0.3421 -1.0822
10491SOL    HW232925   4.890   8.016   5.318 -1.6256  0.3394  1.1272
10492SOL     OW32926   3.944   3.828   1.793  0.3614  0.3488 -0.1840
10492SOL    HW132927   3.955   3.786   1.708  0.8320  1.8377 -0.9039
10492SOL    HW232928   3.873   3.891   1.779 -1.5585 -1.3851  1.3527
10493SOL     OW32929   5.146   0.939   3.406 -0.4537 -0.1605  0.1947
10493SOL    HW132930   5.213   0.906   3.346 -1.8125  2.4318 -3.0009
10493SOL    HW232931   5.187   1.014   3.448 -0.4565 -0.2273  0.3171
10494SOL     OW32932   5.566   5.330   1.385 -0.3550  0.2872  0.2280
10494SOL    HW132933   5.573   5.311   1.479  0.0307 -0.4204  0.0619
10494SOL    HW232934   5.621   5.408   1.373  0.9592 -0.6092  0.3065
10495SOL     OW32935   1.815   1.064   2.771  0.3804  0.8151 -0.1569
10495SOL    HW132936   1.832   0.973   2.793  0.5743  0.7998 -0.3757
10495SOL    HW232937   1.878   1.086   2.703 -1.2663  0.3744 -1.9337
10496SOL     OW32938   2.200   7.729   3.474  0.0904  0.9857  0.1149
10496SOL    HW132939   2.278   7.751   3.424 -1.7468  2.4537 -2.3436
10496SOL    HW232940   2.144   7.806   3.466 -1.0881  0.5591  3.0022
10497SOL     OW32941   2.312   5.738   5.238 -0.2976 -0.6719 -0.1983
10497SOL    HW132942   2.223   5.728   5.270 -0.0871  0.3816  0.8122
10497SOL    HW232943   2.333   5.654   5.198 -2.0786 -0.6013 -1.3776
10498SOL     OW32944   7.852   0.242   5.251  0.6040  0.1504 -0.2200
10498SOL    HW132945   7.882   0.163   5.205  1.6442 -0.3828  1.2862
10498SOL    HW232946   7.854   0.311   5.184 -1.1912 -1.2354 -1.7978
10499SOL     OW32947   3.605   1.874   9.087  0.1762  0.5378  0.3343
10499SOL    HW132948   3.676   1.911   9.140 -0.6233  1.3137  0.9091
10499SOL    HW232949   3.647   1.809   9.031  0.9168 -1.1442  2.6904
10500SOL     OW32950   9.074   5.320   0.077  0.0920  0.1568 -0.0796
10500SOL    HW132951   9.157   5.366   0.088  0.9118 -1.5630  1.3103
10500SOL    HW232952   9.013   5.388   0.047  1.4857  1.8995  0.8594
10501SOL     OW32953   8.547   2.661   1.081 -0.6115 -0.4672 -0.2128
10501SOL    HW132954   8.462   2.618   1.093 -1.0510  0.1335 -1.0903
10501SOL    HW232955   8.610   2.600   1.119 -1.4319 -0.9043  0.4936
10502SOL     OW32956   4.141   7.693   1.123 -0.2793 -0.4601 -0.0776
10502SOL    HW132957   4.183   7.770   1.085  0.8699 -1.1595 -0.2509
10502SOL    HW232958   4.097   7.651   1.050 -0.6502 -0.1530 -0.0385
10503SOL     OW32959   2.797   2.325   7.090 -0.3232 -0.5727 -0.1456
10503SOL    HW132960   2.760   2.243   7.124 -0.5644 -0.1704  0.5640
10503SOL    HW232961   2.763   2.331   7.001  0.4925 -1.7467 -0.5715
10504SOL     OW32962   6.759   5.604   0.201  0.0650 -0.0520 -0.1564
10504SOL    HW132963   6.813   5.661   0.147  0.1892 -0.9086 -0.9748
10504SOL    HW232964   6.789   5.618   0.290  0.2240  0.9978 -0.3706
10505SOL     OW32965   0.867   3.627   0.839 -0.4710 -0.2988  0.0674
10505SOL    HW132966   0.829   3.680   0.909  1.3782 -0.3407  1.1681
10505SOL    HW232967   0.905   3.552   0.884  1.5368  0.1125 -0.8274
10506SOL     OW32968   6.992   1.738   6.902 -0.5173 -0.1850  0.2543
10506SOL    HW132969   6.944   1.737   6.984  2.5402  2.7136  2.3348
10506SOL    HW232970   7.061   1.673   6.914 -0.4689 -0.2453 -0.3133
10507SOL     OW32971   0.559   6.207   6.102 -0.1154 -0.3162 -0.2861
10507SOL    HW132972   0.502   6.222   6.027  0.4029  0.1323 -0.5913
10507SOL    HW232973   0.544   6.282   6.159 -0.4824 -0.6388  0.0440
10508SOL     OW32974   0.969   5.125   8.538  0.0303  0.1172 -0.1529
10508SOL    HW132975   0.928   5.137   8.452  0.2176 -1.7820 -0.5685
10508SOL    HW232976   0.904   5.156   8.601  0.2666  2.4573 -0.9625
10509SOL     OW32977   3.225   4.247   8.208  0.2240  0.3597  0.5818
10509SOL    HW132978   3.240   4.197   8.128 -1.3052  0.1123  0.4256
10509SOL    HW232979   3.194   4.332   8.178 -3.2552 -0.6615  0.8299
10510SOL     OW32980   4.614   4.739   0.707  0.6184 -0.1415  0.3291
10510SOL    HW132981   4.626   4.644   0.705  1.1132 -0.0737 -0.8476
10510SOL    HW232982   4.652   4.770   0.625 -0.3514  0.9863  0.2686
10511SOL     OW32983   1.277   1.149   4.571 -0.1060 -0.2055  0.1459
10511SOL    HW132984   1.348   1.158   4.635  1.4441 -0.3709 -1.4681
10511SOL    HW232985   1.204   1.113   4.621  0.8617  0.1802  1.9259
10512SOL     OW32986   8.689   2.826   3.217  0.3531 -0.2583  0.4782
10512SOL    HW132987   8.686   2.908   3.267  0.1242 -0.5973  1.0413
10512SOL    HW232988   8.753   2.842   3.148 -0.6672  0.8509 -0.2449
10513SOL     OW32989   8.621   3.895   4.591  0.1101  0.5186 -0.1292
10513SOL    HW132990   8.637   3.868   4.500 -1.0438 -1.1861  0.1201
10513SOL    HW232991   8.663   3.980   4.598  0.2515  0.6976 -2.2631
10514SOL     OW32992   6.617   0.237   0.450 -0.0267  0.1904  0.0216
10514SOL    HW132993   6.656   0.321   0.473  0.4316  0.0398 -0.1713
10514SOL    HW232994   6.678   0.200   0.385  0.6437 -1.0031  1.2866
10515SOL     OW32995   5.164   9.239   0.127 -0.1402  0.3530  0.2463
10515SOL    HW132996   5.220   9.239   0.205  0.3387  0.3758 -0.0883
10515SOL    HW232997   5.100   9.308   0.144 -1.1681 -0.8492  1.3931
10516SOL     OW32998   9.182   3.008   8.110  0.2667  0.0773 -0.4212
10516SOL    HW132999   9.267   2.967   8.097  0.2065 -0.3826  0.5143
10516SOL    HW233000   9.190   3.054   8.193 -1.0986 -2.0012  0.9873
10517SOL     OW33001   6.189   1.557   6.342  0.1229 -0.6156 -0.0396
10517SOL    HW133002   6.117   1.507   6.302 -0.0634  0.4841 -1.1500
10517SOL    HW233003   6.154   1.645   6.353  0.7934 -0.4491  0.8953
10518SOL     OW33004   0.467   6.430   6.778 -0.5673  0.0571  0.3078
10518SOL    HW133005   0.383   6.401   6.742  0.8284 -2.4766 -1.1899
10518SOL    HW233006   0.474   6.384   6.862 -0.1394 -0.7738 -0.1728
10519SOL     OW33007   0.663   5.797   8.038 -0.0704 -0.2452  0.3129
10519SOL    HW133008   0.640   5.714   8.079  0.9126 -0.9085 -0.4273
10519SOL    HW233009   0.585   5.822   7.988 -0.5476 -0.4619  0.9470
10520SOL     OW33010   2.430   3.422   0.175 -0.7880  0.1406  0.3818
10520SOL    HW133011   2.409   3.365   0.101 -0.3252  1.2826 -0.6523
10520SOL    HW233012   2.434   3.362   0.250 -0.1185 -1.2157 -0.6953
10521SOL     OW33013   8.327   5.910   2.851 -0.0142 -0.5126 -0.0383
10521SOL    HW133014   8.371   5.929   2.934 -0.3389 -0.3966  0.1083
10521SOL    HW233015   8.383   5.846   2.808 -0.9169 -2.2046  1.2091
10522SOL     OW33016   2.604   7.838   8.218 -0.4091 -0.1814 -0.1813
10522SOL    HW133017   2.622   7.856   8.311 -0.1716  0.1080 -0.2822
10522SOL    HW233018   2.670   7.774   8.193 -1.8287 -1.9660  0.4272
10523SOL     OW33019   4.088   2.873   5.722 -0.3168  0.3553 -0.7446
10523SOL    HW133020   4.093   2.784   5.688  2.1849 -0.4717  1.3912
10523SOL    HW233021   4.025   2.867   5.794  0.3267  0.1039 -0.1868
10524SOL     OW33022   6.835   1.651   1.874 -0.2021 -0.3985 -0.7556
10524SOL    HW133023   6.854   1.674   1.965  1.9949 -0.8379 -1.0479
10524SOL    HW233024   6.778   1.721   1.843 -1.4467 -0.5177  1.0833
10525SOL     OW33025   6.715   0.263   4.925  0.0357 -0.1736  0.0488
10525SOL    HW133026   6.782   0.206   4.886 -0.5497 -1.5777  1.0376
10525SOL    HW233027   6.674   0.306   4.850  1.4784  0.1011 -0.6250
10526SOL     OW33028   3.101   1.227   8.144 -0.0040 -0.0476  0.1081
10526SOL    HW133029   3.059   1.309   8.117  0.7296  0.0571 -0.7799
10526SOL    HW233030   3.178   1.256   8.193  2.0512 -0.0499 -2.8436
10527SOL     OW33031   8.620   8.855   7.304 -0.6629  0.3915  0.0373
10527SOL    HW133032   8.650   8.815   7.385 -1.6363 -1.1896 -0.3576
10527SOL    HW233033   8.678   8.821   7.236  0.1030  1.6499  0.0195
10528SOL     OW33034   2.166   6.622   3.552 -0.0669  0.1401  0.5496
10528SOL    HW133035   2.127   6.610   3.639  0.4622  0.3454  0.8223
10528SOL    HW233036   2.253   6.657   3.570  0.0191  0.2525 -0.0716
10529SOL     OW33037   5.443   1.580   8.677 -0.0143  0.5174  0.2418
10529SOL    HW133038   5.399   1.499   8.648  0.2307  0.1929  0.7627
10529SOL    HW233039   5.532   1.552   8.697 -0.3150  0.6101  1.8333
10530SOL     OW33040   8.855   4.427   2.135  0.5834 -0.2687 -0.5314
10530SOL    HW133041   8.881   4.519   2.130 -2.7719  0.8783  0.6612
10530SOL    HW233042   8.812   4.409   2.051  0.1639 -0.3753 -0.2949
10531SOL     OW33043   2.064   1.878   3.997 -0.1243  0.2167  0.2303
10531SOL    HW133044   1.971   1.879   4.020 -0.1346  0.9982  0.1780
10531SOL    HW233045   2.065   1.883   3.901 -0.0498 -1.5189  0.1048
10532SOL     OW33046   2.286   0.251   1.987  0.0370  0.8295 -0.1122
10532SOL    HW133047   2.359   0.299   2.026  0.4101  0.5805 -0.4898
10532SOL    HW233048   2.317   0.230   1.898 -0.0286 -0.2966  0.1203
10533SOL     OW33049   5.260   7.238   6.344  0.3616  0.2191  0.7520
10533SOL    HW133050   5.255   7.151   6.384 -0.3206  0.1946  0.6299
10533SOL    HW233051   5.275   7.298   6.417  1.2630 -0.0327  0.7913
10534SOL     OW33052   4.258   4.058   5.403  0.0698  0.0965 -0.3032
10534SOL    HW133053   4.170   4.043   5.438  0.0761 -0.6491 -0.5850
10534SOL    HW233054   4.313   3.995   5.449  0.2783 -0.1228 -0.8470
10535SOL     OW33055   4.534   1.640   3.667  0.7024  0.0705 -0.2444
10535SOL    HW133056   4.451   1.602   3.639  1.0999 -1.6927  0.7932
10535SOL    HW233057   4.513   1.685   3.748  0.4834  0.9464 -0.7797
10536SOL     OW33058   7.941   1.587   7.735 -0.0106  0.5108  0.0480
10536SOL    HW133059   7.973   1.616   7.650 -0.2341  1.8985  0.4136
10536SOL    HW233060   7.938   1.666   7.788 -0.7704 -0.1725  1.0692
10537SOL     OW33061   0.200   5.722   5.070 -0.4257  0.2895  0.4694
10537SOL    HW133062   0.143   5.799   5.072 -1.1488 -0.2258  0.2026
10537SOL    HW233063   0.149   5.655   5.023  0.6396  0.0043 -0.3229
10538SOL     OW33064   5.286   4.507   0.419  0.4037 -0.0200 -0.4450
10538SOL    HW133065   5.311   4.433   0.474  0.9287  0.4007 -0.1104
10538SOL    HW233066   5.347   4.576   0.443  2.0373 -0.4258 -2.9902
10539SOL     OW33067   6.232   6.807   8.434  0.0555 -0.6806  0.0102
10539SOL    HW133068   6.283   6.886   8.453 -0.2136 -0.8436  1.5168
10539SOL    HW233069   6.146   6.840   8.408 -0.4359 -0.4574  1.7952
10540SOL     OW33070   3.916   9.089   8.128  0.0501  0.8672 -0.1163
10540SOL    HW133071   3.825   9.068   8.109  0.9278 -0.8604 -3.1477
10540SOL    HW233072   3.941   9.028   8.197 -0.7472  0.5183 -0.1234
10541SOL     OW33073   3.881   0.807   7.378  0.3968 -0.1157 -0.2694
10541SOL    HW133074   3.894   0.712   7.375 -0.7533 -0.2839 -0.4059
10541SOL    HW233075   3.825   0.826   7.302  1.4199  0.8216 -0.8195
10542SOL     OW33076   2.228   0.762   8.408 -0.1690  0.1647  0.2707
10542SOL    HW133077   2.318   0.781   8.381  0.0470 -0.1267  0.7687
10542SOL    HW233078   2.174   0.807   8.344  0.3280  1.3443  0.6603
10543SOL     OW33079   8.863   0.411   4.113  0.0524 -0.2976 -0.5170
10543SOL    HW133080   8.891   0.487   4.164  1.2734 -1.0968  0.0473
10543SOL    HW233081   8.840   0.446   4.028  1.9383  0.5514 -0.7200
10544SOL     OW33082   8.864   0.530   5.825 -0.0633  0.4594  0.3387
10544SOL    HW133083   8.856   0.462   5.893  0.5009 -0.1289 -0.1773
10544SOL    HW233084   8.949   0.570   5.842  0.3218 -0.0571 -0.3554
10545SOL     OW33085   7.992   7.496   6.213  0.3714 -0.0144  0.0649
10545SOL    HW133086   7.944   7.419   6.242 -0.6614  1.0711  1.3307
10545SOL    HW233087   7.927   7.565   6.205  1.5189  1.1829  0.6106
10546SOL     OW33088   2.778   9.032   5.707  0.0603  0.7886  0.1255
10546SOL    HW133089   2.688   9.004   5.691  0.1113 -0.3281  1.5996
10546SOL    HW233090   2.770   9.124   5.732 -0.4934  1.1368 -1.2445
10547SOL     OW33091   3.036   2.073   8.160  0.0995  0.0479 -0.3383
10547SOL    HW133092   2.977   2.073   8.085  0.1986  2.1844 -0.4697
10547SOL    HW233093   3.122   2.095   8.124  0.5570 -0.8133  0.1715
10548SOL     OW33094   9.096   2.199   7.105  0.4215 -0.0889  0.2776
10548SOL    HW133095   9.041   2.133   7.147  0.6591 -0.5353 -0.1060
10548SOL    HW233096   9.105   2.268   7.171  1.1091 -0.9490  1.1143
10549SOL     OW33097   8.952   2.471   5.104 -0.2284  0.0974  0.0952
10549SOL    HW133098   9.015   2.534   5.068 -1.2764  0.1356 -1.8420
10549SOL    HW233099   8.917   2.514   5.182 -0.5426  1.7460 -0.8945
10550SOL     OW33100   5.914   8.762   2.833 -0.1071  0.4838  0.9439
10550SOL    HW133101   5.935   8.782   2.924  0.7601  0.9941  0.6465
10550SOL    HW233102   5.956   8.832   2.783  1.8394 -1.2634 -0.0413
10551SOL     OW33103   9.006   5.677   8.182  0.0783 -0.5593 -1.0227
10551SOL    HW133104   8.997   5.622   8.104 -0.1671 -0.3559 -1.1395
10551SOL    HW233105   8.924   5.665   8.230 -1.3384  1.9887 -2.5347
10552SOL     OW33106   2.882   5.277   9.171  0.0655  0.4272  0.5238
10552SOL    HW133107   2.802   5.225   9.169  1.3596 -1.6618  0.5542
10552SOL    HW233108   2.902   5.287   9.264  0.6490 -0.3853  0.4922
10553SOL     OW33109   1.776   1.155   7.884 -0.3256  0.2452 -0.2869
10553SOL    HW133110   1.732   1.224   7.935 -0.6814  0.8079 -1.3056
10553SOL    HW233111   1.755   1.074   7.931  0.7328  0.8798  1.3640
10554SOL     OW33112   6.599   2.734   0.855  0.3490  0.4992  0.1982
10554SOL    HW133113   6.507   2.709   0.859  0.5095  0.1064  2.5109
10554SOL    HW233114   6.633   2.690   0.777 -1.1943 -0.0560 -0.1903
10555SOL     OW33115   8.940   0.076   9.152 -0.5722  0.3239 -0.2125
10555SOL    HW133116   8.878   0.081   9.080 -1.3390  3.5569  0.4990
10555SOL    HW233117   9.026   0.074   9.110 -1.0341 -1.7203 -1.1801
10556SOL     OW33118   3.175   5.971   2.768  0.2856 -0.1198  0.6825
10556SOL    HW133119   3.168   6.056   2.811 -0.1228 -0.1994  0.7782
10556SOL    HW233120   3.264   5.970   2.733  0.5478  0.0328  1.3273
10557SOL     OW33121   1.752   8.646   8.900 -0.1018 -0.0606  0.2657
10557SOL    HW133122   1.835   8.695   8.900  0.2339 -0.6180  0.0779
10557SOL    HW233123   1.718   8.658   8.811  1.0130 -1.8477 -0.4650
10558SOL     OW33124   7.373   8.793   6.317  0.3529  0.1455 -0.2616
10558SOL    HW133125   7.285   8.798   6.280 -0.0788  0.3954  0.7559
10558SOL    HW233126   7.360   8.761   6.406  1.3842 -0.6959 -0.3912
10559SOL     OW33127   7.013   9.030   4.657 -0.2264 -0.1729  0.6397
10559SOL    HW133128   7.079   8.962   4.672  0.3636  0.5572  1.4786
10559SOL    HW233129   7.064   9.110   4.641 -0.9059  0.1239 -0.1134
10560SOL     OW33130   5.396   2.141   3.798 -0.7592 -0.1107  0.3048
10560SOL    HW133131   5.400   2.104   3.710  1.3027 -0.9490  0.6953
10560SOL    HW233132   5.469   2.202   3.802  0.2046 -1.2839  1.9106
10561SOL     OW33133   4.836   5.875   5.207  0.4606  0.3748 -0.1653
10561SOL    HW133134   4.788   5.926   5.142  1.8979  1.7439 -0.2231
10561SOL    HW233135   4.814   5.917   5.291 -0.0640 -0.3188  0.0538
10562SOL     OW33136   7.364   5.605   6.966  0.2294 -0.6172  0.2254
10562SOL    HW133137   7.279   5.586   7.006  1.2440 -1.0230  2.3340
10562SOL    HW233138   7.369   5.546   6.891 -0.0838 -2.9129  1.8986
10563SOL     OW33139   3.716   1.377   6.906  0.8307  0.2219 -0.1067
10563SOL    HW133140   3.794   1.330   6.876  0.4447 -0.1307 -0.5642
10563SOL    HW233141   3.642   1.324   6.876  0.2614  2.5642 -3.2598
10564SOL     OW33142   6.467   8.010   1.214  0.2311  0.5987 -0.3553
10564SOL    HW133143   6.393   7.958   1.184 -0.8896  1.1666  1.2651
10564SOL    HW233144   6.466   8.088   1.160 -0.7236  0.8571  0.0182
10565SOL     OW33145   4.977   7.222   3.801 -0.0596 -0.5606 -0.5114
10565SOL    HW133146   4.948   7.183   3.883  2.2713 -0.6472  0.3421
10565SOL    HW233147   5.030   7.155   3.759 -1.1621 -0.5028 -2.1246
10566SOL     OW33148   2.818   1.341   5.238  0.3164  0.2908  0.0551
10566SOL    HW133149   2.752   1.357   5.306 -1.5331 -1.2239 -1.2592
10566SOL    HW233150   2.832   1.246   5.241 -1.1297 -0.1233 -2.7090
10567SOL     OW33151   4.391   7.374   6.507 -0.2525 -0.0491  0.7456
10567SOL    HW133152   4.405   7.332   6.592 -0.3328  0.7392  1.1621
10567SOL    HW233153   4.377   7.467   6.528  0.1280  0.2255 -0.1606
10568SOL     OW33154   6.880   4.367   0.688  1.0030 -0.5432  0.4388
10568SOL    HW133155   6.890   4.274   0.665 -0.1459 -0.2831 -1.3516
10568SOL    HW233156   6.795   4.371   0.732 -1.1354  0.1630 -3.3441
10569SOL     OW33157   8.774   1.912   8.119  0.4775 -0.1236 -0.2099
10569SOL    HW133158   8.783   1.820   8.095 -0.2083 -1.0255  2.6857
10569SOL    HW233159   8.778   1.914   8.214  0.4617  2.8679 -0.1558
10570SOL     OW33160   0.198   3.228   3.525 -0.0304 -0.0453  0.0272
10570SOL    HW133161   0.239   3.264   3.446 -0.4043  0.8890  0.2382
10570SOL    HW233162   0.105   3.245   3.512 -0.3523 -1.9670 -0.3567
10571SOL     OW33163   5.249   6.329   1.292  0.3365 -0.2945 -0.5320
10571SOL    HW133164   5.307   6.373   1.355 -0.0918 -1.3641  0.6646
10571SOL    HW233165   5.205   6.400   1.245  0.3406  0.5518  0.6957
10572SOL     OW33166   4.265   7.864   2.094  0.5402 -0.6068 -0.1160
10572SOL    HW133167   4.237   7.914   2.171  0.8616  0.7418 -0.8407
10572SOL    HW233168   4.354   7.835   2.115  0.7978  0.1395 -0.1456
10573SOL     OW33169   2.429   8.430   6.025  0.1334 -0.0096 -0.2884
10573SOL    HW133170   2.443   8.360   5.961  1.8393 -0.3902  0.4285
10573SOL    HW233171   2.513   8.438   6.070 -1.3997 -0.9005  3.0604
10574SOL     OW33172   8.669   6.936   5.094 -0.0528  0.2391 -0.3334
10574SOL    HW133173   8.756   6.969   5.073  0.2384 -0.8083 -0.8374
10574SOL    HW233174   8.676   6.906   5.185 -0.2897  1.4239  0.0901
10575SOL     OW33175   2.940   2.823   7.436 -0.0291 -0.1732 -0.3662
10575SOL    HW133176   2.974   2.739   7.405  1.1413 -0.0974  0.6583
10575SOL    HW233177   2.906   2.865   7.358  4.3810  0.7799 -2.0692
10576SOL     OW33178   1.057   0.818   7.746 -0.3404 -0.6128  0.3593
10576SOL    HW133179   1.053   0.889   7.811  0.4750 -0.0200 -0.2118
10576SOL    HW233180   0.971   0.777   7.750 -0.3330 -0.5360  1.7505
10577SOL     OW33181   8.935   9.182   2.004 -0.4571 -0.8266 -0.5815
10577SOL    HW133182   8.883   9.177   1.924 -0.2899 -0.9927 -0.6805
10577SOL    HW233183   8.890   9.124   2.066 -1.8792  0.9914  0.1934
10578SOL     OW33184   8.218   6.876   4.894 -0.3076  1.2387 -0.4287
10578SOL    HW133185   8.196   6.882   4.987  0.6188  0.4260 -0.1374
10578SOL    HW233186   8.310   6.902   4.890 -0.0079  0.1389 -0.9402
10579SOL     OW33187   5.961   6.179   7.575 -0.2196 -0.2261 -0.4546
10579SOL    HW133188   6.031   6.120   7.544 -2.1978 -3.0926  0.1006
10579SOL    HW233189   5.890   6.167   7.512 -0.2651  2.7093 -1.0605
10580SOL     OW33190   2.804   6.627   5.419 -0.0205  0.4253 -0.1663
10580SOL    HW133191   2.857   6.675   5.482  0.1832  0.7759 -0.6039
10580SOL    HW233192   2.764   6.694   5.364 -0.8582  0.1613  0.1003
10581SOL     OW33193   2.520   8.173   4.180  1.0401 -0.4412 -0.0024
10581SOL    HW133194   2.495   8.176   4.088  1.8778 -0.3851 -0.2283
10581SOL    HW233195   2.596   8.230   4.187  0.5672  0.1184  0.8586
10582SOL     OW33196   5.967   6.522   5.110  0.4458 -0.1059  0.2702
10582SOL    HW133197   5.999   6.609   5.131  2.5024 -0.8855  0.6286
10582SOL    HW233198   5.987   6.510   5.017 -1.7338  0.5283 -0.3323
10583SOL     OW33199   7.166   0.606   3.611  0.2854  0.1432  0.0946
10583SOL    HW133200   7.130   0.686   3.649 -2.0866 -0.9416  0.3259
10583SOL    HW233201   7.187   0.629   3.520 -0.3599  1.0143  0.1564
10584SOL     OW33202   6.698   2.695   1.783  0.1684  0.2112  0.6690
10584SOL    HW133203   6.767   2.711   1.718  0.8408 -0.1900  1.2723
10584SOL    HW233204   6.674   2.604   1.772 -1.6539  0.8084 -0.8332
10585SOL     OW33205   8.352   4.214   0.485  0.4178  0.5137 -0.3941
10585SOL    HW133206   8.297   4.136   0.489 -0.4902  1.1399 -0.5633
10585SOL    HW233207   8.291   4.287   0.474  1.2538  1.2558 -0.2418
10586SOL     OW33208   6.888   3.083   3.494 -0.1576  0.2329 -0.6900
10586SOL    HW133209   6.872   3.133   3.414 -0.4071 -1.4130 -1.7220
10586SOL    HW233210   6.833   3.125   3.560 -0.0191  1.5680 -1.3895
10587SOL     OW33211   7.983   1.757   7.975  0.2004  0.2068  0.0119
10587SOL    HW133212   7.987   1.681   8.034  1.1737 -0.3566 -0.7411
10587SOL    HW233213   8.013   1.831   8.028 -0.2462 -0.0340  0.6060
10588SOL     OW33214   2.544   7.811   2.987  0.0273 -0.2016 -0.0171
10588SOL    HW133215   2.584   7.734   2.945  1.2263  0.8981 -1.0044
10588SOL    HW233216   2.602   7.830   3.061 -0.9727 -0.9705  0.9768
10589SOL     OW33217   1.258   5.844   0.857  0.3717 -0.4553 -0.0153
10589SOL    HW133218   1.192   5.867   0.791 -1.1781 -0.3571  1.5038
10589SOL    HW233219   1.211   5.844   0.940  2.6631  1.3029  1.4042
10590SOL     OW33220   1.542   1.346   5.370  0.2078  0.4198  0.8838
10590SOL    HW133221   1.480   1.418   5.370  1.0137  1.1584 -0.4816
10590SOL    HW233222   1.570   1.338   5.279  1.8764 -0.0867  1.4018
10591SOL     OW33223   6.884   3.184   4.999  0.3583  0.3072 -0.7857
10591SOL    HW133224   6.856   3.245   4.931 -0.3163  0.6866 -0.1757
10591SOL    HW233225   6.827   3.202   5.073  1.6399  0.4975  0.1982
10592SOL     OW33226   1.506   0.059   3.330  0.8137  0.5274  0.0906
10592SOL    HW133227   1.595   0.077   3.361  1.0991  0.0952 -0.4426
10592SOL    HW233228   1.518  -0.008   3.263 -0.1378 -1.2775  1.6395
10593SOL     OW33229   7.092   0.155   8.596 -0.1335 -0.0594 -0.6003
10593SOL    HW133230   7.184   0.126   8.597  0.1636  0.7015  2.1259
10593SOL    HW233231   7.090   0.225   8.531  1.1220 -0.3483 -0.9787
10594SOL     OW33232   2.233   8.412   8.806  0.4192 -0.2981  0.3091
10594SOL    HW133233   2.227   8.406   8.901  0.9843 -1.3482  0.2904
10594SOL    HW233234   2.145   8.436   8.777  0.7442  2.4619  1.2422
10595SOL     OW33235   2.128   6.146   2.889  0.4560  0.4162 -0.1937
10595SOL    HW133236   2.203   6.186   2.844 -0.0885  0.8846 -0.7046
10595SOL    HW233237   2.137   6.052   2.873  1.3903  0.3834  0.4601
10596SOL     OW33238   4.624   4.879   7.355  0.0322  0.3554  0.2290
10596SOL    HW133239   4.617   4.853   7.446 -0.4235 -1.1682 -0.2131
10596SOL    HW233240   4.685   4.816   7.317  1.3516  1.8397 -0.2231
10597SOL     OW33241   8.348   8.914   2.366  0.3988 -0.0981  0.2278
10597SOL    HW133242   8.385   9.002   2.362  1.1869 -0.4270  0.0866
10597SOL    HW233243   8.351   8.882   2.276 -0.1891 -0.1531  0.2238
10598SOL     OW33244   2.985   6.659   7.140 -0.9367 -0.6361  0.4172
10598SOL    HW133245   2.938   6.607   7.075 -1.4502 -0.3532  0.5557
10598SOL    HW233246   3.077   6.649   7.116 -1.0571 -1.2558  0.1855
10599SOL     OW33247   8.249   7.603   1.621 -0.3778 -0.9018 -0.0984
10599SOL    HW133248   8.286   7.632   1.704 -0.5087  1.4950 -0.8250
10599SOL    HW233249   8.293   7.520   1.603  3.2840  0.8426  0.0254
10600SOL     OW33250   6.775   3.831   0.488  0.0175 -0.0963  0.1038
10600SOL    HW133251   6.734   3.844   0.403 -0.6514  0.6616  0.5408
10600SOL    HW233252   6.844   3.766   0.471 -1.1735 -1.1910 -0.6868
10601SOL     OW33253   7.851   6.840   3.269  0.4517 -0.8836 -0.1384
10601SOL    HW133254   7.768   6.801   3.240  0.6267 -1.1913 -0.2278
10601SOL    HW233255   7.837   6.857   3.363 -0.5902  1.3229 -0.6135
10602SOL     OW33256   8.136   6.311   5.865 -0.0614 -0.1236 -0.1099
10602SOL    HW133257   8.201   6.270   5.809 -0.1244 -1.4688  0.7256
10602SOL    HW233258   8.119   6.396   5.826  2.6713  0.5529  0.0229
10603SOL     OW33259   0.527   1.443   0.207 -0.0266 -0.1310 -0.2167
10603SOL    HW133260   0.477   1.466   0.129 -1.2673 -1.0515  0.2760
10603SOL    HW233261   0.526   1.348   0.210  0.5521 -0.1252  0.5806
10604SOL     OW33262   1.151   6.023   7.921 -0.5814  0.0837  0.1279
10604SOL    HW133263   1.103   5.994   7.843  0.6418 -2.4382  0.2300
10604SOL    HW233264   1.085   6.031   7.989 -1.0918 -2.2644 -0.0098
10605SOL     OW33265   1.729   1.553   8.450 -0.7487 -0.5146 -0.0938
10605SOL    HW133266   1.736   1.460   8.473 -1.3063 -0.6329 -0.3747
10605SOL    HW233267   1.636   1.573   8.462 -0.5755  0.0967  0.2857
10606SOL     OW33268   8.442   1.045   3.950 -0.2838  0.2360  0.4972
10606SOL    HW133269   8.443   1.046   3.854  1.5669 -1.1783  0.4536
10606SOL    HW233270   8.521   1.092   3.975 -0.7425  0.5672  1.3569
10607SOL     OW33271   2.646   7.745   3.573  0.6045  0.2273  0.2083
10607SOL    HW133272   2.637   7.827   3.621 -2.1557 -0.1950  0.5702
10607SOL    HW233273   2.675   7.682   3.639  0.1314  0.3633  0.5526
10608SOL     OW33274   3.671   3.317   4.431 -0.0478 -0.2423  0.0272
10608SOL    HW133275   3.613   3.377   4.384  0.4256 -0.4719 -0.8728
10608SOL    HW233276   3.618   3.284   4.503 -0.1087  1.7936  0.9944
10609SOL     OW33277   7.735   5.814   8.516  0.4490 -0.0587 -0.0197
10609SOL    HW133278   7.732   5.729   8.472 -2.4438 -0.5407  0.8887
10609SOL    HW233279   7.693   5.875   8.455 -0.4397 -0.0042  0.6255
10610SOL     OW33280   0.499   5.068   1.163 -0.0950  0.2230  0.0051
10610SOL    HW133281   0.449   4.997   1.122  0.7924 -0.9037  0.7863
10610SOL    HW233282   0.456   5.082   1.247 -0.6288  1.0413 -0.3985
10611SOL     OW33283   6.021   2.383   8.317  0.0368  0.1831 -0.4699
10611SOL    HW133284   5.977   2.306   8.352  1.5118 -1.4995 -2.0670
10611SOL    HW233285   6.095   2.347   8.267  0.4949  2.6208 -1.6872
10612SOL     OW33286   7.804   4.509   0.242 -0.4052  0.0950  0.1303
10612SOL    HW133287   7.834   4.598   0.261  2.0768 -0.9100  1.4411
10612SOL    HW233288   7.794   4.508   0.147 -0.6279  1.7992  0.0955
10613SOL     OW33289   3.711   2.936   3.364  0.0685 -0.1859  0.4584
10613SOL    HW133290   3.743   3.013   3.318 -1.7349  0.4792  0.2369
10613SOL    HW233291   3.774   2.921   3.434  0.1344  1.8572  0.8715
10614SOL     OW33292   7.355   0.395   0.795  0.6893 -0.6639  0.2424
10614SOL    HW133293   7.328   0.482   0.766  1.4751 -1.5214 -3.6388
10614SOL    HW233294   7.447   0.405   0.819  0.7733 -0.3641 -0.1777
10615SOL     OW33295   6.400   1.027   2.949  0.1907 -0.7582 -0.0473
10615SOL    HW133296   6.342   1.040   2.874 -0.3550  0.2093  0.5230
10615SOL    HW233297   6.488   1.027   2.912 -0.0289  0.4058 -0.6148
10616SOL     OW33298   5.357   5.226   7.285  0.6344 -0.1815 -0.0306
10616SOL    HW133299   5.288   5.162   7.303 -1.0620  1.7011  0.6750
10616SOL    HW233300   5.340   5.256   7.196  2.2713 -1.6449 -0.8726
10617SOL     OW33301   5.908   4.626   1.733 -0.3774 -0.2113 -0.0346
10617SOL    HW133302   6.002   4.642   1.727 -0.1754 -1.5211 -0.6645
10617SOL    HW233303   5.885   4.584   1.650 -1.4098 -0.4394  0.3463
10618SOL     OW33304   6.428   4.776   1.978  0.0908 -0.0271  0.0312
10618SOL    HW133305   6.364   4.811   2.040  0.6165 -1.3347  1.3699
10618SOL    HW233306   6.504   4.832   1.986 -0.6915  1.2912 -1.2725
10619SOL     OW33307   1.423   0.213   7.264  0.5596 -0.2703  0.3797
10619SOL    HW133308   1.336   0.248   7.241  0.7327 -0.5177 -0.6847
10619SOL    HW233309   1.440   0.146   7.198  2.3572  1.0579 -0.5947
10620SOL     OW33310   4.438   0.283   1.251 -0.4796  0.0860  0.3193
10620SOL    HW133311   4.362   0.341   1.244  0.6064  1.3352 -2.1010
10620SOL    HW233312   4.412   0.204   1.203 -0.2413  0.5650 -0.6205
10621SOL     OW33313   8.860   3.170   5.712 -0.0674  0.2832  0.0017
10621SOL    HW133314   8.792   3.106   5.732  2.0056 -2.1077 -0.1181
10621SOL    HW233315   8.822   3.225   5.644 -2.4957  0.2411  1.2176
10622SOL     OW33316   3.236   2.300   4.926 -0.3271  0.2366 -0.1788
10622SOL    HW133317   3.163   2.294   4.988 -0.4717  1.9836 -0.1303
10622SOL    HW233318   3.195   2.288   4.840 -0.5693  0.4379 -0.0966
10623SOL     OW33319   7.585   4.404   4.359 -0.2472 -0.0082 -0.1652
10623SOL    HW133320   7.610   4.415   4.451 -0.8146  0.5641 -0.0734
10623SOL    HW233321   7.553   4.314   4.354 -0.5947  0.0815  0.2929
10624SOL     OW33322   0.515   5.650   4.422 -0.1450  0.5985  0.1963
10624SOL    HW133323   0.594   5.675   4.471 -0.0357  0.7946 -0.0796
10624SOL    HW233324   0.464   5.730   4.417  0.6356  1.0386 -1.5087
10625SOL     OW33325   5.129   5.138   6.411  0.4286 -0.0286 -0.1318
10625SOL    HW133326   5.215   5.179   6.421  1.0769 -1.2040 -0.7248
10625SOL    HW233327   5.092   5.137   6.499  0.9861  0.5352  0.1208
10626SOL     OW33328   6.921   7.349   2.250  0.4536 -0.9798  0.1792
10626SOL    HW133329   6.969   7.322   2.329  1.4467 -0.3326 -0.1826
10626SOL    HW233330   6.989   7.367   2.186 -0.1908  1.1127  0.0100
10627SOL     OW33331   5.956   7.264   0.401 -0.5682 -0.3133 -0.3485
10627SOL    HW133332   5.929   7.211   0.476  0.9796 -1.1590 -0.3470
10627SOL    HW233333   6.041   7.300   0.426 -0.7153  0.6235 -1.1222
10628SOL     OW33334   7.005   0.331   4.120 -0.1671 -0.2839 -0.2223
10628SOL    HW133335   7.091   0.328   4.078 -0.7310 -0.8735 -1.3557
10628SOL    HW233336   7.020   0.292   4.206  0.6419 -0.6253 -0.5066
10629SOL     OW33337   7.121   0.541   0.088  0.1925 -0.2046 -0.5688
10629SOL    HW133338   7.079   0.472   0.037  0.0517  0.1256 -0.9065
10629SOL    HW233339   7.193   0.571   0.033 -2.1792  2.7922 -2.4038
10630SOL     OW33340   6.748   1.094   7.782  0.1023 -0.0774  0.1327
10630SOL    HW133341   6.735   1.076   7.689  0.3925 -2.4721  0.5077
10630SOL    HW233342   6.661   1.084   7.821  0.3470 -1.1229  0.4180
10631SOL     OW33343   2.276   2.188   2.090 -0.1500  0.2058 -0.2580
10631SOL    HW133344   2.218   2.241   2.145 -1.4064 -0.0338 -1.2887
10631SOL    HW233345   2.288   2.241   2.011  1.7507  0.6126  0.2413
10632SOL     OW33346   0.574   4.142   1.394  0.3015 -0.4241 -0.1630
10632SOL    HW133347   0.557   4.233   1.371  1.4200 -0.3991 -0.9949
10632SOL    HW233348   0.669   4.137   1.406  0.0884 -1.1425  1.4730
10633SOL     OW33349   0.844   2.853   6.870 -0.6522  0.2566 -0.3594
10633SOL    HW133350   0.802   2.816   6.948  0.1544  1.1449  0.5305
10633SOL    HW233351   0.934   2.869   6.897 -0.0717 -0.4196 -1.8336
10634SOL     OW33352   1.821   2.703   7.952  0.1671 -0.5466 -0.2543
10634SOL    HW133353   1.847   2.619   7.988 -0.5420 -0.6167  0.1011
10634SOL    HW233354   1.879   2.767   7.994 -1.6482 -0.4088  2.3053
10635SOL     OW33355   0.043   5.242   6.969  0.1337  0.0498 -0.4324
10635SOL    HW133356   0.054   5.333   6.998 -0.7054  0.1325 -0.3405
10635SOL    HW233357  -0.026   5.207   7.026  1.2961 -1.0296  0.3632
10636SOL     OW33358   1.329   5.684   0.335  0.3451 -0.1638  0.0904
10636SOL    HW133359   1.394   5.613   0.339  0.7585  0.1123 -1.2025
10636SOL    HW233360   1.252   5.644   0.293  0.6961  0.1995 -0.9516
10637SOL     OW33361   2.951   6.721   0.138 -0.8472  0.0031  0.5545
10637SOL    HW133362   2.935   6.765   0.054  1.5707  0.3612  0.2044
10637SOL    HW233363   2.978   6.632   0.114 -1.9125 -0.4830  1.0768
10638SOL     OW33364   8.761   5.704   6.726 -0.6193 -0.6847  0.2622
10638SOL    HW133365   8.695   5.740   6.785 -0.4714  0.0784 -0.0240
10638SOL    HW233366   8.732   5.732   6.639  0.1787 -0.1741  0.1479
10639SOL     OW33367   3.629   6.497   4.730  0.0876 -0.9095  0.3157
10639SOL    HW133368   3.698   6.431   4.739  0.0883 -1.1772 -1.2335
10639SOL    HW233369   3.553   6.458   4.774  0.5650 -1.1817  0.9133
10640SOL     OW33370   8.689   5.171   0.143 -0.5341 -0.9508 -0.8702
10640SOL    HW133371   8.611   5.215   0.109 -1.8869 -0.6645  2.2206
10640SOL    HW233372   8.674   5.078   0.127 -1.1037 -0.8267 -1.0717
10641SOL     OW33373   6.070   1.363   7.642  0.4320 -0.3170 -0.3593
10641SOL    HW133374   6.134   1.433   7.654 -1.7317  2.0521 -1.6732
10641SOL    HW233375   5.987   1.401   7.670 -0.7025 -2.7030 -0.2526
10642SOL     OW33376   1.074   5.870   5.749  0.3871  0.4105  0.2134
10642SOL    HW133377   1.052   5.896   5.838 -0.3930  1.1286 -0.1764
10642SOL    HW233378   1.056   5.947   5.696 -0.4190 -0.4151 -0.7486
10643SOL     OW33379   2.130   2.896   7.197 -0.5563 -0.7263  0.1244
10643SOL    HW133380   2.162   2.841   7.268  2.0765 -2.7624 -2.3585
10643SOL    HW233381   2.171   2.980   7.211  2.0242 -1.8401 -0.2205
10644SOL     OW33382   2.902   7.534   1.612 -0.4107  0.1573  0.8922
10644SOL    HW133383   2.828   7.489   1.655 -2.4520  0.9788 -1.5168
10644SOL    HW233384   2.904   7.620   1.653 -0.0561 -0.2375  1.7258
10645SOL     OW33385   8.458   1.189   7.842  0.2062 -0.5293 -0.3666
10645SOL    HW133386   8.365   1.182   7.864  0.1331 -0.7002 -0.7138
10645SOL    HW233387   8.499   1.117   7.890  0.3309  0.2203  0.6698
10646SOL     OW33388   7.897   3.487   2.126  0.4260 -0.1203  0.5054
10646SOL    HW133389   7.917   3.413   2.183 -0.3335 -0.9714 -0.3294
10646SOL    HW233390   7.823   3.459   2.073  1.1533  0.6219 -0.9734
10647SOL     OW33391   8.534   4.835   1.583 -0.1641 -0.3055 -0.2434
10647SOL    HW133392   8.587   4.909   1.556 -0.9867  0.2692 -0.3051
10647SOL    HW233393   8.473   4.871   1.648  0.2408 -1.1794  0.6463
10648SOL     OW33394   0.365   5.418   4.373  0.4739  0.6634  0.1257
10648SOL    HW133395   0.424   5.490   4.392  0.9497  0.2539  0.2097
10648SOL    HW233396   0.400   5.378   4.294 -0.5829  1.3732 -0.7167
10649SOL     OW33397   0.163   6.526   7.581  0.3122  0.3947  0.2551
10649SOL    HW133398   0.077   6.497   7.551  0.5323 -0.8924  0.7861
10649SOL    HW233399   0.212   6.544   7.501 -0.1231  0.1294 -0.0732
10650SOL     OW33400   6.708   1.868   4.576  0.4046  0.6370  0.1386
10650SOL    HW133401   6.640   1.901   4.635  0.1753  1.5195 -0.5928
10650SOL    HW233402   6.661   1.809   4.517  0.5026  0.3093  0.3855
10651SOL     OW33403   0.502   9.217   2.706 -0.3611  0.3038  0.0983
10651SOL    HW133404   0.561   9.192   2.776 -0.3752 -0.2767 -0.0933
10651SOL    HW233405   0.557   9.218   2.627 -0.3084  1.1106  0.1350
10652SOL     OW33406   4.710   6.712   8.151  0.0447  0.6908  0.0365
10652SOL    HW133407   4.654   6.781   8.116 -1.4620 -0.1241  0.7826
10652SOL    HW233408   4.676   6.631   8.113  0.2780  0.1102  1.0202
10653SOL     OW33409   1.511   6.479   3.745  0.2212  0.4611  0.6078
10653SOL    HW133410   1.563   6.432   3.680  0.1539  2.3569 -0.8929
10653SOL    HW233411   1.448   6.414   3.777 -0.5280 -0.2903 -2.1035
10654SOL     OW33412   9.279   5.505   2.504 -0.3697 -0.1482 -0.2887
10654SOL    HW133413   9.187   5.497   2.529 -0.2895  1.8999  0.8517
10654SOL    HW233414   9.327   5.467   2.577 -0.2693 -1.0266 -0.7926
10655SOL     OW33415   3.808   5.372   5.415  0.6211  0.0416  0.1581
10655SOL    HW133416   3.836   5.321   5.491  0.0828  0.1772  0.4572
10655SOL    HW233417   3.830   5.463   5.437  0.6851  0.0525  0.0496
10656SOL     OW33418   7.716   6.211   5.218 -0.2001  0.1806 -0.3734
10656SOL    HW133419   7.730   6.261   5.298  0.4609 -0.7878  0.1250
10656SOL    HW233420   7.675   6.130   5.247 -0.8822  0.2346 -1.1360
10657SOL     OW33421   7.035   2.731   3.185  0.0798  0.2293 -0.0564
10657SOL    HW133422   7.016   2.786   3.261 -1.0341 -0.3786  0.1361
10657SOL    HW233423   7.080   2.788   3.124  0.6866  0.8243  0.9209
10658SOL     OW33424   9.180   6.422   6.013  0.0139  0.1842 -0.1816
10658SOL    HW133425   9.247   6.450   6.075  0.4760  0.5200 -0.8210
10658SOL    HW233426   9.109   6.486   6.023  0.8413  1.3182 -1.2593
10659SOL     OW33427   4.451   3.257   1.144  0.4322  0.4170 -0.0245
10659SOL    HW133428   4.379   3.291   1.197 -0.4033 -1.2357 -0.0288
10659SOL    HW233429   4.449   3.162   1.159  1.9613  0.2238 -0.8408
10660SOL     OW33430   2.418   4.399   3.454 -0.5142  0.3075 -0.0768
10660SOL    HW133431   2.405   4.454   3.530 -3.2831  0.7869 -0.7634
10660SOL    HW233432   2.498   4.431   3.413 -0.5548  1.9441  1.0608
10661SOL     OW33433   3.432   5.859   1.899 -0.7193  0.3114 -0.1876
10661SOL    HW133434   3.482   5.938   1.919 -1.6072  0.7738  0.2143
10661SOL    HW233435   3.400   5.873   1.809 -1.7201  0.8657  0.2435
10662SOL     OW33436   7.547   4.404   6.637 -0.1913 -0.3230 -0.2234
10662SOL    HW133437   7.495   4.459   6.695  1.4765  0.1258  0.9367
10662SOL    HW233438   7.504   4.411   6.552 -0.9509  1.4864  0.2609
10663SOL     OW33439   0.015   5.192   1.083 -0.4267  0.3541 -0.1754
10663SOL    HW133440   0.094   5.241   1.060 -0.6228 -0.1283 -2.0134
10663SOL    HW233441   0.033   5.159   1.171  0.7050  1.6560  0.1311
10664SOL     OW33442   2.988   4.383   0.931  0.0998 -0.2878  0.3848
10664SOL    HW133443   2.949   4.458   0.886  2.0729  0.5358 -0.0688
10664SOL    HW233444   2.941   4.307   0.896  1.1197  0.3609 -2.7267
10665SOL     OW33445   3.251   1.483   1.335 -0.0913  0.2517  0.0560
10665SOL    HW133446   3.328   1.455   1.384  0.1733  0.8616 -0.0051
10665SOL    HW233447   3.190   1.409   1.342  0.9347 -0.7036 -0.8643
10666SOL     OW33448   1.299   6.264   9.100  0.6788 -0.4058 -0.3714
10666SOL    HW133449   1.325   6.276   9.009 -0.4714 -1.3224 -0.8502
10666SOL    HW233450   1.377   6.230   9.143  1.3041  0.2690 -0.9519
10667SOL     OW33451   3.894   7.888   8.472 -0.1603  0.3273 -0.7862
10667SOL    HW133452   3.851   7.837   8.403 -0.4880  0.1675 -0.4684
10667SOL    HW233453   3.986   7.865   8.464 -0.2522 -0.0135 -0.9057
10668SOL     OW33454   6.925   7.526   3.279 -0.2745 -0.1798 -0.0500
10668SOL    HW133455   7.018   7.545   3.286 -0.3060 -0.1065  0.1683
10668SOL    HW233456   6.915   7.439   3.317 -0.3948  0.0836  0.5323
10669SOL     OW33457   2.707   5.951   9.109 -0.3063 -0.8334  0.2430
10669SOL    HW133458   2.646   5.993   9.170  0.4300  0.1536  0.3247
10669SOL    HW233459   2.655   5.937   9.029 -0.2252  1.7064 -0.3614
10670SOL     OW33460   7.014   7.509   4.754 -0.3218 -0.0710 -0.0958
10670SOL    HW133461   7.051   7.591   4.787 -1.3473  0.3329  0.0670
10670SOL    HW233462   7.033   7.444   4.822  1.3477 -0.2110 -0.6469
10671SOL     OW33463   7.510   1.809   8.289  0.6266 -0.1852  0.3278
10671SOL    HW133464   7.577   1.826   8.356  1.7012  1.4371 -1.0798
10671SOL    HW233465   7.485   1.896   8.258 -1.0236 -0.8437 -0.2848
10672SOL     OW33466   3.560   4.642   0.561  0.0204 -0.7221  0.2857
10672SOL    HW133467   3.552   4.563   0.508 -0.9337  0.6488 -1.7494
10672SOL    HW233468   3.575   4.610   0.650 -1.5720 -3.2019 -0.2435
10673SOL     OW33469   5.820   0.303   6.306  0.0382  0.3814  0.3544
10673SOL    HW133470   5.915   0.301   6.294  0.1423  0.5123  1.1084
10673SOL    HW233471   5.792   0.213   6.290  0.1352  0.5551 -0.9645
10674SOL     OW33472   4.066   7.007   5.934  0.3329 -0.1890  0.4570
10674SOL    HW133473   4.137   6.990   5.873 -0.2668 -0.5273 -0.1629
10674SOL    HW233474   4.078   7.098   5.960  0.2426  0.1527 -0.6483
10675SOL     OW33475   4.953   3.625   3.283 -0.3213 -0.4117 -0.5848
10675SOL    HW133476   4.954   3.590   3.372 -4.0678  0.7748  0.0969
10675SOL    HW233477   5.030   3.682   3.280  1.8620 -3.0440  0.6138
10676SOL     OW33478   4.654   7.132   8.888 -0.1036  1.0032 -0.1457
10676SOL    HW133479   4.673   7.129   8.982  0.4966  0.0910 -0.2774
10676SOL    HW233480   4.715   7.197   8.853  0.1044  0.8898  0.0038
10677SOL     OW33481   7.821   6.924   4.324 -0.2437 -0.1044 -0.3595
10677SOL    HW133482   7.755   6.940   4.391  1.2334 -0.1373  1.1765
10677SOL    HW233483   7.844   6.832   4.333  0.2772 -0.0049 -0.6084
10678SOL     OW33484   6.211   8.735   7.794 -0.2071 -0.5764  0.0886
10678SOL    HW133485   6.293   8.690   7.777  0.8012  1.0875  0.2389
10678SOL    HW233486   6.237   8.826   7.809 -1.9991 -0.1640  0.9940
10679SOL     OW33487   9.174   7.687   0.498  0.0030  0.0245 -0.1970
10679SOL    HW133488   9.135   7.707   0.413 -1.0689 -1.0653 -0.0043
10679SOL    HW233489   9.212   7.599   0.487  0.9650  0.3939  0.0966
10680SOL     OW33490   1.642   1.337   8.030  0.1935  0.1121 -0.9367
10680SOL    HW133491   1.705   1.408   8.046  0.4343 -0.4145  0.5632
10680SOL    HW233492   1.625   1.300   8.117 -2.0787  0.1377 -1.3285
10681SOL     OW33493   5.873   8.901   3.424  0.2385  0.8837 -0.3227
10681SOL    HW133494   5.936   8.841   3.383  0.4596  1.8716 -1.4863
10681SOL    HW233495   5.790   8.881   3.382  0.0722  0.6362  0.1113
10682SOL     OW33496   1.264   2.662   7.712  0.0574 -0.7603 -0.1062
10682SOL    HW133497   1.255   2.757   7.717 -2.5071 -0.9939  1.9940
10682SOL    HW233498   1.255   2.642   7.619 -0.2612  0.9827 -0.4876
10683SOL     OW33499   0.810   5.365   7.551 -0.1413  0.5136 -0.4419
10683SOL    HW133500   0.831   5.343   7.460  0.3097  0.7500 -0.3985
10683SOL    HW233501   0.717   5.387   7.549 -1.0113 -2.6693 -0.2366
10684SOL     OW33502   8.907   7.178   3.599 -0.3105 -0.6495 -0.0931
10684SOL    HW133503   8.852   7.228   3.659 -1.4934 -2.8497  0.7778
10684SOL    HW233504   8.978   7.144   3.654  0.8708  0.5531 -0.8114
10685SOL     OW33505   2.129   6.791   4.945  0.0749  0.3065 -0.0652
10685SOL    HW133506   2.161   6.762   4.860 -0.4127  2.2120 -0.9665
10685SOL    HW233507   2.058   6.732   4.966  0.9587 -0.9068 -0.4023
10686SOL     OW33508   5.212   4.557   2.016 -0.0382 -0.2719 -0.0259
10686SOL    HW133509   5.201   4.463   2.007 -0.2514 -0.4317  1.6605
10686SOL    HW233510   5.230   4.571   2.109  0.1849  1.3368 -0.2735
10687SOL     OW33511   0.555   6.312   2.934  0.5327  0.3085 -0.6335
10687SOL    HW133512   0.626   6.307   2.998  1.1175  1.7495 -1.1119
10687SOL    HW233513   0.478   6.281   2.981  1.0803  0.6825  0.5640
10688SOL     OW33514   3.341   6.671   1.197  0.4791 -0.1187  0.0173
10688SOL    HW133515   3.407   6.684   1.265  1.2514  1.9844 -1.0463
10688SOL    HW233516   3.264   6.718   1.229 -0.7970 -2.8842  1.4382
10689SOL     OW33517   5.534   3.617   7.973  0.3580  0.3705  0.1335
10689SOL    HW133518   5.527   3.610   8.068 -0.4474  1.1442  0.1410
10689SOL    HW233519   5.444   3.628   7.942  0.5948 -0.0565 -0.7360
10690SOL     OW33520   6.516   0.756   5.560 -0.1443  0.0629  0.1920
10690SOL    HW133521   6.429   0.772   5.523 -0.1350 -1.2381 -0.4431
10690SOL    HW233522   6.501   0.750   5.655 -1.2557 -2.8897 -0.0807
10691SOL     OW33523   0.490   7.425   0.804  0.0506 -0.2452 -0.0607
10691SOL    HW133524   0.462   7.401   0.715  0.5793  0.6275 -0.4808
10691SOL    HW233525   0.511   7.519   0.798 -1.0190  0.1122  1.2754
10692SOL     OW33526   2.716   3.539   3.865  0.3873 -0.0747 -0.1115
10692SOL    HW133527   2.801   3.543   3.821  0.4184 -2.4925 -0.3585
10692SOL    HW233528   2.722   3.464   3.924 -0.7211  1.2653  1.8316
10693SOL     OW33529   8.584   0.776   5.483  0.0931 -0.2239  0.2740
10693SOL    HW133530   8.666   0.757   5.437  0.9273  1.8613  0.7796
10693SOL    HW233531   8.611   0.797   5.572 -0.8814  1.1955  0.2674
10694SOL     OW33532   3.534   9.279   3.800  0.0382  0.2366 -0.2278
10694SOL    HW133533   3.528   9.299   3.706 -0.1300 -1.9291 -0.7376
10694SOL    HW233534   3.443   9.282   3.830 -0.1893 -1.2094 -0.6752
10695SOL     OW33535   7.305   0.684   1.383 -0.3290 -0.3324  0.0228
10695SOL    HW133536   7.223   0.725   1.356 -1.6897 -1.9561  1.4690
10695SOL    HW233537   7.280   0.597   1.413  2.0827 -1.2609 -0.4238
10696SOL     OW33538   9.196   4.131   5.952 -0.2905 -0.2522  0.3538
10696SOL    HW133539   9.138   4.204   5.971 -0.0083  0.1669 -0.3689
10696SOL    HW233540   9.188   4.073   6.028 -0.2519  0.6955  1.0938
10697SOL     OW33541   0.252   8.486   9.188  0.1370  0.3142 -1.1660
10697SOL    HW133542   0.298   8.561   9.150 -1.4640  1.1424 -1.5459
10697SOL    HW233543   0.193   8.525   9.253  0.1919 -0.7500 -0.4601
10698SOL     OW33544   6.908   5.968   2.673  0.8941 -0.2249 -0.0818
10698SOL    HW133545   6.915   5.876   2.699 -0.4668 -0.4992 -0.6151
10698SOL    HW233546   6.966   5.977   2.598 -0.6309 -1.2190 -1.4292
10699SOL     OW33547   0.894   6.842   1.393 -0.0739 -0.0620  0.1744
10699SOL    HW133548   0.826   6.890   1.348  1.7282  0.7439 -1.8558
10699SOL    HW233549   0.852   6.810   1.473 -2.9368 -0.0839 -1.2227
10700SOL     OW33550   6.189   2.598   1.355  0.1097  0.0560 -0.1420
10700SOL    HW133551   6.195   2.516   1.404  1.1818  0.8783  1.1828
10700SOL    HW233552   6.146   2.574   1.273 -0.4824 -1.6369  0.6205
10701SOL     OW33553   0.823   7.408   7.389 -0.5419 -0.3376 -0.4637
10701SOL    HW133554   0.888   7.460   7.341 -1.7407  1.4191 -0.2344
10701SOL    HW233555   0.740   7.427   7.346 -1.2410 -0.8973  0.5914
10702SOL     OW33556   3.772   8.324   8.294 -0.2059 -0.4195  0.1365
10702SOL    HW133557   3.803   8.254   8.352 -0.6112 -0.1239  0.7243
10702SOL    HW233558   3.731   8.278   8.221 -0.7237 -0.8106  0.6564
10703SOL     OW33559   8.020   3.482   2.689  0.7275 -0.1447 -0.1907
10703SOL    HW133560   8.005   3.391   2.714  0.7038 -0.3342 -0.8835
10703SOL    HW233561   7.951   3.502   2.626  0.1598  0.6476  0.6603
10704SOL     OW33562   8.479   5.216   3.337 -0.6809  0.2904 -0.0338
10704SOL    HW133563   8.496   5.164   3.416 -2.1486 -0.8534 -0.4443
10704SOL    HW233564   8.450   5.301   3.371 -1.2522 -0.1728  0.6760
10705SOL     OW33565   7.852   2.253   7.066 -0.1528 -0.0174  0.1078
10705SOL    HW133566   7.871   2.341   7.033 -0.2617  0.0992  0.3528
10705SOL    HW233567   7.932   2.227   7.113 -0.3262  0.1811  0.5190
10706SOL     OW33568   4.438   9.250   0.744  0.0635  0.1911 -0.2416
10706SOL    HW133569   4.449   9.277   0.653  0.3032 -0.2560 -0.3478
10706SOL    HW233570   4.496   9.307   0.794  0.3670  0.0478 -0.4333
10707SOL     OW33571   5.895   6.398   7.743  0.0044  0.4888  0.0759
10707SOL    HW133572   5.941   6.471   7.703 -1.9535  0.3494 -2.7796
10707SOL    HW233573   5.927   6.321   7.696 -1.6284  0.1820 -0.6031
10708SOL     OW33574   0.703   8.500   6.501 -0.2294  0.2654 -0.1345
10708SOL    HW133575   0.745   8.426   6.546 -1.5698 -0.1638  0.4609
10708SOL    HW233576   0.760   8.574   6.521 -0.0568 -0.1811  1.1506
10709SOL     OW33577   5.587   3.861   2.462  0.4270  0.0603  0.4262
10709SOL    HW133578   5.588   3.812   2.380  0.4291 -0.2667  0.6176
10709SOL    HW233579   5.533   3.938   2.444 -0.7040 -0.6824  0.4938
10710SOL     OW33580   3.984   4.776   8.337  0.3700  0.3774  0.0786
10710SOL    HW133581   3.910   4.726   8.371  0.3877  0.1673 -0.1808
10710SOL    HW233582   3.943   4.852   8.294  0.1219 -0.8153 -1.9435
10711SOL     OW33583   7.771   1.402   8.979 -0.3161  0.0494 -0.1637
10711SOL    HW133584   7.859   1.371   8.997 -1.1123 -1.8101  0.8536
10711SOL    HW233585   7.755   1.377   8.888  0.2400  0.4990 -0.3865
10712SOL     OW33586   5.323   7.554   2.966 -0.2454 -0.1121  0.1853
10712SOL    HW133587   5.353   7.474   3.008 -0.9564 -1.1847 -1.2537
10712SOL    HW233588   5.384   7.568   2.894 -0.7145  0.0771 -0.1810
10713SOL     OW33589   1.048   0.682   6.880 -0.1067 -0.0651 -0.2427
10713SOL    HW133590   0.993   0.737   6.824 -1.8400 -1.7399 -0.3076
10713SOL    HW233591   1.069   0.606   6.825  0.4334 -0.4732  0.5090
10714SOL     OW33592   0.824   4.433   6.164 -1.1086 -0.4167 -0.3896
10714SOL    HW133593   0.886   4.397   6.100 -0.8411  0.7660 -0.8187
10714SOL    HW233594   0.822   4.527   6.146 -1.0096 -0.0391  1.3710
10715SOL     OW33595   6.077   8.359   2.364  0.2507  0.4575  0.7102
10715SOL    HW133596   6.046   8.441   2.404  1.1193  0.3255  1.7256
10715SOL    HW233597   6.003   8.328   2.313 -0.1178  1.8596  0.3301
10716SOL     OW33598   2.087   6.246   6.215  0.0023 -0.2907 -0.2908
10716SOL    HW133599   2.079   6.281   6.127 -1.3027 -0.8916 -0.4313
10716SOL    HW233600   2.060   6.155   6.207  0.0443 -0.4002  0.7027
10717SOL     OW33601   5.359   0.413   2.407 -0.3275 -0.2817 -0.0711
10717SOL    HW133602   5.297   0.442   2.475  0.2947  1.0327 -0.0318
10717SOL    HW233603   5.445   0.429   2.446  0.0357 -1.0092 -0.5693
10718SOL     OW33604   0.031   8.870   1.220  0.2912 -0.1992  0.1496
10718SOL    HW133605  -0.033   8.799   1.211 -0.6503  0.5356  0.8320
10718SOL    HW233606  -0.013   8.935   1.273  1.1691  0.8720 -0.3922
10719SOL     OW33607   6.402   6.449   5.536  0.0535  0.3700 -0.5891
10719SOL    HW133608   6.316   6.408   5.552 -0.3552  0.2084 -2.8953
10719SOL    HW233609   6.453   6.381   5.492  0.7078  1.1178 -0.9989
10720SOL     OW33610   0.478   3.034   4.425  0.2551 -0.4922 -0.2961
10720SOL    HW133611   0.532   3.078   4.491  0.2869  0.0356 -0.6737
10720SOL    HW233612   0.533   3.032   4.347  0.1231 -0.8976 -0.3814
10721SOL     OW33613   6.816   0.232   5.961 -0.1034  0.2894  0.0057
10721SOL    HW133614   6.785   0.200   6.045 -1.0441  1.0601 -0.0241
10721SOL    HW233615   6.771   0.177   5.896  0.9527 -0.5935 -0.0131
10722SOL     OW33616   3.309   7.022   9.037 -0.6648  0.2711  0.4653
10722SOL    HW133617   3.296   7.071   8.955 -0.9221 -0.9190 -0.2216
10722SOL    HW233618   3.403   7.029   9.054 -0.8786  2.1036  1.1028
10723SOL     OW33619   1.159   8.712   8.618  0.5157 -0.2283  0.5151
10723SOL    HW133620   1.103   8.788   8.600  1.1715  0.3138  0.7256
10723SOL    HW233621   1.117   8.669   8.693 -0.1872 -0.4186  0.0236
10724SOL     OW33622   8.228   6.181   6.772 -0.1920 -0.1254 -0.4180
10724SOL    HW133623   8.312   6.228   6.771 -0.3293  0.1926 -3.1591
10724SOL    HW233624   8.163   6.249   6.792 -0.2013  0.5951 -2.6292
10725SOL     OW33625   3.815   5.557   6.393 -0.0488  0.1011  0.3605
10725SOL    HW133626   3.814   5.481   6.334  0.1424 -0.2458  0.7936
10725SOL    HW233627   3.874   5.531   6.464 -1.1504  0.0639  1.2842
10726SOL     OW33628   5.945   4.056   3.384  0.2526 -0.3710  0.4997
10726SOL    HW133629   6.014   4.047   3.450  1.3212  0.3783 -0.4726
10726SOL    HW233630   5.889   4.126   3.417  0.4263 -0.4247  0.9137
10727SOL     OW33631   1.225   1.418   0.141 -0.6500  0.3222 -0.1623
10727SOL    HW133632   1.233   1.505   0.102 -3.1413  0.0264 -1.5155
10727SOL    HW233633   1.253   1.431   0.232 -3.0305  3.1479  0.3388
10728SOL     OW33634   2.848   4.151   5.972 -0.7563  0.2606 -0.4392
10728SOL    HW133635   2.780   4.214   5.996 -2.6001 -1.1485 -1.7518
10728SOL    HW233636   2.888   4.127   6.056 -0.3702  2.6904  0.1530
10729SOL     OW33637   5.220   0.639   8.582 -0.2174 -0.2358 -0.3487
10729SOL    HW133638   5.304   0.612   8.617 -0.3512 -0.4765 -0.2079
10729SOL    HW233639   5.195   0.569   8.522  0.7836  0.9378 -2.2399
10730SOL     OW33640   5.630   3.873   0.920 -0.1001  0.2034 -0.1763
10730SOL    HW133641   5.637   3.790   0.969  0.1893  0.6206  0.5074
10730SOL    HW233642   5.615   3.939   0.987  1.8644  1.0086 -0.4504
10731SOL     OW33643   2.089   5.237   7.596  0.0422 -0.0428  0.7738
10731SOL    HW133644   2.138   5.169   7.549  1.9052  0.8900  1.2860
10731SOL    HW233645   2.000   5.203   7.601  0.6657 -1.9116 -0.0103
10732SOL     OW33646   3.730   5.012   1.134  1.1599 -0.7580  0.2131
10732SOL    HW133647   3.768   5.089   1.178  1.3278 -1.4512  1.3397
10732SOL    HW233648   3.679   5.048   1.062  2.0790  0.3475  0.0842
10733SOL     OW33649   1.831   7.946   3.772  0.8022  0.2582 -0.2351
10733SOL    HW133650   1.836   7.861   3.729  1.0218  0.1067  0.0826
10733SOL    HW233651   1.882   8.005   3.716  0.5000  0.2208 -0.5482
10734SOL     OW33652   4.567   5.743   2.921 -0.1569 -0.0529  0.2724
10734SOL    HW133653   4.486   5.765   2.874 -0.1297  0.2376  0.3564
10734SOL    HW233654   4.585   5.821   2.974 -0.4444 -0.5657  1.1311
10735SOL     OW33655   4.112   5.897   6.263 -0.4270 -0.0090  0.2660
10735SOL    HW133656   4.108   5.847   6.345  3.0922 -1.2744 -0.1387
10735SOL    HW233657   4.045   5.857   6.207 -1.1119 -0.8947  1.6530
10736SOL     OW33658   7.942   4.725   7.382  0.2725 -0.0396  0.3721
10736SOL    HW133659   7.976   4.807   7.346 -0.2499  0.3713  0.7892
10736SOL    HW233660   7.976   4.722   7.471  2.2603 -1.4753 -0.3757
10737SOL     OW33661   4.326   2.894   2.449 -0.5012  0.1309 -0.2001
10737SOL    HW133662   4.319   2.956   2.522  1.0834  1.7179 -1.3016
10737SOL    HW233663   4.281   2.937   2.376 -2.9782 -1.8858 -0.0012
10738SOL     OW33664   2.241   7.777   6.658  0.2501  0.5054  0.0311
10738SOL    HW133665   2.221   7.809   6.570 -1.8645 -0.8478 -0.0454
10738SOL    HW233666   2.335   7.759   6.656  0.1201 -0.2599 -2.2396
10739SOL     OW33667   2.262   1.422   7.181 -1.0119  0.1897  0.3934
10739SOL    HW133668   2.270   1.423   7.276 -2.5888  1.5993  0.5461
10739SOL    HW233669   2.329   1.484   7.151 -0.1978 -0.6008  0.5187
10740SOL     OW33670   3.475   6.595   9.101  0.3708 -0.1551 -0.2663
10740SOL    HW133671   3.460   6.664   9.036 -0.3080 -1.1988 -1.2636
10740SOL    HW233672   3.443   6.515   9.059 -0.9097 -0.7387  1.6765
10741SOL     OW33673   7.631   0.546   3.441  0.0542 -1.1697  0.6172
10741SOL    HW133674   7.630   0.490   3.364  0.3143  2.1326 -2.0197
10741SOL    HW233675   7.543   0.584   3.444  0.1890 -0.9027  1.7016
10742SOL     OW33676   1.139   8.669   0.564 -0.4550 -0.8826 -0.2229
10742SOL    HW133677   1.104   8.752   0.532 -0.1161 -0.2264  1.0499
10742SOL    HW233678   1.223   8.659   0.520  0.5319  0.5682  1.2286
10743SOL     OW33679   8.489   2.992   3.896 -0.2815  0.1296 -0.4951
10743SOL    HW133680   8.532   2.947   3.824 -0.4664  0.4142 -0.7854
10743SOL    HW233681   8.544   3.068   3.914  0.3708 -0.5358  0.4086
10744SOL     OW33682   3.474   5.794   0.465  0.5197  0.8776 -0.3143
10744SOL    HW133683   3.458   5.857   0.395 -1.1362  0.3269 -0.4796
10744SOL    HW233684   3.518   5.721   0.422  0.4477  0.9804 -0.5651
10745SOL     OW33685   8.959   0.863   5.640  0.2187  0.3083 -0.0112
10745SOL    HW133686   9.026   0.895   5.700  0.8139  2.7756 -1.8175
10745SOL    HW233687   8.878   0.904   5.670 -0.3360 -1.6777  1.4169
10746SOL     OW33688   6.587   8.340   6.781 -0.2376 -0.0596  0.6821
10746SOL    HW133689   6.562   8.307   6.695 -0.2317  0.7152  0.3796
10746SOL    HW233690   6.678   8.368   6.771 -0.3710  0.4319  0.8176
10747SOL     OW33691   3.659   1.050   4.852 -0.0888 -0.0334 -0.1130
10747SOL    HW133692   3.646   1.002   4.934  2.5091 -1.0813 -0.2186
10747SOL    HW233693   3.572   1.055   4.813 -1.2407 -0.4091  2.1885
10748SOL     OW33694   1.228   2.055   4.341 -0.3811 -0.2153  0.1315
10748SOL    HW133695   1.265   1.968   4.346 -0.7785 -0.3114  2.4305
10748SOL    HW233696   1.201   2.075   4.431 -1.4077  1.7816 -0.5587
10749SOL     OW33697   0.256   5.402   2.058 -0.0208  0.7039 -0.2708
10749SOL    HW133698   0.233   5.317   2.021  3.2006 -1.5900  2.3917
10749SOL    HW233699   0.197   5.411   2.133  1.6899 -0.9435  1.3942
10750SOL     OW33700   0.074   7.751   2.758 -0.2397  0.1798  0.6082
10750SOL    HW133701   0.117   7.809   2.695  2.0448 -1.3085  0.6789
10750SOL    HW233702  -0.019   7.762   2.742  0.2332  1.3640 -1.6388
10751SOL     OW33703   2.397   1.055   2.437 -0.2774  0.3745  0.3333
10751SOL    HW133704   2.360   0.994   2.374 -1.3066 -0.0542  1.3115
10751SOL    HW233705   2.323   1.110   2.464  0.2212  0.7982  0.8780
10752SOL     OW33706   7.359   8.393   2.499  0.3921 -0.2717 -0.4744
10752SOL    HW133707   7.359   8.488   2.484  1.0550 -0.2800 -0.5732
10752SOL    HW233708   7.294   8.379   2.568  0.0312  0.2101 -0.7046
10753SOL     OW33709   5.071   5.197   2.544  0.0559 -0.3368 -0.1992
10753SOL    HW133710   4.977   5.180   2.529  0.3631 -0.8216 -1.8416
10753SOL    HW233711   5.076   5.290   2.565 -0.6566  0.1249 -1.8970
10754SOL     OW33712   6.180   4.202   5.520  0.2285  0.5789  0.1109
10754SOL    HW133713   6.256   4.153   5.551 -0.0621  0.7983  1.2264
10754SOL    HW233714   6.113   4.135   5.506  0.3554  0.4797 -0.0284
10755SOL     OW33715   6.922   3.636   6.991  0.0064  0.4589  0.1170
10755SOL    HW133716   6.947   3.601   7.076  1.7006 -0.5879 -0.7588
10755SOL    HW233717   6.928   3.731   7.001 -2.3268  0.5268  1.8368
10756SOL     OW33718   8.815   0.528   3.873 -0.0763 -0.3983  0.0668
10756SOL    HW133719   8.896   0.558   3.832  0.2739 -1.3602  0.0413
10756SOL    HW233720   8.752   0.598   3.855  1.1002  1.0559  1.3122
10757SOL     OW33721   1.776   4.695   3.896  0.5666 -0.2711 -0.0168
10757SOL    HW133722   1.725   4.657   3.968  1.5951 -2.6477 -0.4290
10757SOL    HW233723   1.853   4.733   3.938  1.1269 -1.5845  0.1907
10758SOL     OW33724   2.391   0.148   7.272 -0.2646 -0.3237 -0.1880
10758SOL    HW133725   2.376   0.234   7.312 -0.3318 -0.0936 -0.6872
10758SOL    HW233726   2.314   0.134   7.216  0.1372 -0.3264 -0.7541
10759SOL     OW33727   0.164   6.686   6.475 -0.1225  0.3221 -0.1018
10759SOL    HW133728   0.222   6.725   6.541 -0.1538 -1.5532  1.1484
10759SOL    HW233729   0.125   6.760   6.430  0.5610  1.6870  1.4285
10760SOL     OW33730   6.746   0.232   0.048 -0.0875  0.1811 -0.1380
10760SOL    HW133731   6.729   0.148   0.090 -0.8080 -0.1903 -1.1219
10760SOL    HW233732   6.785   0.209  -0.037 -3.4260  0.6031 -1.9614
10761SOL     OW33733   5.998   6.466   6.534  0.3434 -0.1580  0.7408
10761SOL    HW133734   5.905   6.450   6.555  0.3730 -1.0868  0.1825
10761SOL    HW233735   5.995   6.533   6.466  0.0768 -0.2454  0.6626
10762SOL     OW33736   8.053   2.227   4.741  0.2602  0.7623 -0.4752
10762SOL    HW133737   8.088   2.299   4.688  0.8512  0.1476 -0.9415
10762SOL    HW233738   8.052   2.261   4.830 -0.4404  1.7056 -0.8239
10763SOL     OW33739   2.518   5.838   5.701  0.4803 -0.4560  0.0381
10763SOL    HW133740   2.468   5.760   5.724  0.5989 -0.5247  0.0623
10763SOL    HW233741   2.462   5.885   5.639  0.0073 -0.0967  0.7253
10764SOL     OW33742   1.616   6.920   8.867  0.6256 -0.1117  0.2739
10764SOL    HW133743   1.691   6.861   8.876  0.0970 -0.7777  0.3754
10764SOL    HW233744   1.582   6.928   8.956  0.0816 -0.4625  0.0973
10765SOL     OW33745   2.634   0.306   2.371 -0.6779  0.2218 -0.7671
10765SOL    HW133746   2.677   0.240   2.424  2.0771  0.9038 -1.9724
10765SOL    HW233747   2.683   0.387   2.388 -2.2834  1.3651 -1.3151
10766SOL     OW33748   9.182   7.249   5.748 -0.4994 -0.1099  0.2293
10766SOL    HW133749   9.094   7.211   5.751 -2.1792  3.2180 -1.4538
10766SOL    HW233750   9.170   7.339   5.778  2.1748  0.7128 -0.9027
10767SOL     OW33751   2.333   2.376   8.348 -0.2732 -0.9024 -0.6572
10767SOL    HW133752   2.254   2.424   8.373  2.6033  2.8099  2.4267
10767SOL    HW233753   2.338   2.304   8.410 -0.6350 -0.4384 -0.0823
10768SOL     OW33754   4.148   8.138   2.518  0.1123 -0.7137  0.0225
10768SOL    HW133755   4.071   8.159   2.571  1.2247 -0.1346  1.4376
10768SOL    HW233756   4.196   8.220   2.510  0.8707 -1.1823 -0.3956
10769SOL     OW33757   6.377   0.990   4.194 -0.0605  0.1642  0.4762
10769SOL    HW133758   6.451   0.943   4.156 -0.2644 -0.2925  0.6486
10769SOL    HW233759   6.417   1.050   4.257  0.3054  1.0920 -0.6011
10770SOL     OW33760   0.473   6.337   8.208  0.3985  0.3233 -0.2405
10770SOL    HW133761   0.473   6.289   8.126 -1.2902 -0.0219 -0.0814
10770SOL    HW233762   0.506   6.425   8.186 -1.3395  0.6780 -1.5839
10771SOL     OW33763   5.795   3.263   8.833  0.6508 -0.0629  0.1688
10771SOL    HW133764   5.742   3.262   8.912 -0.2595 -2.5285 -0.3740
10771SOL    HW233765   5.763   3.338   8.783 -2.0271 -1.1126  0.1303
10772SOL     OW33766   6.613   4.009   8.915 -0.2377  0.1998 -0.5423
10772SOL    HW133767   6.539   4.028   8.857 -0.4992  0.7546 -0.0390
10772SOL    HW233768   6.602   4.069   8.989 -0.8324 -1.6004  0.9051
10773SOL     OW33769   1.830   5.034   9.252 -0.2927  0.5886 -0.4249
10773SOL    HW133770   1.912   5.002   9.213 -0.6917 -0.9956 -0.0644
10773SOL    HW233771   1.784   5.078   9.180  0.0857 -0.0998 -1.1069
10774SOL     OW33772   1.411   5.091   5.834 -0.1951 -0.5386 -0.3174
10774SOL    HW133773   1.330   5.054   5.801 -0.2898 -1.4734  0.9015
10774SOL    HW233774   1.389   5.124   5.921  1.2521 -3.1798  1.1837
10775SOL     OW33775   4.843   2.268   5.559 -0.2483 -0.1106 -0.0895
10775SOL    HW133776   4.852   2.292   5.651 -0.8290 -1.0325  0.2251
10775SOL    HW233777   4.857   2.350   5.511  0.6693  0.2608  0.7768
10776SOL     OW33778   7.295   1.514   9.231 -0.4667 -0.3567  0.3185
10776SOL    HW133779   7.265   1.596   9.192 -1.9954 -1.0129  0.0639
10776SOL    HW233780   7.374   1.492   9.182  0.5635  1.4623  1.0678
10777SOL     OW33781   0.445   5.048   4.330  0.3626 -0.1413  0.1735
10777SOL    HW133782   0.434   5.033   4.237  1.8481 -0.5763  0.0387
10777SOL    HW233783   0.364   5.091   4.358 -0.5791 -1.0470 -1.0731
10778SOL     OW33784   1.220   0.625   5.686  0.2627 -0.4072  0.8802
10778SOL    HW133785   1.263   0.628   5.600 -0.8161 -0.6185  0.3117
10778SOL    HW233786   1.203   0.532   5.701 -0.9153 -0.2512  0.6052
10779SOL     OW33787   1.684   4.080   2.903  0.6234 -0.0184 -0.3551
10779SOL    HW133788   1.630   4.062   2.826 -0.6743 -2.0715  0.9279
10779SOL    HW233789   1.774   4.076   2.871  0.1333 -1.4574 -1.6745
10780SOL     OW33790   3.046   7.383   1.418  0.8636 -0.0523  0.4486
10780SOL    HW133791   3.017   7.458   1.470 -0.5698 -1.5338  1.9166
10780SOL    HW233792   3.025   7.307   1.473 -3.3841 -2.0022 -3.2463
10781SOL     OW33793   2.077   2.550   3.666 -0.3309  0.4274  0.4488
10781SOL    HW133794   2.013   2.509   3.724 -0.3601  1.1998  0.9773
10781SOL    HW233795   2.116   2.619   3.719 -2.2184  2.9559 -1.2345
10782SOL     OW33796   7.785   7.266   6.254 -0.3765 -1.1383  0.2322
10782SOL    HW133797   7.854   7.214   6.295 -2.0363 -2.7716  1.0668
10782SOL    HW233798   7.715   7.269   6.319 -0.1444  2.8727  0.5890
10783SOL     OW33799   8.506   4.270   6.497 -0.0646  0.5118 -0.4684
10783SOL    HW133800   8.438   4.320   6.452 -1.1862 -0.7236 -0.2167
10783SOL    HW233801   8.584   4.326   6.493 -1.0123  1.8414 -1.0115
10784SOL     OW33802   7.528   4.464   1.022  0.7824 -0.4880 -0.0192
10784SOL    HW133803   7.561   4.397   0.962 -1.0299 -2.0057  0.5623
10784SOL    HW233804   7.593   4.469   1.092  1.4564 -0.8796 -0.6116
10785SOL     OW33805   6.192   5.164   8.543 -0.6969 -0.0145  0.3407
10785SOL    HW133806   6.198   5.068   8.547 -1.4817 -0.1720 -1.5363
10785SOL    HW233807   6.119   5.186   8.602 -0.8128 -0.6158  0.4265
10786SOL     OW33808   6.904   5.625   6.707  0.3362  0.6957 -0.0176
10786SOL    HW133809   6.844   5.666   6.769 -0.8649 -0.7356 -0.1795
10786SOL    HW233810   6.943   5.552   6.755 -0.0455  0.0287 -0.6964
10787SOL     OW33811   8.618   8.957   1.998  0.5204  0.1024  0.1477
10787SOL    HW133812   8.536   8.966   2.046  0.5934  1.4949  0.0449
10787SOL    HW233813   8.597   8.986   1.910  1.0496  0.1805  0.0477
10788SOL     OW33814   4.235   6.640   6.724  0.0155  0.1927  0.1879
10788SOL    HW133815   4.319   6.679   6.749  1.5225 -0.7405 -2.8817
10788SOL    HW233816   4.218   6.574   6.791  2.1133 -0.0337  0.5541
10789SOL     OW33817   8.295   4.126   4.522 -0.4570  0.4158 -0.4730
10789SOL    HW133818   8.286   4.208   4.570  1.3062  0.7824 -0.7104
10789SOL    HW233819   8.349   4.149   4.447  2.6346 -1.5186  1.0044
10790SOL     OW33820   0.727   7.277   1.625 -0.7081 -0.0425  0.5158
10790SOL    HW133821   0.753   7.369   1.631  0.7637 -0.5262  4.3482
10790SOL    HW233822   0.632   7.279   1.611 -0.6702  2.0199  0.2971
10791SOL     OW33823   6.258   0.839   5.442 -0.1097 -0.5995 -0.7167
10791SOL    HW133824   6.179   0.870   5.486 -1.2668 -0.0799 -2.9973
10791SOL    HW233825   6.292   0.916   5.397 -0.3616 -1.5486 -2.6464
10792SOL     OW33826   6.080   4.238   6.311  0.6004  0.5430 -0.1090
10792SOL    HW133827   6.151   4.293   6.280  0.5490  0.5138 -0.2799
10792SOL    HW233828   6.096   4.228   6.405 -0.7240  2.8496  0.4316
10793SOL     OW33829   7.237   5.578   1.847 -0.6250  0.2418 -0.3999
10793SOL    HW133830   7.304   5.633   1.804 -0.1616  0.3009  0.3889
10793SOL    HW233831   7.285   5.501   1.877 -1.2072 -0.4387 -1.1764
10794SOL     OW33832   3.715   3.945   3.234 -0.5993  0.1094 -0.0547
10794SOL    HW133833   3.691   3.889   3.160 -0.4803  1.5996 -1.2681
10794SOL    HW233834   3.809   3.930   3.246 -0.7951 -0.8275  0.4322
10795SOL     OW33835   7.608   2.858   2.128 -0.2615 -0.1346  0.3995
10795SOL    HW133836   7.538   2.913   2.163 -0.9778  1.0456 -2.5635
10795SOL    HW233837   7.688   2.896   2.164 -0.8895  1.5661  0.1009
10796SOL     OW33838   5.191   8.923   0.660 -0.5371  0.3550 -0.3289
10796SOL    HW133839   5.159   8.848   0.609 -1.3675  0.6840 -0.3089
10796SOL    HW233840   5.138   8.922   0.740  1.4924 -0.8286  1.1056
10797SOL     OW33841   6.025   3.617   5.467  0.4099 -0.4803 -0.4415
10797SOL    HW133842   6.021   3.609   5.372  1.4405 -3.0610 -0.3325
10797SOL    HW233843   6.118   3.624   5.487  0.4705 -3.0540  0.5018
10798SOL     OW33844   0.461   3.501   3.161 -0.4990  0.4335 -0.0756
10798SOL    HW133845   0.399   3.574   3.161  1.0704  1.8299  0.3324
10798SOL    HW233846   0.546   3.541   3.139  0.5545 -1.1222  0.9238
10799SOL     OW33847   5.136   5.601   5.601  0.1630  0.6231  0.1324
10799SOL    HW133848   5.143   5.525   5.660 -0.3160  0.8260  0.4632
10799SOL    HW233849   5.083   5.664   5.650  1.2818  1.5228  0.2141
10800SOL     OW33850   0.102   0.571   9.076  0.1788  0.3448  0.1942
10800SOL    HW133851   0.192   0.600   9.094  0.0811  1.3140 -0.7940
10800SOL    HW233852   0.049   0.650   9.084 -0.6275 -0.2672  0.9839
10801SOL     OW33853   0.400   7.144   7.582  0.0362  0.1504  0.1218
10801SOL    HW133854   0.334   7.098   7.530 -0.9033  0.9762  0.5551
10801SOL    HW233855   0.353   7.176   7.659  0.8185  1.1777  0.2036
10802SOL     OW33856   1.645   7.747   3.476 -0.1921  0.5021 -0.0736
10802SOL    HW133857   1.594   7.795   3.541  0.3569  0.7315  0.1927
10802SOL    HW233858   1.618   7.656   3.487 -1.1158  0.7162 -0.4667
10803SOL     OW33859   9.069   4.573   5.053  0.1666 -0.4183 -0.7853
10803SOL    HW133860   9.096   4.587   5.144  1.4964  2.3621 -1.4831
10803SOL    HW233861   9.037   4.483   5.051 -2.2011  0.0937  2.9418
10804SOL     OW33862   5.291   0.482   6.700 -0.0248  0.7121  0.5090
10804SOL    HW133863   5.294   0.557   6.641  1.3011 -0.6257 -1.2363
10804SOL    HW233864   5.335   0.512   6.780  0.5640  1.7600 -0.1926
10805SOL     OW33865   4.473   5.190   4.575 -0.5337  0.2514 -0.8890
10805SOL    HW133866   4.457   5.282   4.597  1.8139  0.5486 -0.1983
10805SOL    HW233867   4.565   5.187   4.550 -0.0567 -2.2051  0.8564
10806SOL     OW33868   1.427   2.435   4.765  0.3784  0.3949 -0.1040
10806SOL    HW133869   1.358   2.489   4.727 -1.2873 -1.4357  0.1238
10806SOL    HW233870   1.476   2.401   4.690 -0.8792 -0.6477 -0.4946
10807SOL     OW33871   2.560   6.425   0.702 -0.5092  0.0638  0.1302
10807SOL    HW133872   2.467   6.447   0.690 -0.2117  1.4631  0.2096
10807SOL    HW233873   2.607   6.491   0.650  0.4360 -1.1783 -0.6616
10808SOL     OW33874   5.889   7.060   8.511 -0.4781  0.0106 -0.7114
10808SOL    HW133875   5.799   7.043   8.540  0.5349  0.3529  3.2103
10808SOL    HW233876   5.902   7.154   8.527  1.4763 -0.6220  2.0569
10809SOL     OW33877   7.381   7.036   6.986 -0.4921  0.3271  0.1047
10809SOL    HW133878   7.393   7.000   6.899  0.6610  1.2331 -0.1411
10809SOL    HW233879   7.408   6.965   7.045 -2.8051 -0.8748 -0.1633
10810SOL     OW33880   6.165   7.258   6.946  0.9451 -0.6208  0.2655
10810SOL    HW133881   6.111   7.184   6.972 -1.7482  1.6975  1.7998
10810SOL    HW233882   6.127   7.288   6.863  1.1695 -0.2131  0.3054
10811SOL     OW33883   0.204   6.276   3.816  0.1432 -0.1401 -0.3055
10811SOL    HW133884   0.245   6.291   3.730  2.0931  0.5926  0.6808
10811SOL    HW233885   0.212   6.360   3.861 -0.2268 -0.7065  0.8419
10812SOL     OW33886   5.226   3.223   9.176 -0.2191  0.0437  0.1977
10812SOL    HW133887   5.138   3.191   9.199 -0.5142  1.4481  1.1729
10812SOL    HW233888   5.227   3.224   9.081  0.1569 -3.6734  0.0329
10813SOL     OW33889   1.095   6.378   7.278  0.0127  0.4551 -0.2305
10813SOL    HW133890   1.005   6.350   7.263  0.6296 -1.4608 -0.7747
10813SOL    HW233891   1.134   6.381   7.190  0.7171  0.3403  0.0678
10814SOL     OW33892   2.674   0.665   1.935  0.1035  0.1936 -0.1742
10814SOL    HW133893   2.742   0.598   1.943 -0.6980 -0.7664 -1.1347
10814SOL    HW233894   2.714   0.732   1.880 -0.6978 -1.8442 -3.5306
10815SOL     OW33895   8.078   9.064   2.895  0.3676 -0.9551 -0.0124
10815SOL    HW133896   8.056   9.138   2.837 -0.4486 -0.8401  0.4360
10815SOL    HW233897   8.000   9.051   2.948  0.0191 -2.9449 -0.9050
10816SOL     OW33898   6.548   4.002   7.236 -0.1998 -0.5074 -0.2028
10816SOL    HW133899   6.641   4.011   7.259 -0.4451 -0.2842  0.7567
10816SOL    HW233900   6.506   3.977   7.318 -0.7669 -2.2423 -0.9748
10817SOL     OW33901   2.419   4.438   8.505  0.3841  0.2769  0.0686
10817SOL    HW133902   2.335   4.448   8.549  0.1087 -0.1164 -0.3549
10817SOL    HW233903   2.465   4.520   8.522  0.2681  0.1496  1.0325
10818SOL     OW33904   5.160   3.516   2.765 -0.4309  0.5456 -0.7487
10818SOL    HW133905   5.221   3.502   2.692 -1.7264  0.0752 -1.7923
10818SOL    HW233906   5.082   3.554   2.724 -0.3745  2.3794  0.7388
10819SOL     OW33907   7.292   3.544   0.235  0.6274  0.2428  0.9774
10819SOL    HW133908   7.206   3.568   0.200  0.8382 -1.0529 -0.5638
10819SOL    HW233909   7.273   3.496   0.316 -0.0948  0.2451  0.8118
10820SOL     OW33910   2.424   1.947   1.842  0.3132  0.3951 -0.2503
10820SOL    HW133911   2.383   1.926   1.759 -1.0775  1.3136  0.1787
10820SOL    HW233912   2.362   1.918   1.908  0.8232  0.8323  0.4378
10821SOL     OW33913   2.126   8.137   4.084 -0.0909 -0.1497  0.3642
10821SOL    HW133914   2.046   8.096   4.051 -0.7710  0.0845  1.6169
10821SOL    HW233915   2.152   8.199   4.016 -1.3127  0.1686  0.1582
10822SOL     OW33916   7.750   4.986   7.054 -0.5808 -0.4516 -0.0906
10822SOL    HW133917   7.771   5.068   7.098 -0.3717 -1.2256  1.2765
10822SOL    HW233918   7.719   5.014   6.967  0.0643  1.0302  0.1170
10823SOL     OW33919   2.896   4.288   9.095 -0.2847 -0.2339 -0.3141
10823SOL    HW133920   2.931   4.250   9.175 -1.2532 -0.9622 -0.2232
10823SOL    HW233921   2.816   4.333   9.123 -0.3716 -0.0850 -0.7942
10824SOL     OW33922   8.665   5.810   8.089  0.4405  0.1367 -0.1353
10824SOL    HW133923   8.583   5.849   8.118  0.7277  1.9950 -1.6216
10824SOL    HW233924   8.685   5.744   8.156 -0.9171  1.4195  1.6441
10825SOL     OW33925   9.132   7.080   3.751  0.0212  0.0383  0.1937
10825SOL    HW133926   9.196   7.051   3.686  0.0635 -0.3191  0.3915
10825SOL    HW233927   9.106   7.000   3.797 -0.6725  0.1615  0.0253
10826SOL     OW33928   6.980   3.921   2.399  0.4130  0.0406 -0.1970
10826SOL    HW133929   6.916   3.873   2.451 -0.3177 -0.1767 -1.2565
10826SOL    HW233930   7.047   3.857   2.377  0.4375 -0.0066  0.0219
10827SOL     OW33931   0.801   3.724   7.650 -0.2457  0.1528 -0.5557
10827SOL    HW133932   0.883   3.774   7.646  0.2672 -0.1371  3.0515
10827SOL    HW233933   0.820   3.642   7.605  1.1007  0.5350 -0.7136
10828SOL     OW33934   0.609   9.092   8.333 -0.2756  0.1064  0.0440
10828SOL    HW133935   0.574   9.010   8.367  0.8481 -1.2325 -1.8805
10828SOL    HW233936   0.567   9.159   8.387 -2.6763 -1.5922  0.4633
10829SOL     OW33937   4.620   4.507   3.047  0.1191  0.3657  0.6778
10829SOL    HW133938   4.641   4.416   3.067 -2.3201 -0.2524  0.7696
10829SOL    HW233939   4.558   4.532   3.115 -1.3591  1.1777 -0.9037
10830SOL     OW33940   7.025   6.810   3.765  0.3201 -0.2709 -0.0364
10830SOL    HW133941   6.988   6.784   3.850  0.0486  0.2744  0.0209
10830SOL    HW233942   7.054   6.729   3.725  2.9517 -0.3123  1.7222
10831SOL     OW33943   8.423   8.991   8.332  0.2070 -0.2015 -0.6833
10831SOL    HW133944   8.339   9.037   8.332 -0.1509 -0.6885 -2.9888
10831SOL    HW233945   8.415   8.926   8.402 -0.6793  0.8318  0.2137
10832SOL     OW33946   3.214   0.819   7.759 -0.1759  0.3151  0.5559
10832SOL    HW133947   3.223   0.868   7.678  2.3584 -0.1618  0.4709
10832SOL    HW233948   3.263   0.738   7.744 -0.1719 -0.0589  2.3397
10833SOL     OW33949   7.728   5.352   4.771 -0.2566  0.0656 -0.1094
10833SOL    HW133950   7.660   5.321   4.712 -0.3736  0.8530 -0.4006
10833SOL    HW233951   7.690   5.430   4.813 -0.0132 -0.2314  0.6795
10834SOL     OW33952   3.677   4.422   1.832  0.0795  0.0463  0.1385
10834SOL    HW133953   3.698   4.461   1.747  2.6658  0.2549  0.7935
10834SOL    HW233954   3.613   4.353   1.811  1.1661 -0.3953 -2.1009
10835SOL     OW33955   5.389   3.797   0.321 -0.9462 -0.1541 -0.2905
10835SOL    HW133956   5.441   3.817   0.399 -0.8381 -1.4393 -0.0125
10835SOL    HW233957   5.452   3.765   0.257 -1.4379 -2.4918  0.3177
10836SOL     OW33958   0.610   2.526   3.875 -0.2061  0.4322 -0.1420
10836SOL    HW133959   0.565   2.448   3.845  0.5196  0.5463 -1.5916
10836SOL    HW233960   0.700   2.515   3.845  0.3090  1.0557  1.0951
10837SOL     OW33961   4.819   0.743   3.537  0.1363  0.0325  0.4631
10837SOL    HW133962   4.743   0.799   3.522  0.8949  1.3448  1.3565
10837SOL    HW233963   4.857   0.776   3.618 -0.0449 -2.5370  1.6870
10838SOL     OW33964   7.285   2.769   7.321  0.3444  0.2186  0.6014
10838SOL    HW133965   7.272   2.768   7.416  2.8330  0.5052  1.0053
10838SOL    HW233966   7.340   2.693   7.303 -0.6625 -0.2396 -0.7533
10839SOL     OW33967   7.502   8.130   1.776 -0.2147  0.2292  0.0227
10839SOL    HW133968   7.503   8.124   1.872 -1.8461  0.7258  0.0982
10839SOL    HW233969   7.594   8.133   1.751  0.2348  0.1797  1.5828
10840SOL     OW33970   5.784   2.531   5.844 -0.2592 -0.6441  0.3527
10840SOL    HW133971   5.760   2.623   5.855 -1.8478 -1.0949  1.0446
10840SOL    HW233972   5.738   2.504   5.763  0.1756 -0.8367  0.1671
10841SOL     OW33973   4.874   8.164   0.801 -0.0541 -0.2759  0.5064
10841SOL    HW133974   4.870   8.072   0.827  0.9079 -0.4825 -0.0349
10841SOL    HW233975   4.948   8.169   0.740 -1.1354  0.5255 -0.8068
10842SOL     OW33976   4.054   1.976   5.518 -0.0623 -0.1730 -0.2594
10842SOL    HW133977   4.106   1.923   5.458 -1.7711 -0.4544 -1.5676
10842SOL    HW233978   4.025   2.051   5.466 -0.9129 -0.0009  0.4260
10843SOL     OW33979   5.519   6.274   8.941 -0.7536 -0.2852  0.0723
10843SOL    HW133980   5.557   6.279   9.029 -1.5420  0.3465  0.3846
10843SOL    HW233981   5.595   6.280   8.883 -0.3705  1.8295  0.6686
10844SOL     OW33982   3.630   1.392   1.070  1.0052  0.2828  0.2192
10844SOL    HW133983   3.677   1.412   1.151  0.4694 -1.3996  0.9833
10844SOL    HW233984   3.693   1.413   1.001  2.4836 -0.7728  1.1824
10845SOL     OW33985   5.944   1.337   2.276  0.0615  0.4605  0.2779
10845SOL    HW133986   5.957   1.244   2.292 -1.7386 -0.6049 -3.3660
10845SOL    HW233987   5.849   1.350   2.280  0.1272  1.6963 -0.9809
10846SOL     OW33988   0.766   4.722   6.562 -0.1161  0.0017  0.1066
10846SOL    HW133989   0.848   4.755   6.526  0.0529  0.0704  0.5520
10846SOL    HW233990   0.721   4.682   6.487  0.0538  0.4918 -0.2581
10847SOL     OW33991   0.737   1.471   8.777  0.7304  0.0359 -0.1759
10847SOL    HW133992   0.736   1.397   8.717 -0.2544  0.0899 -0.2425
10847SOL    HW233993   0.674   1.449   8.845  1.3119  0.2906  0.4665
10848SOL     OW33994   1.804   1.303   3.935  0.3107 -0.3130 -0.2227
10848SOL    HW133995   1.895   1.306   3.907  0.1222 -2.4636 -1.2858
10848SOL    HW233996   1.807   1.270   4.025  0.5607 -1.3514 -0.5995
10849SOL     OW33997   8.708   4.218   6.216 -0.4354 -0.2244  0.8497
10849SOL    HW133998   8.669   4.306   6.219 -1.9828 -0.8420  0.0745
10849SOL    HW233999   8.668   4.171   6.289  1.0012 -0.0862  1.7639
10850SOL     OW34000   4.056   4.680   3.230  0.2053 -0.0945  0.4935
10850SOL    HW134001   4.123   4.747   3.238 -0.1678  0.3419  0.0783
10850SOL    HW234002   4.062   4.630   3.311 -0.8049  1.6532  1.7278
10851SOL     OW34003   9.053   8.070   9.070 -0.0827 -0.0592  0.2674
10851SOL    HW134004   8.981   8.007   9.072  1.1447 -1.5375  1.0141
10851SOL    HW234005   9.017   8.148   9.028 -2.0704 -0.7653  0.5589
10852SOL     OW34006   8.630   2.858   3.687  0.3508 -0.3167 -0.3479
10852SOL    HW134007   8.621   2.764   3.700  0.1138 -0.3226 -0.5356
10852SOL    HW234008   8.599   2.873   3.597 -0.4418  0.0500 -0.0326
10853SOL     OW34009   6.069   1.487   2.482 -0.4404 -0.2541  0.2886
10853SOL    HW134010   6.155   1.449   2.501  0.7813  2.1274 -0.1781
10853SOL    HW234011   6.031   1.426   2.419  1.9355 -0.1552 -1.3927
10854SOL     OW34012   5.074   3.851   2.113  0.4018  0.4902  0.2723
10854SOL    HW134013   5.149   3.896   2.153  0.7307 -1.0011  1.4487
10854SOL    HW234014   5.067   3.889   2.026  3.3197 -0.0962 -0.3542
10855SOL     OW34015   3.391   7.671   0.846  0.0411  0.3451 -0.1773
10855SOL    HW134016   3.405   7.654   0.939  0.7517  1.5857 -0.0302
10855SOL    HW234017   3.346   7.594   0.813  0.8155 -0.6090  0.9532
10856SOL     OW34018   4.766   6.139   5.051  0.1481 -0.4790  0.0310
10856SOL    HW134019   4.800   6.187   5.126 -0.4334 -0.0951  0.0548
10856SOL    HW234020   4.687   6.187   5.025  0.1399 -0.8165 -0.5967
10857SOL     OW34021   3.158   2.751   6.411 -0.6023 -1.0129 -0.1959
10857SOL    HW134022   3.065   2.740   6.391 -0.5521  0.2819 -1.2643
10857SOL    HW234023   3.178   2.841   6.384  0.1321  0.0549  3.3605
10858SOL     OW34024   6.095   3.859   8.001  0.2015  0.0218  0.1588
10858SOL    HW134025   6.166   3.812   7.957  1.3998  0.7917  1.1841
10858SOL    HW234026   6.113   3.847   8.094 -2.7326 -2.2770  0.5959
10859SOL     OW34027   3.138   3.387   0.226  0.2155 -0.4632  0.5468
10859SOL    HW134028   3.112   3.295   0.223 -0.1611 -0.3427 -0.4561
10859SOL    HW234029   3.213   3.392   0.166  0.4757 -0.1843  0.8885
10860SOL     OW34030   0.050   7.996   3.658 -0.3619  0.0035  0.2342
10860SOL    HW134031   0.051   8.078   3.708  1.0980  1.1040 -1.4798
10860SOL    HW234032  -0.019   8.008   3.593  0.4015  0.2435 -0.5515
10861SOL     OW34033   0.776   7.246   8.172 -0.0593 -0.1508 -0.0758
10861SOL    HW134034   0.791   7.276   8.262  1.1333 -0.0433 -0.2870
10861SOL    HW234035   0.781   7.151   8.178 -0.7675 -0.1788  0.0969
10862SOL     OW34036   1.852   7.399   4.789  0.2566 -0.3824  0.0462
10862SOL    HW134037   1.877   7.482   4.748  0.3580 -0.3672  0.1389
10862SOL    HW234038   1.757   7.397   4.783  0.3512 -1.2791 -1.9785
10863SOL     OW34039   5.768   6.537   9.047  0.0317  0.0443 -0.1034
10863SOL    HW134040   5.793   6.555   9.138  0.2390  0.9077 -0.3222
10863SOL    HW234041   5.761   6.442   9.043 -0.5090  0.0187  0.9547
10864SOL     OW34042   7.202   5.670   8.809  0.2780 -0.3737  0.3607
10864SOL    HW134043   7.174   5.734   8.743 -2.1829 -2.7355 -1.0806
10864SOL    HW234044   7.260   5.611   8.761 -1.1581 -1.8400  0.3298
10865SOL     OW34045   2.943   5.467   7.848 -0.5183 -0.5504 -0.4080
10865SOL    HW134046   2.949   5.552   7.803  0.7123  0.8196  2.0887
10865SOL    HW234047   3.001   5.410   7.799 -0.8042  0.2543 -1.7306
10866SOL     OW34048   1.225   8.282   4.374 -0.4144 -0.3060 -0.0271
10866SOL    HW134049   1.141   8.283   4.421 -0.0477  0.8807  0.6530
10866SOL    HW234050   1.224   8.363   4.323  1.3912  1.1316  2.0242
10867SOL     OW34051   5.958   2.623   2.105  0.2869  0.3772  0.7830
10867SOL    HW134052   5.938   2.530   2.106  1.8281 -0.0263 -0.9601
10867SOL    HW234053   6.028   2.633   2.170  1.0291  0.0531  0.0548
10868SOL     OW34054   3.167   3.070   8.088 -0.0181 -0.4001 -0.0854
10868SOL    HW134055   3.145   3.070   8.181  0.0753  0.2600 -0.0546
10868SOL    HW234056   3.147   2.982   8.058  1.4975 -1.1362  0.9249
10869SOL     OW34057   5.677   1.014   4.961  0.5493  0.1622  0.0346
10869SOL    HW134058   5.733   1.062   4.899 -1.4348  2.6736  0.0453
10869SOL    HW234059   5.598   0.993   4.911  0.1853 -0.5476  0.8766
10870SOL     OW34060   1.256   2.610   7.434  0.4139  0.4033 -0.3821
10870SOL    HW134061   1.330   2.626   7.376  0.9650 -0.3779  0.0866
10870SOL    HW234062   1.229   2.521   7.415 -0.8127  0.8767 -0.9737
10871SOL     OW34063   4.583   3.836   5.993  0.4366  0.6384 -0.1205
10871SOL    HW134064   4.575   3.746   6.022 -0.3901  0.1590 -1.7162
10871SOL    HW234065   4.677   3.854   5.996  0.5798 -0.1536  0.5057
10872SOL     OW34066   6.133   0.044   9.051 -0.1276  0.2666 -0.1141
10872SOL    HW134067   6.094   0.019   9.135  0.8808  0.6944  0.4911
10872SOL    HW234068   6.166  -0.038   9.014 -0.5013  0.0914 -0.0656
10873SOL     OW34069   9.250   3.816   2.135 -0.1146  0.4963 -0.0307
10873SOL    HW134070   9.310   3.865   2.077  0.1947 -0.3931 -0.4787
10873SOL    HW234071   9.163   3.840   2.104  0.0493 -0.0924 -0.9831
10874SOL     OW34072   1.248   0.883   7.573 -0.2228 -0.3447 -0.3507
10874SOL    HW134073   1.224   0.880   7.480 -0.3390 -0.7951 -0.3103
10874SOL    HW234074   1.170   0.853   7.619 -0.5534  0.9677 -0.0290
10875SOL     OW34075   2.452   8.306   1.780  0.4794 -0.0995 -0.3364
10875SOL    HW134076   2.457   8.347   1.866  0.9070 -1.0905  0.1123
10875SOL    HW234077   2.453   8.212   1.797 -0.2477 -0.3192 -1.3730
10876SOL     OW34078   6.791   3.806   1.012  0.1507  0.1332 -0.1416
10876SOL    HW134079   6.712   3.754   1.030 -0.4751  0.9720 -0.4135
10876SOL    HW234080   6.793   3.815   0.917  0.0682  0.8762 -0.0796
10877SOL     OW34081   6.890   2.441   7.927  0.1244 -0.2013 -0.1088
10877SOL    HW134082   6.869   2.533   7.918  0.4772 -0.2015 -1.1058
10877SOL    HW234083   6.815   2.403   7.972 -1.2914  0.0850 -2.1116
10878SOL     OW34084   8.775   1.989   3.009 -0.2986 -0.1493  0.8202
10878SOL    HW134085   8.695   2.042   3.005  0.0242  0.5680  2.6273
10878SOL    HW234086   8.793   1.982   3.103  1.6815 -0.4307  0.4478
10879SOL     OW34087   6.173   5.734   0.237  0.0734 -0.8898  0.2557
10879SOL    HW134088   6.220   5.663   0.280  1.4311  0.3706  0.9334
10879SOL    HW234089   6.124   5.777   0.307  0.4355 -0.2607  0.1334
10880SOL     OW34090   6.067   0.583   0.099 -0.5140  0.2867  0.0786
10880SOL    HW134091   6.102   0.667   0.128  0.2001 -0.6340  2.0368
10880SOL    HW234092   6.085   0.581   0.005 -0.5729  2.3114 -0.0125
10881SOL     OW34093   8.430   6.208   3.588  0.1021  0.7557  0.2075
10881SOL    HW134094   8.378   6.285   3.562  0.4605  1.1365  0.5976
10881SOL    HW234095   8.402   6.190   3.678 -1.0228 -0.4635 -0.3610
10882SOL     OW34096   3.463   7.348   5.117 -0.2176  0.0616  0.2158
10882SOL    HW134097   3.403   7.382   5.183 -0.9450  0.1083 -0.4603
10882SOL    HW234098   3.447   7.254   5.115  1.1305 -0.2196  1.4180
10883SOL     OW34099   0.101   4.404   4.050 -0.4222  0.1410 -0.4219
10883SOL    HW134100   0.025   4.462   4.044 -1.2513 -0.4843  2.4314
10883SOL    HW234101   0.173   4.462   4.076  0.1131  0.6893 -2.8722
10884SOL     OW34102   0.277   1.847   1.293 -0.1810  0.4472  0.5382
10884SOL    HW134103   0.347   1.911   1.279 -1.7256  2.4288  1.3224
10884SOL    HW234104   0.252   1.818   1.205  2.0058 -0.8031  0.2752
10885SOL     OW34105   4.457   8.647   1.545 -0.7621  0.2389 -0.0249
10885SOL    HW134106   4.449   8.564   1.497  0.2502 -0.1592  0.4620
10885SOL    HW234107   4.492   8.709   1.481  0.7785 -0.3411  0.2247
10886SOL     OW34108   1.517   0.333   2.768 -0.2703 -0.5276  0.0648
10886SOL    HW134109   1.599   0.335   2.719  0.5597 -0.7838  1.3800
10886SOL    HW234110   1.484   0.423   2.764  0.8670 -0.0580  0.7745
10887SOL     OW34111   4.792   5.178   3.538  0.4616 -0.1807 -0.4581
10887SOL    HW134112   4.875   5.179   3.586  0.6154  1.5457 -0.7171
10887SOL    HW234113   4.810   5.121   3.462  1.3311 -0.0093 -0.3883
10888SOL     OW34114   8.590   1.831   2.331 -0.0769  0.3711 -0.1010
10888SOL    HW134115   8.497   1.850   2.319  0.0665  0.7710 -0.6299
10888SOL    HW234116   8.593   1.766   2.401 -0.7711  0.1534 -0.2714
10889SOL     OW34117   6.750   6.500   1.727  0.5294 -0.5097  0.5145
10889SOL    HW134118   6.806   6.469   1.657  1.8247 -0.6530  1.5748
10889SOL    HW234119   6.674   6.440   1.725  0.4764 -0.4206 -0.8130
10890SOL     OW34120   7.427   5.781   7.772  0.0987 -0.4779 -0.3548
10890SOL    HW134121   7.437   5.816   7.684 -0.3140  0.1175 -0.1707
10890SOL    HW234122   7.516   5.776   7.807  0.0969  1.8324  0.1605
10891SOL     OW34123   0.874   7.841   5.599  0.1894  0.5348  0.2009
10891SOL    HW134124   0.939   7.818   5.533 -1.5082 -1.2550 -0.9576
10891SOL    HW234125   0.852   7.932   5.580 -0.4878 -0.0160 -1.9673
10892SOL     OW34126   7.698   8.720   0.936 -0.1986 -0.2944 -0.5090
10892SOL    HW134127   7.663   8.631   0.942  0.9897 -0.7118  0.5489
10892SOL    HW234128   7.780   8.710   0.888  0.2321  0.1379  0.1291
10893SOL     OW34129   6.922   0.589   3.440  0.2343 -0.4113 -0.0894
10893SOL    HW134130   6.836   0.606   3.402  0.1427  2.4370  1.1762
10893SOL    HW234131   6.977   0.566   3.365 -0.7797  1.4088 -1.4801
10894SOL     OW34132   4.588   6.573   5.773 -0.1748  0.0033  0.5825
10894SOL    HW134133   4.642   6.611   5.842  1.1114 -0.9358  0.1148
10894SOL    HW234134   4.535   6.647   5.742 -0.7238  0.4764  2.4735
10895SOL     OW34135   4.389   0.547   1.522 -0.1118 -0.0276 -0.5135
10895SOL    HW134136   4.449   0.474   1.508 -1.1223 -0.7171 -1.3857
10895SOL    HW234137   4.309   0.522   1.475 -1.5067  0.3494  1.5279
10896SOL     OW34138   5.103   7.083   6.156  0.0208  0.4217 -0.1089
10896SOL    HW134139   5.181   7.115   6.201  0.2296  1.8776 -1.4275
10896SOL    HW234140   5.031   7.109   6.213  0.4686 -1.2711  1.3109
10897SOL     OW34141   8.616   6.058   9.052 -0.3693  0.3491  0.1087
10897SOL    HW134142   8.544   6.113   9.083  1.1725  2.3679  0.2792
10897SOL    HW234143   8.673   6.047   9.128 -0.4130 -1.1352 -0.0457
10898SOL     OW34144   8.593   1.818   7.149  0.0914 -0.2858  0.3408
10898SOL    HW134145   8.564   1.754   7.084  0.4043  0.0345 -0.1161
10898SOL    HW234146   8.644   1.767   7.212 -0.0064 -0.5566  0.2008
10899SOL     OW34147   5.994   0.313   1.440 -0.1545  0.8447  0.4831
10899SOL    HW134148   5.906   0.280   1.457  0.1143  0.0088  0.3286
10899SOL    HW234149   5.981   0.400   1.403 -1.1233 -0.4758 -2.6771
10900SOL     OW34150   5.292   7.686   0.424 -0.2102  0.1454 -0.4819
10900SOL    HW134151   5.350   7.745   0.472  0.0411 -0.4560 -0.0248
10900SOL    HW234152   5.312   7.703   0.332  2.4024 -1.6078 -0.3634
10901SOL     OW34153   1.368   1.978   8.165  0.0077 -0.3436  0.5397
10901SOL    HW134154   1.385   1.978   8.259  2.0193 -1.1214  0.2151
10901SOL    HW234155   1.287   2.029   8.155 -0.6950 -0.9263  2.7481
10902SOL     OW34156   2.066   1.332   3.917 -0.1789  0.7009  0.0098
10902SOL    HW134157   2.127   1.395   3.955  0.9487 -0.5180  0.3159
10902SOL    HW234158   2.093   1.248   3.954 -1.4993  0.0015 -0.5469
10903SOL     OW34159   0.659   1.023   7.585 -0.0754 -0.4496 -0.1644
10903SOL    HW134160   0.751   1.021   7.557 -0.0221  2.3875 -0.4922
10903SOL    HW234161   0.661   0.990   7.675  1.5865  1.1318  0.4530
10904SOL     OW34162   3.479   8.922   6.027 -0.2631  0.2725 -0.0050
10904SOL    HW134163   3.545   8.907   5.960 -1.1017  0.3936 -0.8712
10904SOL    HW234164   3.525   8.907   6.110  0.6664 -0.3300 -0.6167
10905SOL     OW34165   1.633   2.421   1.485 -0.2793 -0.1231 -0.7678
10905SOL    HW134166   1.725   2.397   1.474  0.1302  0.2050  1.3964
10905SOL    HW234167   1.629   2.459   1.573 -2.3291  0.6824 -1.1590
10906SOL     OW34168   7.504   5.996   5.896  0.2447  0.1488 -0.2444
10906SOL    HW134169   7.423   5.967   5.852  0.6418 -0.3605 -0.6603
10906SOL    HW234170   7.566   5.926   5.879 -0.0493 -0.9147  2.6114
10907SOL     OW34171   3.436   8.963   0.420  0.4209  0.1469 -0.4966
10907SOL    HW134172   3.456   8.943   0.511 -0.2023  0.2273 -0.3452
10907SOL    HW234173   3.512   8.928   0.372 -0.6654 -2.8706 -0.2723
10908SOL     OW34174   2.582   7.274   8.776 -0.5308  0.4088  0.5187
10908SOL    HW134175   2.646   7.280   8.847  1.4064  1.3563 -1.1931
10908SOL    HW234176   2.497   7.270   8.820  0.5937  0.7684  2.8668
10909SOL     OW34177   5.974   9.161   2.395 -0.0828 -0.1842  0.2102
10909SOL    HW134178   5.963   9.069   2.370  1.4896  0.0981 -1.7855
10909SOL    HW234179   5.892   9.202   2.369 -0.1674 -0.7413 -0.4486
10910SOL     OW34180   4.451   4.238   6.301  0.2404 -0.3264  0.0624
10910SOL    HW134181   4.393   4.170   6.337 -1.1860  0.5028 -0.5793
10910SOL    HW234182   4.397   4.285   6.238  1.3545  1.0544  0.0746
10911SOL     OW34183   6.087   2.579   3.180  0.1824 -0.2079 -0.1279
10911SOL    HW134184   6.004   2.537   3.202  0.3602 -1.6119 -1.8480
10911SOL    HW234185   6.143   2.507   3.150  2.0872  0.6887  1.1082
10912SOL     OW34186   2.057   5.964   1.706  0.8503  0.1772  0.2086
10912SOL    HW134187   2.151   5.947   1.695  0.7471 -0.2304 -0.0323
10912SOL    HW234188   2.015   5.879   1.697  0.3740  0.4878 -0.6003
10913SOL     OW34189   4.366   6.031   2.355 -0.6101  0.7489  0.5279
10913SOL    HW134190   4.412   6.093   2.411 -0.4059  0.0202  1.1820
10913SOL    HW234191   4.341   5.960   2.413  0.7890 -0.6812 -0.5297
10914SOL     OW34192   6.703   5.454   7.078 -0.1056 -0.1098  0.2130
10914SOL    HW134193   6.735   5.543   7.066 -1.2339  0.1925 -0.8052
10914SOL    HW234194   6.631   5.462   7.141  0.3919 -0.4486  0.8313
10915SOL     OW34195   2.167   8.506   5.926 -0.0684  0.1882  0.3079
10915SOL    HW134196   2.116   8.430   5.954 -2.3293  1.8313  0.9308
10915SOL    HW234197   2.251   8.497   5.972 -0.8223 -1.1759  1.4828
10916SOL     OW34198   2.148   9.049   7.878 -0.0766  0.4495 -0.6890
10916SOL    HW134199   2.195   8.981   7.928 -0.5342  1.3256  1.0317
10916SOL    HW234200   2.069   9.005   7.847  0.2301 -0.1334 -0.6653
10917SOL     OW34201   8.901   7.172   5.734 -0.2793 -0.3550 -0.2418
10917SOL    HW134202   8.876   7.168   5.826  1.2565 -1.6822  0.1665
10917SOL    HW234203   8.834   7.121   5.688  0.1622 -1.6262  0.4734
10918SOL     OW34204   2.315   7.863   3.137 -0.2844 -0.2168  0.0674
10918SOL    HW134205   2.395   7.857   3.085  0.6780  2.3114  1.0898
10918SOL    HW234206   2.341   7.830   3.223 -0.3841  0.3479  0.3210
10919SOL     OW34207   5.955   5.248   5.160  0.4533  0.4431 -0.2916
10919SOL    HW134208   5.862   5.239   5.140  0.7150 -1.2761 -0.8161
10919SOL    HW234209   5.999   5.236   5.076  1.1619  1.6656 -0.1274
10920SOL     OW34210   4.218   2.800   5.117 -0.1409 -0.3503 -0.3712
10920SOL    HW134211   4.202   2.771   5.207 -1.3718 -0.0836 -0.4771
10920SOL    HW234212   4.182   2.730   5.063 -2.2547  0.8435 -0.6292
10921SOL     OW34213   3.349   4.067   4.607 -0.0968 -0.8668 -0.3065
10921SOL    HW134214   3.299   4.011   4.667  0.4003 -2.1437 -1.0273
10921SOL    HW234215   3.320   4.039   4.520  0.7904 -0.5916 -0.6940
10922SOL     OW34216   8.074   6.376   5.266 -0.2464  0.2028  0.1369
10922SOL    HW134217   7.991   6.398   5.308 -1.0718  0.1579 -1.3852
10922SOL    HW234218   8.062   6.402   5.174  1.0118 -0.8211 -0.3514
10923SOL     OW34219   3.227   3.482   4.869 -0.6828 -0.1188 -0.0643
10923SOL    HW134220   3.137   3.483   4.836 -1.1431  1.1060  1.1187
10923SOL    HW234221   3.270   3.554   4.822 -1.4255  1.8425  2.0280
10924SOL     OW34222   6.728   3.872   1.680  0.3175 -0.5584 -0.0951
10924SOL    HW134223   6.648   3.856   1.730  0.1919 -1.4715 -0.5796
10924SOL    HW234224   6.796   3.880   1.746 -0.3753  1.8057  0.4530
10925SOL     OW34225   3.863   0.078   5.122 -0.3055  0.4448 -0.3689
10925SOL    HW134226   3.888  -0.000   5.074 -1.4766  0.3756 -0.8913
10925SOL    HW234227   3.925   0.082   5.195  2.3582  1.2330 -2.4970
10926SOL     OW34228   0.385   2.129   7.356  0.3086 -0.6364  0.2011
10926SOL    HW134229   0.477   2.109   7.372  0.2583 -2.2485 -1.2633
10926SOL    HW234230   0.363   2.193   7.423  2.7099  0.4396  0.1005
10927SOL     OW34231   6.660   5.288   1.712  0.2259  0.0049 -0.3209
10927SOL    HW134232   6.657   5.274   1.807 -3.6795 -0.6337 -0.3869
10927SOL    HW234233   6.681   5.201   1.676  0.5293 -0.0105 -0.1171
10928SOL     OW34234   1.829   1.658   9.181 -0.8402  0.0817  0.1035
10928SOL    HW134235   1.784   1.742   9.175  0.7261  1.2816  2.9328
10928SOL    HW234236   1.775   1.605   9.239 -0.3580  0.2575  0.7238
10929SOL     OW34237   5.765   2.573   5.041 -0.8157  0.1200  0.4975
10929SOL    HW134238   5.730   2.486   5.024  0.6763 -0.3238 -0.4441
10929SOL    HW234239   5.804   2.567   5.128 -0.0081 -0.4039  0.1094
10930SOL     OW34240   4.461   6.205   1.196 -0.1150  0.6630  0.1474
10930SOL    HW134241   4.451   6.132   1.134 -1.2610  1.7530 -0.9945
10930SOL    HW234242   4.518   6.267   1.151 -0.1313  1.0176  0.6099
10931SOL     OW34243   6.839   5.797   5.463 -0.0565 -0.0774 -0.1913
10931SOL    HW134244   6.755   5.786   5.508  0.1140 -1.7124 -0.1983
10931SOL    HW234245   6.820   5.776   5.371  0.2276  0.1668 -0.3074
10932SOL     OW34246   3.406   5.020   2.295 -0.3508 -0.4633 -0.1382
10932SOL    HW134247   3.449   5.088   2.244 -1.7142  0.9072  0.4735
10932SOL    HW234248   3.470   4.949   2.298  0.2760 -0.1235 -2.6661
10933SOL     OW34249   2.069   2.747   8.510 -0.4478 -0.5968  0.4458
10933SOL    HW134250   2.041   2.820   8.456 -0.0681 -2.0037 -1.7553
10933SOL    HW234251   2.148   2.780   8.555  0.5055 -0.0415 -1.5300
10934SOL     OW34252   5.939   4.790   4.739 -0.3870  0.6126  0.1258
10934SOL    HW134253   6.013   4.850   4.752 -1.2203  1.7986 -0.4305
10934SOL    HW234254   5.864   4.837   4.773 -1.2273  0.2974 -1.2321
10935SOL     OW34255   2.446   3.141   7.006  0.1553 -0.0017 -0.4935
10935SOL    HW134256   2.387   3.125   6.932  1.3887 -0.7369 -1.3406
10935SOL    HW234257   2.532   3.151   6.966  0.9042 -0.7804  0.8795
10936SOL     OW34258   7.074   6.688   0.494  0.2758  0.2206  0.4335
10936SOL    HW134259   7.136   6.691   0.567  0.6906  0.0628  0.0915
10936SOL    HW234260   7.123   6.646   0.423 -1.1202 -2.6125  1.0137
10937SOL     OW34261   4.758   6.742   1.004 -0.3835 -0.1357  0.5494
10937SOL    HW134262   4.736   6.660   0.959  0.0258  1.4375 -2.7804
10937SOL    HW234263   4.677   6.794   1.001 -0.2583  0.1356  1.4388
10938SOL     OW34264   1.395   6.032   7.237  0.2296  0.3293 -0.1328
10938SOL    HW134265   1.436   6.086   7.304 -0.0892 -0.3602  0.6360
10938SOL    HW234266   1.348   6.094   7.181  2.0881  1.1180 -0.9084
10939SOL     OW34267   5.471   0.389   3.273  0.6341 -0.5913 -0.7303
10939SOL    HW134268   5.503   0.306   3.307  3.5174 -0.7453 -3.4139
10939SOL    HW234269   5.539   0.452   3.295 -0.2553  0.5127 -1.0709
10940SOL     OW34270   6.552   0.446   6.524 -0.0337 -0.2540  0.5050
10940SOL    HW134271   6.645   0.426   6.533  0.4478  0.6805 -1.6443
10940SOL    HW234272   6.517   0.377   6.467 -0.1061  0.6093 -0.5371
10941SOL     OW34273   4.432   8.144   7.288 -0.1166 -0.3478  0.5573
10941SOL    HW134274   4.353   8.135   7.236  0.0351 -0.6802  0.3854
10941SOL    HW234275   4.401   8.174   7.374 -0.3256  0.6698  0.1411
10942SOL     OW34276   2.028   7.919   1.540  0.0980  0.5796 -0.3036
10942SOL    HW134277   2.046   7.829   1.565 -2.1382 -0.1911 -1.2248
10942SOL    HW234278   2.099   7.970   1.579  0.7414 -1.4174  1.2691
10943SOL     OW34279   3.409   0.878   2.097 -0.1487  0.1112  0.0070
10943SOL    HW134280   3.389   0.909   2.009 -1.2078  1.2385  0.6052
10943SOL    HW234281   3.399   0.956   2.152  2.0627 -0.1769  0.9319
10944SOL     OW34282   7.791   8.102   1.087 -0.7102 -0.1594 -0.0599
10944SOL    HW134283   7.714   8.068   1.132 -0.4638 -0.0173  0.4825
10944SOL    HW234284   7.783   8.197   1.096 -0.6915 -0.1272 -0.3756
10945SOL     OW34285   5.277   4.518   7.900 -0.1372  0.5512 -0.0386
10945SOL    HW134286   5.323   4.436   7.887  0.2423  0.7029  0.3077
10945SOL    HW234287   5.296   4.542   7.991 -0.8898  0.6263  0.1108
10946SOL     OW34288   9.168   1.758   5.906  0.0494  0.5828  0.3439
10946SOL    HW134289   9.161   1.755   5.811  0.2977  0.7469  0.3176
10946SOL    HW234290   9.081   1.736   5.938  0.5107 -1.8802  0.1230
10947SOL     OW34291   8.918   6.101   2.164  0.4394 -0.4852  0.3960
10947SOL    HW134292   8.984   6.046   2.122 -1.1285 -0.3366 -2.5549
10947SOL    HW234293   8.926   6.186   2.119 -0.2756  0.2339  1.5699
10948SOL     OW34294   3.936   5.734   9.259  0.6462  0.2951  0.2686
10948SOL    HW134295   4.010   5.762   9.205 -1.6680  1.3839 -2.6226
10948SOL    HW234296   3.902   5.657   9.214 -2.0441  1.8915 -0.6484
10949SOL     OW34297   4.177   5.299   1.804 -1.0688 -0.4703 -0.4625
10949SOL    HW134298   4.119   5.360   1.850  0.1070  0.4233 -0.1248
10949SOL    HW234299   4.203   5.236   1.870 -0.1397  0.2585 -0.1116
10950SOL     OW34300   6.441   1.441   7.041 -0.0398  0.2001 -0.4150
10950SOL    HW134301   6.428   1.390   7.121 -0.7096  0.1546 -0.5454
10950SOL    HW234302   6.500   1.388   6.988  0.5492  0.3137  0.1187
10951SOL     OW34303   7.801   5.324   8.270 -0.1267 -0.3627  0.6551
10951SOL    HW134304   7.782   5.235   8.239  0.0584  0.0104 -0.5577
10951SOL    HW234305   7.873   5.312   8.332  0.2469 -1.0170  0.1092
10952SOL     OW34306   1.707   7.684   0.002  0.0300  0.3632 -0.0423
10952SOL    HW134307   1.614   7.707   0.012 -0.4937 -1.6785  0.1665
10952SOL    HW234308   1.730   7.643   0.085  0.8559 -0.0154 -0.4537
10953SOL     OW34309   4.689   2.287   2.943  0.3732 -0.4569 -0.2737
10953SOL    HW134310   4.765   2.318   2.893  1.8580 -1.2913  1.3328
10953SOL    HW234311   4.629   2.361   2.944  1.7086  0.6790 -0.5576
10954SOL     OW34312   2.847   8.061   0.416 -0.1147  0.1638 -0.3894
10954SOL    HW134313   2.936   8.033   0.393 -0.1848  0.4720 -1.0753
10954SOL    HW234314   2.808   8.085   0.332 -0.3744  1.3807  0.0557
10955SOL     OW34315   0.584   0.047   4.703  0.4727  0.3681  0.2656
10955SOL    HW134316   0.649   0.115   4.719  1.3196 -0.6943  1.5168
10955SOL    HW234317   0.509   0.094   4.666  1.4003  1.8216  0.1624
10956SOL     OW34318   8.689   5.869   8.717  0.0141  0.1554  0.6984
10956SOL    HW134319   8.623   5.869   8.786  0.7699 -0.8224  1.4392
10956SOL    HW234320   8.752   5.936   8.745 -0.6862  1.1758 -0.0699
10957SOL     OW34321   8.115   0.801   3.215  0.1833  0.1986  0.3932
10957SOL    HW134322   8.191   0.803   3.157 -0.5109 -1.1797 -0.6338
10957SOL    HW234323   8.069   0.883   3.197 -0.3843 -0.4912 -1.5940
10958SOL     OW34324   8.993   1.498   7.513  0.2598 -0.1691 -0.5490
10958SOL    HW134325   8.998   1.438   7.439 -1.9956 -0.2875 -0.6880
10958SOL    HW234326   8.946   1.449   7.580 -1.0468  1.1751 -0.4272
10959SOL     OW34327   6.161   2.628   4.329 -0.1634  0.3332 -0.3189
10959SOL    HW134328   6.200   2.713   4.350  0.3680  0.3088 -1.1845
10959SOL    HW234329   6.144   2.588   4.415  1.4539  0.4600  0.0925
10960SOL     OW34330   3.318   5.318   3.148  0.1873 -0.2006  0.1343
10960SOL    HW134331   3.393   5.302   3.091 -0.4322 -0.2190 -0.6940
10960SOL    HW234332   3.357   5.347   3.230  1.0930  0.4010 -0.4760
10961SOL     OW34333   7.980   7.403   6.658  0.1614 -0.8640 -0.0115
10961SOL    HW134334   7.977   7.495   6.632  2.0561 -0.2802  1.5741
10961SOL    HW234335   7.899   7.389   6.707  0.2315  0.2137  0.4298
10962SOL     OW34336   9.053   3.090   0.112  0.1239  0.0632  0.5715
10962SOL    HW134337   8.960   3.077   0.127  0.2449 -0.3816  0.9855
10962SOL    HW234338   9.089   3.109   0.199  0.5239 -0.4774  0.5294
10963SOL     OW34339   4.749   3.008   1.413 -0.3272 -0.1990 -0.1110
10963SOL    HW134340   4.805   3.056   1.474  0.0214 -1.8390  0.9331
10963SOL    HW234341   4.806   2.986   1.340 -0.4133  0.6837 -0.4552
10964SOL     OW34342   3.416   1.416   3.208 -0.1593  0.0487  0.2986
10964SOL    HW134343   3.374   1.331   3.196  1.5842 -0.8105 -0.0794
10964SOL    HW234344   3.412   1.432   3.302 -2.1499  0.4874  0.1893
10965SOL     OW34345   5.396   7.478   1.898  0.2053  0.0347 -0.0200
10965SOL    HW134346   5.327   7.415   1.878 -0.6095  1.0517 -0.5132
10965SOL    HW234347   5.416   7.519   1.814  1.1722 -0.0029  0.1800
10966SOL     OW34348   6.712   0.221   2.389  0.2193 -0.7685  0.4213
10966SOL    HW134349   6.636   0.206   2.445  0.1885 -1.5950  0.1768
10966SOL    HW234350   6.750   0.134   2.377 -0.2779 -0.7618 -1.5353
10967SOL     OW34351   4.774   8.832   4.476  0.0297 -0.4551 -0.4132
10967SOL    HW134352   4.751   8.904   4.534 -0.4388 -1.1343  0.2557
10967SOL    HW234353   4.864   8.810   4.501  1.0611  1.3719 -2.1781
10968SOL     OW34354   5.712   4.644   5.586 -0.2010  1.0348  0.2785
10968SOL    HW134355   5.622   4.631   5.615 -0.0222  0.2677  0.5208
10968SOL    HW234356   5.708   4.722   5.531 -1.1831  0.4789 -0.4732
10969SOL     OW34357   8.468   5.402   5.992 -0.3956 -0.2795 -0.1127
10969SOL    HW134358   8.434   5.410   5.903 -0.7141 -0.1357  0.0180
10969SOL    HW234359   8.428   5.322   6.026 -1.2660  0.3191  0.3203
10970SOL     OW34360   4.884   4.514   3.247  0.6956  0.4752 -0.3126
10970SOL    HW134361   4.858   4.478   3.162 -2.9241  0.5924  0.5805
10970SOL    HW234362   4.906   4.437   3.300 -0.1952  0.1077 -0.4521
10971SOL     OW34363   4.038   0.155   2.672 -0.5601  0.3127 -0.0814
10971SOL    HW134364   4.013   0.191   2.758  1.2567  1.7379 -0.0981
10971SOL    HW234365   4.060   0.064   2.690 -1.7174  0.1547  0.6602
10972SOL     OW34366   8.246   9.085   7.043 -0.5865 -0.2718 -0.0540
10972SOL    HW134367   8.170   9.072   7.100 -0.0814  2.1593  1.3154
10972SOL    HW234368   8.239   9.176   7.014  1.8903  0.1099  0.2920
10973SOL     OW34369   5.684   5.185   5.140  0.6639 -0.2699 -0.2670
10973SOL    HW134370   5.616   5.118   5.152  0.7374 -0.0639  1.6549
10973SOL    HW234371   5.636   5.262   5.111  0.4067 -0.7826 -1.2349
10974SOL     OW34372   3.380   8.682   3.636  0.3103  0.0265 -0.0487
10974SOL    HW134373   3.341   8.755   3.683 -0.0569 -0.7409  0.8688
10974SOL    HW234374   3.346   8.604   3.680  3.2199 -0.7021  1.1146
10975SOL     OW34375   4.388   7.021   7.389  0.0893  0.1257 -0.6879
10975SOL    HW134376   4.359   6.979   7.470 -1.2254  1.7288 -0.2713
10975SOL    HW234377   4.458   7.081   7.416 -0.6514  0.9891 -0.6351
10976SOL     OW34378   0.056   5.511   3.010 -0.7512  0.0796  0.6121
10976SOL    HW134379   0.106   5.583   2.972 -0.1497 -1.5023 -1.7801
10976SOL    HW234380  -0.019   5.499   2.951  0.3588 -2.6467 -0.4076
10977SOL     OW34381   7.623   7.438   3.287  0.3410  0.4322  0.7042
10977SOL    HW134382   7.666   7.373   3.232 -0.3692  0.5195  0.0133
10977SOL    HW234383   7.673   7.439   3.368  0.0119 -1.4324  0.9819
10978SOL     OW34384   6.600   1.322   8.501  0.2841  0.4636 -0.1273
10978SOL    HW134385   6.578   1.280   8.585  0.3653  0.3536 -0.1605
10978SOL    HW234386   6.687   1.288   8.479 -0.3390 -0.6721 -0.9815
10979SOL     OW34387   1.564   1.339   2.676 -0.4554  0.0187  0.2642
10979SOL    HW134388   1.614   1.325   2.756 -2.6882  1.3605  1.9776
10979SOL    HW234389   1.500   1.268   2.675 -1.9930  1.3576  0.9924
10980SOL     OW34390   7.946   7.505   2.067 -0.3313  0.1465  0.3715
10980SOL    HW134391   7.957   7.445   1.994 -1.6732 -1.7784  1.6652
10980SOL    HW234392   7.885   7.571   2.036  0.8135  0.6509 -0.9160
10981SOL     OW34393   0.307   1.725   7.352  0.0954 -0.1969  0.0321
10981SOL    HW134394   0.236   1.782   7.321 -1.3770 -1.5962  0.6882
10981SOL    HW234395   0.305   1.732   7.447  0.6637 -0.4488  0.0687
10982SOL     OW34396   5.723   1.752   7.386  0.5405 -0.2147 -0.1819
10982SOL    HW134397   5.726   1.847   7.401  1.7172 -0.3103  0.3017
10982SOL    HW234398   5.659   1.720   7.449  1.4227  0.0679  0.8952
10983SOL     OW34399   2.826   5.398   0.626  0.4341 -0.3595  0.0092
10983SOL    HW134400   2.892   5.390   0.695  0.2220 -1.5788  0.0916
10983SOL    HW234401   2.778   5.478   0.649  1.6130  0.3328  0.1632
10984SOL     OW34402   0.474   2.791   0.211  0.0759  0.4616 -0.1964
10984SOL    HW134403   0.408   2.851   0.176 -0.7644  0.2909  1.0293
10984SOL    HW234404   0.458   2.708   0.166  1.3520  1.1578 -2.0247
10985SOL     OW34405   4.047   7.351   1.938 -0.1189 -0.0126 -0.0912
10985SOL    HW134406   3.996   7.431   1.927  0.3735  0.4201  0.7022
10985SOL    HW234407   3.984   7.280   1.923 -0.4572  0.5074 -1.2524
10986SOL     OW34408   8.727   2.973   0.085 -0.1685  0.2251  0.0218
10986SOL    HW134409   8.732   3.042   0.019 -0.3920 -0.1518 -0.3946
10986SOL    HW234410   8.634   2.954   0.093 -0.0791 -0.3513 -0.2169
10987SOL     OW34411   8.724   1.050   7.504  0.7639 -0.2845  0.1624
10987SOL    HW134412   8.722   0.996   7.425 -0.2789 -0.5311  0.3464
10987SOL    HW234413   8.683   1.132   7.479 -0.4648 -0.7175  0.6837
10988SOL     OW34414   0.700   2.147   9.151  0.1842 -0.1541  0.0357
10988SOL    HW134415   0.695   2.220   9.089  0.9250 -0.6755 -0.6409
10988SOL    HW234416   0.739   2.186   9.230  0.0783  0.3010 -0.1315
10989SOL     OW34417   5.857   5.204   7.407 -0.3577  0.7973  0.5430
10989SOL    HW134418   5.783   5.144   7.416  1.6630 -1.8391  0.8468
10989SOL    HW234419   5.920   5.175   7.474  2.1356  0.9313 -1.5476
10990SOL     OW34420   4.483   6.123   1.978 -0.0735 -0.7554  0.1896
10990SOL    HW134421   4.575   6.137   1.957 -0.6980  0.2166 -2.2726
10990SOL    HW234422   4.460   6.196   2.035  0.2817 -0.0168 -0.5911
10991SOL     OW34423   9.081   8.949   7.073  0.2999  0.0729  0.0115
10991SOL    HW134424   9.085   8.982   6.983 -0.2499 -0.3489 -0.1722
10991SOL    HW234425   9.148   8.881   7.077 -0.0464 -0.2839 -0.2382
10992SOL     OW34426   5.564   4.114   5.523  0.1339  0.4610 -0.7180
10992SOL    HW134427   5.617   4.087   5.598 -2.0549 -1.2911  0.3329
10992SOL    HW234428   5.533   4.032   5.484 -0.6199  1.3805 -2.1740
10993SOL     OW34429   1.317   2.541   0.666 -0.0752  0.1487  0.3902
10993SOL    HW134430   1.253   2.576   0.605  0.4431 -0.1241 -0.3255
10993SOL    HW234431   1.297   2.584   0.749 -0.4660  0.9155 -0.0902
10994SOL     OW34432   2.352   7.654   5.378  0.1115 -0.1210  0.2345
10994SOL    HW134433   2.277   7.612   5.335 -0.1777  0.7718 -0.1650
10994SOL    HW234434   2.405   7.581   5.412  0.2174 -0.8563 -1.4207
10995SOL     OW34435   2.911   2.760   8.849 -0.2659  0.5042 -0.3616
10995SOL    HW134436   2.923   2.758   8.754  0.8045 -0.0269 -0.2288
10995SOL    HW234437   2.867   2.678   8.869  1.1997 -0.2813 -0.2107
10996SOL     OW34438   5.320   8.714   5.291 -0.0593 -0.1901 -0.2266
10996SOL    HW134439   5.271   8.643   5.248 -2.3698  0.1837  1.5934
10996SOL    HW234440   5.383   8.669   5.347 -0.5626 -0.7900 -0.1220
10997SOL     OW34441   1.222   6.885   2.695  0.1113 -0.3317 -0.5065
10997SOL    HW134442   1.287   6.955   2.688  0.5484 -0.8661 -2.2221
10997SOL    HW234443   1.267   6.807   2.662 -0.8987 -1.0751 -0.1901
10998SOL     OW34444   9.007   8.038   7.187 -0.3220 -0.4930  0.0562
10998SOL    HW134445   8.916   8.053   7.162  0.4527  1.7281 -1.7095
10998SOL    HW234446   9.015   7.942   7.189 -2.3498 -0.7422 -1.0389
10999SOL     OW34447   5.482   6.825   8.458  0.7112 -0.2516  0.3157
10999SOL    HW134448   5.558   6.767   8.468 -0.2322 -1.4300  0.9299
10999SOL    HW234449   5.420   6.794   8.524 -0.6093  0.2009 -0.6813
11000SOL     OW34450   4.633   8.512   5.860 -0.0026 -0.2568  0.4731
11000SOL    HW134451   4.649   8.534   5.768  0.9124 -0.6384  0.5361
11000SOL    HW234452   4.692   8.569   5.909 -0.4974 -0.0477  0.8328
11001SOL     OW34453   5.555   3.533   1.270  0.4721  0.4014 -0.4478
11001SOL    HW134454   5.559   3.605   1.207 -1.1054 -0.1441 -1.2054
11001SOL    HW234455   5.505   3.465   1.226  1.4061 -0.9412  0.4972
11002SOL     OW34456   4.315   9.108   6.598 -0.8667  0.2141  0.2040
11002SOL    HW134457   4.371   9.032   6.580 -0.6587  0.7197 -1.4848
11002SOL    HW234458   4.234   9.071   6.631 -0.0021 -0.6029  1.4958
11003SOL     OW34459   6.800   6.341   5.018  0.0471 -0.6741  0.3296
11003SOL    HW134460   6.768   6.359   4.929  0.4152  0.6981  0.4571
11003SOL    HW234461   6.730   6.372   5.075  0.9462  0.9810  0.5714
11004SOL     OW34462   1.551   3.507   3.416  0.2214 -0.0484 -0.0939
11004SOL    HW134463   1.509   3.533   3.497 -1.2346 -0.1770 -0.7858
11004SOL    HW234464   1.640   3.544   3.422  0.0827  0.0927  1.4502
11005SOL     OW34465   5.912   3.385   1.031  0.9723  0.3609  0.6524
11005SOL    HW134466   5.993   3.415   0.991  0.4247  0.1144 -0.6877
11005SOL    HW234467   5.901   3.441   1.109  2.2588  0.5794  0.6882
11006SOL     OW34468   2.451   5.302   8.717 -0.3735 -0.6437  0.5587
11006SOL    HW134469   2.459   5.211   8.690 -0.9459 -0.6501  0.3888
11006SOL    HW234470   2.390   5.300   8.791  0.9377 -0.5923  1.6706
11007SOL     OW34471   2.930   7.506   4.709 -0.3927  0.1654  0.3487
11007SOL    HW134472   2.963   7.572   4.770 -0.6825 -0.7118  1.4932
11007SOL    HW234473   2.987   7.430   4.723 -1.7385 -0.7595  1.0551
11008SOL     OW34474   8.337   5.683   7.924 -0.1998 -0.0818  0.6321
11008SOL    HW134475   8.388   5.741   7.980  3.2474  0.5669 -2.6869
11008SOL    HW234476   8.312   5.737   7.849  1.2935 -2.1744 -1.5641
11009SOL     OW34477   2.176   6.511   4.053  0.5744 -0.5842  0.3161
11009SOL    HW134478   2.177   6.595   4.099 -0.3990 -0.9880  1.1221
11009SOL    HW234479   2.263   6.474   4.068  0.3610 -0.5883  1.6387
11010SOL     OW34480   3.268   6.606   8.727 -0.1131  0.5093 -0.1127
11010SOL    HW134481   3.199   6.621   8.663 -0.4470 -1.1570 -0.1641
11010SOL    HW234482   3.321   6.536   8.690  0.0203 -0.0954  1.1742
11011SOL     OW34483   1.177   7.614   8.287 -0.0187 -0.1067  0.6086
11011SOL    HW134484   1.134   7.674   8.227 -0.4125 -1.6696 -0.7294
11011SOL    HW234485   1.270   7.616   8.261 -0.1198 -0.4642  0.2108
11012SOL     OW34486   0.004   0.574   3.698  0.7129  0.3569  0.0189
11012SOL    HW134487   0.036   0.659   3.666 -0.9293  1.2267  0.5463
11012SOL    HW234488   0.079   0.536   3.743  1.4218  1.6577  0.0001
11013SOL     OW34489   3.899   7.541   1.803  0.1088  0.4594 -0.2313
11013SOL    HW134490   3.880   7.551   1.709 -0.7762  1.8344  0.0701
11013SOL    HW234491   3.954   7.616   1.825  1.8383 -0.8121  0.0087
11014SOL     OW34492   0.999   0.334   8.812 -0.8130  0.2101 -0.1743
11014SOL    HW134493   1.063   0.354   8.744  1.3547 -1.6240  1.1984
11014SOL    HW234494   0.940   0.271   8.771  0.5913 -1.0369 -0.3590
11015SOL     OW34495   8.189   7.708   5.868 -0.3361  0.3131 -0.3593
11015SOL    HW134496   8.108   7.708   5.919 -1.1758 -0.5310 -1.6524
11015SOL    HW234497   8.164   7.744   5.783  0.7270  0.3717 -0.6569
11016SOL     OW34498   4.264   0.863   1.351 -0.2840  0.6508  0.3978
11016SOL    HW134499   4.220   0.778   1.355  1.3229 -0.3945 -1.8882
11016SOL    HW234500   4.332   0.857   1.418 -1.1214  0.7535  1.2768
11017SOL     OW34501   3.765   4.355   8.793 -0.2475  0.2302 -0.1878
11017SOL    HW134502   3.845   4.406   8.779 -0.5490  0.7521 -0.0307
11017SOL    HW234503   3.731   4.387   8.876 -0.5587 -0.0780 -0.1972
11018SOL     OW34504   8.539   6.962   2.584  0.5096 -0.4740 -0.3300
11018SOL    HW134505   8.593   7.032   2.547 -0.1323 -0.1966 -0.7659
11018SOL    HW234506   8.540   6.893   2.518 -0.6557  0.0306 -0.8989
11019SOL     OW34507   8.016   3.524   0.723 -0.1554  0.3359  0.3630
11019SOL    HW134508   8.112   3.527   0.726 -0.1050 -0.2727 -0.2748
11019SOL    HW234509   7.996   3.493   0.635 -0.8983 -0.7211  0.8767
11020SOL     OW34510   6.965   4.699   4.123  0.1836 -0.4762 -0.6369
11020SOL    HW134511   6.942   4.613   4.159 -0.3245  0.3552  1.1590
11020SOL    HW234512   6.968   4.756   4.199 -0.3894  1.3113 -1.9034
11021SOL     OW34513   2.192   2.821   3.445  0.2756 -0.1072  0.1476
11021SOL    HW134514   2.272   2.775   3.472 -0.2034 -1.2487 -0.3176
11021SOL    HW234515   2.127   2.751   3.434 -0.4858  0.6920 -0.5388
11022SOL     OW34516   3.287   8.406   1.420 -0.5015 -0.1394  0.8511
11022SOL    HW134517   3.379   8.429   1.437 -0.7556  0.0611  2.0487
11022SOL    HW234518   3.291   8.322   1.374  0.3517  1.0112 -1.2915
11023SOL     OW34519   8.735   0.869   8.270  0.2390  0.3206 -0.0785
11023SOL    HW134520   8.651   0.885   8.226 -0.4013 -0.3623  0.8680
11023SOL    HW234521   8.715   0.872   8.363  0.9003 -1.5965  0.1677
11024SOL     OW34522   6.173   0.740   2.333 -0.0045  0.0222  0.1532
11024SOL    HW134523   6.099   0.759   2.391  0.3080  0.9614  0.2557
11024SOL    HW234524   6.227   0.678   2.382  0.6984  1.4485  1.2531
11025SOL     OW34525   2.646   8.459   0.329 -0.0746  0.1771 -0.1166
11025SOL    HW134526   2.689   8.373   0.329 -0.3848  0.0211 -0.1136
11025SOL    HW234527   2.553   8.439   0.335 -0.0640  0.5567  1.9309
11026SOL     OW34528   5.967   2.870   3.942  0.4926  0.2223  0.1348
11026SOL    HW134529   5.873   2.850   3.940  0.6063 -0.3064 -0.5681
11026SOL    HW234530   5.972   2.963   3.921  0.1261  0.2056 -0.0429
11027SOL     OW34531   2.627   6.923   8.823  0.2532 -0.0918  0.0449
11027SOL    HW134532   2.684   6.853   8.856 -1.2478 -1.2117  0.3406
11027SOL    HW234533   2.688   6.991   8.795  1.7938 -1.7740 -0.8952
11028SOL     OW34534   2.205   5.494   4.147 -0.4297  0.2767  0.0136
11028SOL    HW134535   2.178   5.490   4.239 -1.0398 -1.0188 -0.1960
11028SOL    HW234536   2.179   5.581   4.118 -2.4454 -0.1463  0.4269
11029SOL     OW34537   8.660   2.929   1.719 -0.4238 -0.7387  0.4509
11029SOL    HW134538   8.629   2.891   1.637  0.8571 -0.8797  0.0034
11029SOL    HW234539   8.755   2.935   1.708 -0.3255  0.1083  1.5644
11030SOL     OW34540   5.740   0.793   6.176 -0.6089 -0.1098 -0.4430
11030SOL    HW134541   5.646   0.781   6.185 -0.8152  0.8342 -1.1681
11030SOL    HW234542   5.775   0.704   6.171 -1.2495 -0.5203  1.5682
11031SOL     OW34543   1.774   3.181   8.683 -0.0976  0.2421  0.1081
11031SOL    HW134544   1.688   3.159   8.721 -0.7753  0.1964 -1.3824
11031SOL    HW234545   1.757   3.188   8.589  1.8995 -1.5461 -0.4457
11032SOL     OW34546   9.249   5.353   8.830 -0.1046 -0.2364  0.0678
11032SOL    HW134547   9.184   5.424   8.830 -1.1525 -1.1450  0.8518
11032SOL    HW234548   9.204   5.280   8.872  0.5869 -1.7106 -1.6137
11033SOL     OW34549   4.867   8.307   3.054 -0.7301 -0.0897  0.0046
11033SOL    HW134550   4.849   8.293   3.147  0.2797  3.4564  0.8907
11033SOL    HW234551   4.963   8.307   3.048 -0.7852 -0.0834 -0.9812
11034SOL     OW34552   4.334   5.151   4.051 -0.3418  0.0533 -0.2698
11034SOL    HW134553   4.267   5.186   4.109 -1.7017 -0.2530 -1.5900
11034SOL    HW234554   4.415   5.155   4.102 -0.9822  2.2572  0.6906
11035SOL     OW34555   0.518   4.617   0.720 -0.4996 -0.0513 -0.0177
11035SOL    HW134556   0.458   4.601   0.793 -0.7234 -0.5010 -0.3009
11035SOL    HW234557   0.596   4.567   0.742 -0.2529  0.4698  0.3117
11036SOL     OW34558   4.837   4.039   3.415  0.9575 -0.4261 -0.2794
11036SOL    HW134559   4.869   3.972   3.354  1.1216 -2.3850  1.8061
11036SOL    HW234560   4.761   3.999   3.457  1.1048  0.6556  1.0959
11037SOL     OW34561   3.726   3.794   1.985  0.6707  0.1525 -0.0103
11037SOL    HW134562   3.736   3.888   2.004  0.8028  0.0700  0.3458
11037SOL    HW234563   3.765   3.783   1.898  0.4482  0.4673 -0.1512
11038SOL     OW34564   0.926   1.897   6.224  0.1461  0.3446 -0.5057
11038SOL    HW134565   0.941   1.926   6.134 -0.4917 -2.0046 -1.4504
11038SOL    HW234566   0.850   1.839   6.218 -1.1880  1.6663  1.9341
11039SOL     OW34567   1.819   0.942   8.593  0.0982  0.1268  0.1361
11039SOL    HW134568   1.787   0.953   8.683 -0.0265 -1.1966  0.2664
11039SOL    HW234569   1.908   0.979   8.595 -0.4208  1.3960  0.4345
11040SOL     OW34570   3.023   8.074   8.344  0.1669 -0.6699 -0.8473
11040SOL    HW134571   3.042   8.075   8.438 -1.7252  0.4499 -0.4204
11040SOL    HW234572   3.022   7.981   8.321  0.1301 -0.9955  0.3606
11041SOL     OW34573   3.956   7.993   0.019  0.3313  0.3048  0.2091
11041SOL    HW134574   4.046   8.007   0.050  0.3644 -1.3308  0.9287
11041SOL    HW234575   3.951   7.900  -0.001 -1.5535  0.1010  1.3805
11042SOL     OW34576   4.457   6.299   0.166  0.2162 -0.3696 -0.5796
11042SOL    HW134577   4.394   6.371   0.170  0.5963  0.0916 -2.2584
11042SOL    HW234578   4.535   6.336   0.125  1.2203 -1.2099  0.4667
11043SOL     OW34579   3.282   8.890   3.832 -0.1072 -1.0540  0.5697
11043SOL    HW134580   3.339   8.947   3.882 -2.0477  0.7906  0.8084
11043SOL    HW234581   3.253   8.823   3.895 -0.3284 -0.3995  1.1740
11044SOL     OW34582   6.860   6.071   3.111 -0.0800 -0.3646  0.6740
11044SOL    HW134583   6.802   6.041   3.181 -0.7638 -0.4381  0.0888
11044SOL    HW234584   6.820   6.039   3.031  0.4568  0.0915  0.2119
11045SOL     OW34585   1.047   3.470   2.844  0.5521 -0.2904  0.6236
11045SOL    HW134586   1.113   3.538   2.855 -0.8909  1.5217 -1.2046
11045SOL    HW234587   0.990   3.478   2.921  0.0050  1.0809  0.1052
11046SOL     OW34588   6.306   6.541   1.461  0.2313 -0.2064 -0.0540
11046SOL    HW134589   6.374   6.478   1.438 -0.0793 -1.0414  1.1946
11046SOL    HW234590   6.353   6.624   1.470  1.3267 -0.9372  1.7429
11047SOL     OW34591   7.433   8.345   3.365  0.3678 -0.3173 -0.3568
11047SOL    HW134592   7.346   8.317   3.393 -0.5125  0.8732 -1.7229
11047SOL    HW234593   7.456   8.285   3.294 -0.2604  0.5566 -1.3423
11048SOL     OW34594   4.271   6.995   4.531  0.1445  0.1589  0.6150
11048SOL    HW134595   4.361   6.964   4.544  0.4130 -0.0108 -1.3300
11048SOL    HW234596   4.229   6.924   4.481 -1.6402 -0.5776  2.9583
11049SOL     OW34597   8.861   0.167   7.034 -0.6638 -0.3294 -0.0391
11049SOL    HW134598   8.892   0.083   7.002 -2.2940 -0.6287 -0.9634
11049SOL    HW234599   8.854   0.221   6.955 -0.9061  0.2363  0.3606
11050SOL     OW34600   9.211   3.252   3.482  0.0900  0.5752 -0.4642
11050SOL    HW134601   9.187   3.174   3.432  0.8787  0.2744 -0.3836
11050SOL    HW234602   9.130   3.278   3.526 -0.1160 -0.3728 -0.2573
11051SOL     OW34603   4.426   3.442   8.394  0.2506  0.0339  0.0899
11051SOL    HW134604   4.429   3.499   8.317 -2.1040  1.0539  0.6671
11051SOL    HW234605   4.343   3.395   8.386  0.1203 -0.0990  1.8148
11052SOL     OW34606   2.491   7.390   6.256 -0.3931  0.5743 -0.5725
11052SOL    HW134607   2.397   7.378   6.268 -0.3576 -1.4001 -1.8277
11052SOL    HW234608   2.532   7.341   6.328 -0.3426 -3.8173 -3.2061
11053SOL     OW34609   6.556   2.033   2.560  0.2719  0.4731  0.1235
11053SOL    HW134610   6.535   2.099   2.626  0.2077  0.2134  0.3647
11053SOL    HW234611   6.542   2.078   2.476 -3.0047 -0.1818  0.2125
11054SOL     OW34612   1.661   6.462   8.631  0.3525 -0.1384  0.2108
11054SOL    HW134613   1.662   6.376   8.675 -1.3798 -0.6858 -0.7215
11054SOL    HW234614   1.744   6.465   8.583 -0.0191 -1.7905 -0.6056
11055SOL     OW34615   6.903   6.970   3.364 -0.1580  0.0138  0.0424
11055SOL    HW134616   6.892   6.893   3.419  0.2599  0.0226  0.1469
11055SOL    HW234617   6.930   6.936   3.279  1.0034  0.0827  0.3667
11056SOL     OW34618   8.842   2.328   4.556 -0.5241  0.2375 -0.0506
11056SOL    HW134619   8.910   2.377   4.602 -0.6282 -0.0272  0.3886
11056SOL    HW234620   8.801   2.393   4.499 -1.8528  1.1373  1.8137
11057SOL     OW34621   1.046   6.493   3.394 -0.3382  1.1674 -1.0466
11057SOL    HW134622   1.141   6.498   3.395 -0.3008  0.7986  0.4665
11057SOL    HW234623   1.017   6.583   3.375  0.3205  1.6459  0.1179
11058SOL     OW34624   2.359   7.005   0.110  0.2122  0.1416  0.2986
11058SOL    HW134625   2.438   6.963   0.143  1.6815  1.5187 -1.2923
11058SOL    HW234626   2.348   7.083   0.164  0.6931  0.6183 -0.2770
11059SOL     OW34627   4.466   3.667   5.453 -0.1832 -0.1722 -0.1375
11059SOL    HW134628   4.540   3.630   5.404 -1.0470  0.1976 -1.7674
11059SOL    HW234629   4.389   3.645   5.401 -1.1970 -0.1025  1.2691
11060SOL     OW34630   6.689   0.577   7.084 -0.6506 -0.1465 -0.2562
11060SOL    HW134631   6.637   0.566   7.164  1.0274  0.2189  0.9312
11060SOL    HW234632   6.631   0.625   7.025 -1.2418  1.4313  1.4826
11061SOL     OW34633   8.437   2.623   7.370  0.0977  0.3672 -0.3589
11061SOL    HW134634   8.451   2.623   7.464  0.0447 -1.3890 -0.3203
11061SOL    HW234635   8.371   2.555   7.356  0.2833  0.4374 -1.6882
11062SOL     OW34636   3.277   1.803   3.335 -0.0621  0.2446  0.7574
11062SOL    HW134637   3.246   1.730   3.282  1.1706  1.2062 -1.4095
11062SOL    HW234638   3.220   1.876   3.311 -0.4737  0.3449  1.9581
11063SOL     OW34639   5.198   7.568   5.485 -0.0434 -0.3428  0.4427
11063SOL    HW134640   5.256   7.505   5.528  0.3454  1.0677  2.1015
11063SOL    HW234641   5.124   7.576   5.545 -1.5489 -1.3546 -1.1617
11064SOL     OW34642   2.259   4.680   5.274 -0.0681  0.3176  0.8190
11064SOL    HW134643   2.259   4.586   5.256 -3.0308  0.7034 -2.1157
11064SOL    HW234644   2.329   4.715   5.220 -0.8818  0.0746 -0.4252
11065SOL     OW34645   9.234   2.941   2.391  0.2061 -0.1960 -0.3193
11065SOL    HW134646   9.266   3.014   2.339  1.3464  0.1342  0.7709
11065SOL    HW234647   9.301   2.873   2.380 -0.3872 -0.7373 -0.6123
11066SOL     OW34648   1.725   5.206   0.564  0.0708  0.1352  0.5235
11066SOL    HW134649   1.757   5.293   0.539 -0.8322  0.3872  0.1760
11066SOL    HW234650   1.778   5.181   0.639 -0.1916  1.3612  1.1454
11067SOL     OW34651   8.533   0.067   3.633  0.0730 -0.1401  0.0167
11067SOL    HW134652   8.518  -0.028   3.634 -0.1067 -0.1105  0.6438
11067SOL    HW234653   8.623   0.077   3.603  0.0038 -0.4995 -0.3107
11068SOL     OW34654   1.760   5.501   7.749 -0.2239  0.0849  0.0931
11068SOL    HW134655   1.811   5.574   7.715 -0.8088  0.0622 -0.8456
11068SOL    HW234656   1.714   5.466   7.674  2.2118 -3.1160 -0.1361
11069SOL     OW34657   4.163   5.535   7.538  0.8493  0.0304 -0.1910
11069SOL    HW134658   4.081   5.552   7.492  0.4741  1.1499  0.8446
11069SOL    HW234659   4.147   5.454   7.587  0.2768  0.3566  0.1750
11070SOL     OW34660   5.875   0.297   0.948 -0.9395 -1.1479 -0.9280
11070SOL    HW134661   5.859   0.345   1.029  1.1767 -0.8788 -0.6150
11070SOL    HW234662   5.810   0.227   0.948 -1.6385 -0.5341  0.4770
11071SOL     OW34663   3.292   6.434   1.388 -0.1654  0.2056  0.4333
11071SOL    HW134664   3.379   6.472   1.382 -0.3047  0.4729 -0.0256
11071SOL    HW234665   3.304   6.349   1.431  0.0969  0.9415  1.8592
11072SOL     OW34666   7.261   1.774   8.190 -0.2110  0.2422 -0.2853
11072SOL    HW134667   7.275   1.795   8.098  0.0893  3.2540  0.3530
11072SOL    HW234668   7.349   1.763   8.226 -0.2385  0.9691  0.0163
11073SOL     OW34669   5.337   4.400   4.230 -0.4288 -0.4119 -0.5018
11073SOL    HW134670   5.300   4.447   4.305 -1.3014 -1.0543 -0.5063
11073SOL    HW234671   5.332   4.462   4.157  0.8926  0.3983  0.0558
11074SOL     OW34672   0.338   5.081   5.547  0.2592 -0.0185 -0.0426
11074SOL    HW134673   0.384   5.014   5.596 -0.7268 -0.6361  0.0728
11074SOL    HW234674   0.386   5.162   5.565 -0.2141 -0.1619  2.1736
11075SOL     OW34675   3.296   9.216   9.235 -0.3591 -0.2443  0.0443
11075SOL    HW134676   3.215   9.265   9.221 -1.1768 -1.6085 -0.1681
11075SOL    HW234677   3.268   9.136   9.280  0.4253 -2.1394 -2.6318
11076SOL     OW34678   9.250   3.150   3.994  0.5423  0.1312  0.1496
11076SOL    HW134679   9.232   3.241   4.016  0.3541 -0.3976  2.4830
11076SOL    HW234680   9.343   3.149   3.972  0.2297  1.0942 -1.3516
11077SOL     OW34681   1.247   3.823   2.360  0.3818 -0.0140 -0.7288
11077SOL    HW134682   1.295   3.769   2.423  2.0281 -0.8238 -2.5745
11077SOL    HW234683   1.159   3.785   2.358 -1.0559  2.3428  3.7603
11078SOL     OW34684   1.295   0.492   0.547 -0.3633  0.1674  0.1775
11078SOL    HW134685   1.378   0.485   0.501  0.1418  1.6751  0.7798
11078SOL    HW234686   1.230   0.511   0.479  0.3199  2.0673  0.0100
11079SOL     OW34687   7.757   0.994   3.544 -0.0795  0.2845 -0.3636
11079SOL    HW134688   7.690   1.045   3.589 -0.4761 -1.0005  0.5605
11079SOL    HW234689   7.796   0.939   3.612 -1.8572 -2.9769 -1.7415
11080SOL     OW34690   3.849   9.001   7.387 -0.6310 -0.1901  0.1896
11080SOL    HW134691   3.783   8.939   7.356  0.7819 -1.4465 -0.4280
11080SOL    HW234692   3.830   9.012   7.480 -0.6021 -2.0059  0.4509
11081SOL     OW34693   2.785   0.936   6.360  0.4472  0.4307 -0.2362
11081SOL    HW134694   2.767   0.846   6.331 -2.0831  0.5207  0.8195
11081SOL    HW234695   2.842   0.972   6.292  1.3760 -1.8826 -0.7833
11082SOL     OW34696   6.557   0.680   0.152 -0.0260 -0.0001  0.1819
11082SOL    HW134697   6.588   0.591   0.170  0.0468 -0.2415 -1.0069
11082SOL    HW234698   6.535   0.678   0.058 -1.8375  0.6885  0.5610
11083SOL     OW34699   4.641   1.645   8.692 -0.7612  0.5061  0.2890
11083SOL    HW134700   4.684   1.723   8.728  0.2178 -0.2680  0.8570
11083SOL    HW234701   4.681   1.633   8.606 -0.4437  0.2834  0.4622
11084SOL     OW34702   0.743   1.888   0.736  0.2316 -0.1653  0.4667
11084SOL    HW134703   0.654   1.894   0.772  0.0972 -0.9893  0.2959
11084SOL    HW234704   0.799   1.924   0.804 -0.3221  1.4190  0.1316
11085SOL     OW34705   5.906   4.284   2.072 -0.2249 -0.0744  0.0586
11085SOL    HW134706   5.897   4.350   2.003  1.0988  0.8300  0.7048
11085SOL    HW234707   5.830   4.299   2.130 -0.6903 -0.0544 -0.5489
11086SOL     OW34708   4.346   6.365   4.805  0.4483 -0.1808 -0.0779
11086SOL    HW134709   4.368   6.455   4.781 -0.0942  0.4479  1.6810
11086SOL    HW234710   4.268   6.344   4.754 -0.2707  0.8750  0.5600
11087SOL     OW34711   7.958   2.602   5.883  0.7189  0.2349 -0.1498
11087SOL    HW134712   8.012   2.672   5.919  0.8222 -0.7186  1.6649
11087SOL    HW234713   8.020   2.541   5.844  0.8290 -0.0089  0.3973
11088SOL     OW34714   5.769   6.106   5.838  0.4609 -0.4824  0.2900
11088SOL    HW134715   5.735   6.020   5.859 -0.1119 -0.3444 -0.0624
11088SOL    HW234716   5.863   6.092   5.825  0.4864 -0.9207  0.9317
11089SOL     OW34717   8.636   6.498   6.725 -0.4417 -0.1041 -0.1653
11089SOL    HW134718   8.653   6.413   6.684  1.4882  1.0349 -1.9811
11089SOL    HW234719   8.552   6.525   6.689 -1.0215 -1.1829  0.3462
11090SOL     OW34720   2.275   6.070   0.542  0.0671  0.6643 -0.3234
11090SOL    HW134721   2.225   6.143   0.505  0.3920  0.1613 -1.8430
11090SOL    HW234722   2.240   6.059   0.630 -1.9832  0.8230 -1.0568
11091SOL     OW34723   4.410   8.453   4.634  0.0178 -0.0229  0.1048
11091SOL    HW134724   4.384   8.386   4.571  0.8328 -1.4227  1.2058
11091SOL    HW234725   4.485   8.496   4.593 -2.1162  2.1983 -1.8512
11092SOL     OW34726   8.297   3.926   0.104 -0.0086 -0.4889 -0.2664
11092SOL    HW134727   8.257   4.009   0.131  2.6569  0.4178  1.2516
11092SOL    HW234728   8.376   3.953   0.055  1.5870 -2.0474  1.3166
11093SOL     OW34729   5.218   8.428   8.150 -0.1541  0.0350 -0.1361
11093SOL    HW134730   5.140   8.372   8.156 -1.2915  1.6241  0.6415
11093SOL    HW234731   5.257   8.406   8.065 -1.0395 -1.2832 -0.2354
11094SOL     OW34732   5.970   8.046   4.425  0.3493 -1.3587 -0.1056
11094SOL    HW134733   6.018   8.000   4.356  0.5590 -1.2030 -0.0632
11094SOL    HW234734   6.032   8.110   4.458 -0.1902 -0.5279 -0.6774
11095SOL     OW34735   2.448   5.303   9.191 -0.0887  0.2669 -0.1126
11095SOL    HW134736   2.497   5.366   9.138  0.1667  1.3325  1.3527
11095SOL    HW234737   2.507   5.281   9.263 -1.0101  0.0667  0.5958
11096SOL     OW34738   1.061   8.417   6.051  0.1189 -0.3964  0.6726
11096SOL    HW134739   1.117   8.432   5.975  1.5169  0.3495  1.8131
11096SOL    HW234740   0.972   8.414   6.015  0.8870 -2.4104 -1.3087
11097SOL     OW34741   3.848   4.557   7.102 -0.1771 -0.1553 -0.4182
11097SOL    HW134742   3.842   4.651   7.120 -0.1297 -0.1942 -0.2048
11097SOL    HW234743   3.759   4.524   7.117  0.1996 -0.4698  1.3125
11098SOL     OW34744   7.486   4.043   3.170 -0.0191  0.1985  0.1619
11098SOL    HW134745   7.502   3.952   3.194 -0.0635  0.2392  0.3508
11098SOL    HW234746   7.531   4.055   3.087 -0.9603 -0.3162 -0.4458
11099SOL     OW34747   5.210   0.336   3.991 -0.6165 -0.2417 -0.0773
11099SOL    HW134748   5.162   0.401   3.939  0.4343  0.1417 -0.5919
11099SOL    HW234749   5.160   0.330   4.073 -3.4617 -2.2677 -1.7763
11100SOL     OW34750   4.519   6.578   4.386  0.2729 -0.0356  0.3935
11100SOL    HW134751   4.478   6.494   4.408 -1.6884  0.9651  0.7620
11100SOL    HW234752   4.561   6.562   4.301  0.2787 -1.4849  0.6431
11101SOL     OW34753   5.600   7.975   0.985 -0.3650 -0.0397 -0.2689
11101SOL    HW134754   5.669   7.996   1.049 -1.0468  0.2539  0.3820
11101SOL    HW234755   5.623   8.026   0.908 -0.6758  1.2422  0.4655
11102SOL     OW34756   2.000   3.509   6.345  0.0475 -0.1920 -0.0153
11102SOL    HW134757   1.905   3.514   6.356 -0.1435 -0.7079 -1.2925
11102SOL    HW234758   2.014   3.513   6.251  1.2046 -1.4543  0.0759
11103SOL     OW34759   2.256   4.868   6.724  0.0211 -0.0323 -0.9314
11103SOL    HW134760   2.195   4.942   6.717  1.5508  1.4134  0.4148
11103SOL    HW234761   2.309   4.874   6.644  1.9170  2.0756  0.3509
11104SOL     OW34762   1.407   0.739   8.114 -0.5642 -0.0304 -0.4243
11104SOL    HW134763   1.327   0.721   8.164  1.0097 -2.3909  1.4580
11104SOL    HW234764   1.438   0.652   8.087  2.2228  0.6415  0.3701
11105SOL     OW34765   2.676   5.317   3.002  0.4449 -0.8064  0.3686
11105SOL    HW134766   2.639   5.401   2.974 -0.8027 -1.0125  1.3269
11105SOL    HW234767   2.746   5.341   3.062  1.7576 -0.4168 -1.2401
11106SOL     OW34768   2.975   7.083   2.874  0.7098  0.0001 -0.0334
11106SOL    HW134769   2.931   7.048   2.951 -0.8991  1.6535 -0.1253
11106SOL    HW234770   3.046   7.137   2.909 -0.4320  1.3009  0.3891
11107SOL     OW34771   6.324   0.713   7.362 -0.0905  0.2238 -0.1558
11107SOL    HW134772   6.266   0.678   7.294 -0.0470  0.6270 -0.4005
11107SOL    HW234773   6.265   0.762   7.420 -0.1485 -0.2350  0.1779
11108SOL     OW34774   1.738   4.098   4.848 -0.7605 -0.7019 -0.2414
11108SOL    HW134775   1.652   4.128   4.879 -0.3080 -0.5324  0.8899
11108SOL    HW234776   1.733   4.109   4.753 -1.8788 -0.3919 -0.1724
11109SOL     OW34777   1.884   9.151   0.637  0.2453  0.0203 -0.6816
11109SOL    HW134778   1.911   9.066   0.670 -1.2882 -0.1494  0.2155
11109SOL    HW234779   1.950   9.212   0.668 -0.0103 -0.4745  0.8896
11110SOL     OW34780   5.117   8.974   3.524  0.4405 -0.3633 -0.2075
11110SOL    HW134781   5.094   8.902   3.582 -0.0245  0.5522  0.7584
11110SOL    HW234782   5.040   8.986   3.469 -0.1204  0.4444  0.7245
11111SOL     OW34783   8.161   6.440   6.549 -0.1028  1.1798 -0.8125
11111SOL    HW134784   8.138   6.423   6.640  1.9669  0.5352 -0.3466
11111SOL    HW234785   8.156   6.354   6.507  0.9907  1.0827 -0.7729
11112SOL     OW34786   8.078   3.383   5.156 -0.1237  0.5258  0.1912
11112SOL    HW134787   8.022   3.321   5.110  1.3941 -0.5061 -0.3461
11112SOL    HW234788   8.078   3.353   5.247  0.9517 -0.5652 -0.1489
11113SOL     OW34789   3.984   0.875   3.662 -0.2497  0.3371  0.2325
11113SOL    HW134790   4.021   0.843   3.579  0.7290  0.9366  0.4299
11113SOL    HW234791   4.058   0.879   3.722 -1.0105 -0.4000  1.2479
11114SOL     OW34792   9.061   8.492   4.571  0.2128  0.9135  0.2758
11114SOL    HW134793   8.968   8.512   4.560  0.2149  1.2472  0.8417
11114SOL    HW234794   9.094   8.484   4.481 -0.5951 -0.3616  0.0702
11115SOL     OW34795   8.988   1.650   0.723 -0.3966  0.4798 -0.1539
11115SOL    HW134796   8.982   1.745   0.713  0.4198  0.4602 -0.9437
11115SOL    HW234797   9.081   1.631   0.714 -0.6380 -0.4740 -0.8276
11116SOL     OW34798   3.948   3.225   5.854 -0.1375 -0.0459 -0.0125
11116SOL    HW134799   4.037   3.262   5.859 -0.9491  2.2514 -0.9557
11116SOL    HW234800   3.938   3.174   5.934  1.2474  1.5431  1.2436
11117SOL     OW34801   8.755   2.414   4.895  0.0418 -0.6643  0.2845
11117SOL    HW134802   8.785   2.482   4.834 -0.7959 -1.7421 -1.3925
11117SOL    HW234803   8.808   2.429   4.974  1.7011  0.3328 -0.9335
11118SOL     OW34804   2.544   1.915   0.357 -0.0737  0.5342  0.2716
11118SOL    HW134805   2.549   1.874   0.271 -4.9496  1.7473 -0.8763
11118SOL    HW234806   2.565   2.007   0.340  1.1956  0.4023  0.9444
11119SOL     OW34807   8.085   8.237   8.315  0.2017  0.3521  0.5922
11119SOL    HW134808   8.034   8.198   8.244 -2.0516  1.6783  1.3670
11119SOL    HW234809   8.096   8.328   8.290  0.9781  0.4043  1.1076
11120SOL     OW34810   0.233   3.111   5.353 -0.4778 -0.5148 -0.4566
11120SOL    HW134811   0.289   3.124   5.277 -1.2692  0.4480 -0.8948
11120SOL    HW234812   0.292   3.081   5.422  0.5485  0.3211 -0.9512
11121SOL     OW34813   3.417   7.445   1.351  0.1030 -0.0385 -0.7569
11121SOL    HW134814   3.504   7.475   1.326  0.2689  0.6519  0.5649
11121SOL    HW234815   3.359   7.517   1.327 -0.1138 -0.4747 -1.5848
11122SOL     OW34816   7.044   4.600   4.497  0.5598  0.8177 -0.1124
11122SOL    HW134817   7.118   4.563   4.448  1.2116  1.3115  0.4711
11122SOL    HW234818   7.068   4.692   4.510 -2.6248  2.6654 -4.6998
11123SOL     OW34819   3.769   6.393   3.540  0.1836  0.2404  0.6365
11123SOL    HW134820   3.699   6.345   3.584 -0.9557  0.6882 -0.6254
11123SOL    HW234821   3.839   6.328   3.528 -1.0041 -0.8985 -0.3282
11124SOL     OW34822   1.071   7.018   4.008 -0.8627 -0.6600  0.9700
11124SOL    HW134823   1.129   7.080   4.052  1.3489 -1.6116 -0.4119
11124SOL    HW234824   1.097   6.932   4.043 -1.6991 -1.0864  0.5719
11125SOL     OW34825   6.159   6.710   7.264 -0.6847  0.1217  0.3521
11125SOL    HW134826   6.077   6.746   7.228 -0.0228  3.0537  1.4666
11125SOL    HW234827   6.200   6.665   7.190 -2.4136  0.2415 -0.7417
11126SOL     OW34828   9.012   7.567   5.422  0.0612 -0.1615 -0.1314
11126SOL    HW134829   9.039   7.517   5.345  0.0739  0.5783 -0.6160
11126SOL    HW234830   8.920   7.590   5.406 -0.1218 -0.5326  0.3607
11127SOL     OW34831   8.256   7.736   2.135  0.2070 -0.4272  0.1101
11127SOL    HW134832   8.317   7.801   2.101  2.3390 -1.2746  2.0788
11127SOL    HW234833   8.270   7.659   2.079 -1.3229  0.2841 -1.3423
11128SOL     OW34834   6.634   7.855   3.926  0.0819 -0.2012 -0.5631
11128SOL    HW134835   6.588   7.806   3.858  0.9540 -3.7198  1.1429
11128SOL    HW234836   6.615   7.807   4.007  2.0386  1.6319  1.1118
11129SOL     OW34837   2.265   8.597   4.817 -0.0450  0.5630 -0.0349
11129SOL    HW134838   2.360   8.607   4.818  0.1168 -0.6706 -0.6517
11129SOL    HW234839   2.233   8.669   4.870  1.2629  0.7571  0.5429
11130SOL     OW34840   8.555   2.627   3.045  0.3911  0.0311  0.6787
11130SOL    HW134841   8.568   2.720   3.064 -0.5162 -0.2837  3.1583
11130SOL    HW234842   8.610   2.581   3.108  0.4885 -1.1420 -0.2264
11131SOL     OW34843   0.559   0.489   5.723 -0.0954  0.2368  0.2198
11131SOL    HW134844   0.559   0.401   5.686 -0.2503  0.6378 -0.7544
11131SOL    HW234845   0.499   0.539   5.668 -1.5347  0.4946  1.9271
11132SOL     OW34846   1.765   7.390   0.948 -0.3674  0.0149  0.5379
11132SOL    HW134847   1.810   7.342   1.019  0.0144  0.0035  0.2887
11132SOL    HW234848   1.732   7.321   0.891  2.6881 -0.0173 -1.4278
11133SOL     OW34849   5.171   1.531   2.603 -0.4780  0.3557 -0.1878
11133SOL    HW134850   5.170   1.567   2.515 -0.3604 -0.4722 -0.5376
11133SOL    HW234851   5.244   1.469   2.602 -0.5305  0.2774  0.4698
11134SOL     OW34852   4.302   1.296   7.012 -0.4685  0.6696  0.0148
11134SOL    HW134853   4.362   1.268   7.081 -0.1231  1.9254  0.2652
11134SOL    HW234854   4.354   1.354   6.957 -1.1122  0.7638 -0.5097
11135SOL     OW34855   1.133   6.310   3.202 -0.0530 -0.5609 -0.0388
11135SOL    HW134856   1.195   6.245   3.237  1.0549  0.3110 -0.2980
11135SOL    HW234857   1.087   6.343   3.279  2.8493  1.8445  0.8877
11136SOL     OW34858   5.648   1.010   0.947  0.7953 -0.3372 -0.5465
11136SOL    HW134859   5.655   0.951   0.872  3.0691  0.8759 -1.3808
11136SOL    HW234860   5.667   0.955   1.023 -2.8024 -1.8882 -0.5360
11137SOL     OW34861   4.954   2.658   7.287 -0.4518 -0.0049  0.2523
11137SOL    HW134862   4.918   2.571   7.274 -2.7869  0.4515  2.6663
11137SOL    HW234863   4.909   2.691   7.365  1.7052  2.6553  0.5379
11138SOL     OW34864   0.586   7.256   4.181 -0.2935  0.4011 -0.3952
11138SOL    HW134865   0.566   7.334   4.233  0.0120  0.2924 -0.1105
11138SOL    HW234866   0.541   7.185   4.226 -0.3222  0.3647 -0.4818
11139SOL     OW34867   9.231   7.540   8.390 -0.0067  0.0110  0.1710
11139SOL    HW134868   9.147   7.559   8.432 -0.5248 -1.1366 -0.2883
11139SOL    HW234869   9.212   7.550   8.296  0.6249  0.6566  0.1064
11140SOL     OW34870   8.521   5.768   2.701 -0.5075 -0.3729  0.2145
11140SOL    HW134871   8.576   5.826   2.648 -1.5674  0.0218 -0.4841
11140SOL    HW234872   8.520   5.685   2.652  0.2796 -0.7218  0.7583
11141SOL     OW34873   6.494   4.460   6.080 -0.2981  0.0083  0.6591
11141SOL    HW134874   6.582   4.465   6.043  0.0965  0.6371  1.6253
11141SOL    HW234875   6.439   4.509   6.019  0.0415 -0.2943  0.1067
11142SOL     OW34876   2.745   0.699   7.331  0.2701  0.0476 -0.1041
11142SOL    HW134877   2.753   0.794   7.323 -1.4618  0.2377 -0.1354
11142SOL    HW234878   2.659   0.687   7.372  1.1953 -1.4641  1.5021
11143SOL     OW34879   3.181   0.473   4.087 -0.5654  0.3401  0.4209
11143SOL    HW134880   3.137   0.557   4.097  0.8136  0.9870  1.3863
11143SOL    HW234881   3.272   0.495   4.067  0.1774 -0.8612  2.2039
11144SOL     OW34882   7.869   7.244   7.291 -0.4340 -0.4897  0.2240
11144SOL    HW134883   7.813   7.319   7.273  1.5063  0.9357 -0.1665
11144SOL    HW234884   7.922   7.234   7.212 -1.8935 -3.5352 -0.5444
11145SOL     OW34885   2.723   0.744   8.688  0.5442 -0.3164  0.2164
11145SOL    HW134886   2.742   0.812   8.753  1.9095 -1.1415  0.7255
11145SOL    HW234887   2.659   0.687   8.730  0.5650 -0.2108  0.3921
11146SOL     OW34888   4.636   0.125   6.704  0.5983  0.0345  0.4967
11146SOL    HW134889   4.579   0.062   6.748  1.1916 -0.5882  0.3819
11146SOL    HW234890   4.638   0.201   6.763 -0.0991 -0.0522  0.6439
11147SOL     OW34891   5.624   2.783   8.607  0.8993  0.0428  0.9416
11147SOL    HW134892   5.632   2.734   8.690  0.3720  0.2756  1.1365
11147SOL    HW234893   5.683   2.857   8.617  2.2182 -0.8922  0.3802
11148SOL     OW34894   3.547   6.229   3.599 -0.2430 -0.0408 -0.1388
11148SOL    HW134895   3.493   6.298   3.638 -0.2441  0.2039 -0.5707
11148SOL    HW234896   3.504   6.148   3.626 -0.8539  0.1546 -0.5170
11149SOL     OW34897   0.701   8.613   7.156  0.4378 -0.0738  0.0471
11149SOL    HW134898   0.685   8.697   7.198  2.4285  0.6314 -0.5089
11149SOL    HW234899   0.656   8.619   7.072  0.7708  0.5261 -0.0920
11150SOL     OW34900   8.881   2.415   3.343  0.2686 -0.2508 -0.2016
11150SOL    HW134901   8.866   2.510   3.348  0.5281 -0.2811  2.0524
11150SOL    HW234902   8.974   2.404   3.366  0.3851 -1.0391 -0.9737
11151SOL     OW34903   3.291   3.106   8.952  0.6157 -1.1834  0.0637
11151SOL    HW134904   3.213   3.083   8.902  0.8637 -0.7669 -0.5297
11151SOL    HW234905   3.351   3.033   8.938  0.8639 -0.8452 -0.6387
11152SOL     OW34906   7.324   1.808   5.954 -0.1058  0.5149 -0.0706
11152SOL    HW134907   7.380   1.844   6.023  1.0831  0.4110 -0.9544
11152SOL    HW234908   7.235   1.830   5.982  0.4187  1.5873  0.8581
11153SOL     OW34909   3.843   6.926   1.496  0.6555 -0.5610  0.1872
11153SOL    HW134910   3.855   7.018   1.519  0.7936 -0.3787 -0.5943
11153SOL    HW234911   3.748   6.916   1.491  0.6579 -0.1617 -0.8696
11154SOL     OW34912   0.073   8.199   3.874  0.4910 -0.0213  0.0493
11154SOL    HW134913   0.083   8.116   3.921 -1.5599  0.3344  1.2151
11154SOL    HW234914   0.037   8.259   3.939 -1.2300  0.8476 -1.6230
11155SOL     OW34915   5.659   2.019   0.749  0.0403 -0.8536  0.7447
11155SOL    HW134916   5.618   2.037   0.834  0.5026 -1.4954  1.1116
11155SOL    HW234917   5.720   2.091   0.736  1.0764 -1.5386  1.6798
11156SOL     OW34918   1.594   0.673   4.987 -0.0199 -0.1349 -0.3414
11156SOL    HW134919   1.563   0.701   4.901 -0.0187  1.8730  0.2640
11156SOL    HW234920   1.687   0.693   4.988  0.2232 -1.2146 -0.2637
11157SOL     OW34921   4.190   7.618   7.877 -0.3154 -0.4811 -0.4159
11157SOL    HW134922   4.257   7.673   7.919  1.8673 -0.0179 -4.1131
11157SOL    HW234923   4.112   7.674   7.875 -0.6400 -0.5904  2.9070
11158SOL     OW34924   4.643   1.257   2.700 -0.1659  0.2224 -0.2944
11158SOL    HW134925   4.658   1.324   2.767 -0.2957  1.0725 -1.0984
11158SOL    HW234926   4.558   1.280   2.661 -0.6497 -0.9434  0.0205
11159SOL     OW34927   8.934   4.286   5.602 -0.0358  0.2204 -0.2543
11159SOL    HW134928   8.977   4.293   5.688 -0.3241 -0.5172 -0.0398
11159SOL    HW234929   8.882   4.366   5.595 -0.5420 -0.0187  0.5665
11160SOL     OW34930   0.275   3.332   0.546  0.1580 -0.0880 -0.1235
11160SOL    HW134931   0.240   3.366   0.464 -2.7317 -0.6554  0.7695
11160SOL    HW234932   0.291   3.410   0.599  1.2726  0.2316 -0.8746
11161SOL     OW34933   0.832   0.809   2.960 -0.1682  0.5659 -0.0826
11161SOL    HW134934   0.760   0.812   3.023  0.1045 -2.5244  0.5275
11161SOL    HW234935   0.908   0.782   3.012  0.9007  1.3655 -1.1663
11162SOL     OW34936   7.004   7.165   1.520 -0.3951 -0.5756 -0.3317
11162SOL    HW134937   7.047   7.159   1.434 -1.4635 -1.4822 -0.8373
11162SOL    HW234938   7.060   7.114   1.578 -0.7159 -1.6854 -0.9619
11163SOL     OW34939   6.873   8.607   8.107 -0.1623 -0.2769  0.5605
11163SOL    HW134940   6.892   8.696   8.139  0.7865 -0.4602  0.5216
11163SOL    HW234941   6.810   8.573   8.170 -0.5153  0.4114  0.5967
11164SOL     OW34942   4.400   2.334   0.534 -0.1090 -0.3247 -0.2542
11164SOL    HW134943   4.465   2.318   0.466  1.0919 -3.9267  1.4427
11164SOL    HW234944   4.367   2.421   0.516  1.9026 -0.1096 -3.9087
11165SOL     OW34945   6.682   8.726   2.889 -0.0664  0.1027  0.0894
11165SOL    HW134946   6.681   8.671   2.811 -0.4905 -0.9713  0.8207
11165SOL    HW234947   6.612   8.690   2.944  2.1760 -1.1936  2.2811
11166SOL     OW34948   0.077   6.040   0.335 -0.7129 -0.8957 -0.1271
11166SOL    HW134949   0.154   6.022   0.390 -0.3047  2.4048  0.5947
11166SOL    HW234950   0.003   6.029   0.394 -0.3911  0.7892  0.6664
11167SOL     OW34951   4.096   4.380   0.812 -0.4240  0.1609 -0.0995
11167SOL    HW134952   4.128   4.399   0.723 -1.7806 -1.1186 -0.9107
11167SOL    HW234953   4.130   4.451   0.865  1.3579  0.3878 -1.4295
11168SOL     OW34954   8.136   8.696   8.818 -0.0918  0.0278  0.8136
11168SOL    HW134955   8.182   8.612   8.816  1.4762  0.8437 -1.6465
11168SOL    HW234956   8.201   8.757   8.853 -0.2098  0.7155 -0.1520
11169SOL     OW34957   7.092   5.284   5.147 -0.2148  0.9089  0.2295
11169SOL    HW134958   7.173   5.291   5.198  0.7207 -0.2187 -1.0167
11169SOL    HW234959   7.118   5.309   5.058 -1.9555  3.4734  0.3466
11170SOL     OW34960   7.042   4.145   1.992  0.9837  0.0736 -0.2293
11170SOL    HW134961   6.949   4.167   1.998  0.6217 -1.5660  0.7035
11170SOL    HW234962   7.053   4.108   1.905  0.8026  0.4406 -0.4072
11171SOL     OW34963   6.221   8.802   1.089  0.0189  0.3369 -0.1746
11171SOL    HW134964   6.286   8.871   1.075  1.2883 -0.5283  1.1775
11171SOL    HW234965   6.205   8.804   1.183 -1.8165  0.4008 -0.4525
11172SOL     OW34966   5.554   0.888   7.802 -0.2594 -0.1930  0.2462
11172SOL    HW134967   5.569   0.806   7.847  0.3091 -1.0018 -1.3155
11172SOL    HW234968   5.587   0.955   7.861  1.3338 -1.2745  0.6439
11173SOL     OW34969   1.463   4.189   7.931  0.6437  0.3416 -0.1190
11173SOL    HW134970   1.478   4.116   7.872  0.5702 -0.3133  0.6474
11173SOL    HW234971   1.512   4.166   8.010 -0.3840  0.5107  0.5887
11174SOL     OW34972   7.482   4.984   1.575  0.2677 -0.1706  0.1578
11174SOL    HW134973   7.456   5.047   1.642 -0.1362  2.3315 -2.2154
11174SOL    HW234974   7.578   4.986   1.576  0.3641 -1.8224  2.0297
11175SOL     OW34975   3.283   1.128   0.399 -0.4478  0.0078 -0.3967
11175SOL    HW134976   3.374   1.098   0.393 -0.2178  0.6505 -0.2215
11175SOL    HW234977   3.290   1.222   0.418 -1.1490 -0.3798  2.0833
11176SOL     OW34978   4.576   0.670   4.816  0.0264  0.1871 -0.5667
11176SOL    HW134979   4.481   0.668   4.825  0.1145 -1.3032  0.4377
11176SOL    HW234980   4.591   0.699   4.726 -1.4115 -0.3637 -1.0209
11177SOL     OW34981   4.257   4.865   7.203 -0.0832  0.5764 -0.1972
11177SOL    HW134982   4.308   4.899   7.276  1.2178  0.2776 -0.9384
11177SOL    HW234983   4.189   4.811   7.245  1.0000 -0.0760  0.7956
11178SOL     OW34984   2.864   0.277   7.210  1.0482  0.4078 -0.3065
11178SOL    HW134985   2.788   0.270   7.153  0.2423  2.5232  0.3972
11178SOL    HW234986   2.855   0.205   7.273  0.0314  0.1906 -0.6861
11179SOL     OW34987   5.275   0.378   3.511 -0.6762  0.3618  0.4686
11179SOL    HW134988   5.335   0.434   3.462 -0.5298  1.5883  1.9997
11179SOL    HW234989   5.269   0.298   3.459 -0.2850  1.4834 -1.3829
11180SOL     OW34990   5.663   0.278   1.325 -0.0939 -0.5701  0.0753
11180SOL    HW134991   5.634   0.323   1.246  0.8612 -0.0683 -0.0070
11180SOL    HW234992   5.673   0.348   1.390  1.3366 -0.6442 -0.0341
11181SOL     OW34993   8.385   5.466   5.331  0.1888  0.4812 -0.0996
11181SOL    HW134994   8.366   5.382   5.290 -1.1580  0.4453  0.5529
11181SOL    HW234995   8.409   5.523   5.259 -0.6801  0.0182 -0.7751
11182SOL     OW34996   5.716   2.758   7.176  0.1516  0.2031 -0.6084
11182SOL    HW134997   5.807   2.771   7.148  0.2718  2.1337  0.4819
11182SOL    HW234998   5.693   2.840   7.220 -1.8387 -0.5913 -0.0736
11183SOL     OW34999   0.420   5.856   6.950  0.4255  0.0644 -0.3760
11183SOL    HW135000   0.376   5.905   6.880 -1.2517  0.0156  0.5766
11183SOL    HW235001   0.494   5.813   6.907 -0.7788 -0.2840 -2.1978
11184SOL     OW35002   1.443   8.151   9.023 -0.4377  0.0082  0.4961
11184SOL    HW135003   1.461   8.216   8.956 -0.7664  0.1104  0.5065
11184SOL    HW235004   1.442   8.068   8.976 -1.0754  0.1233  0.3031
11185SOL     OW35005   7.799   4.088   8.257  0.1521 -0.3604 -0.8770
11185SOL    HW135006   7.764   4.126   8.338  0.3554 -1.9929  0.0008
11185SOL    HW235007   7.840   4.162   8.213  0.8619  0.3967  0.9600
11186SOL     OW35008   7.608   2.475   8.985  0.2423 -0.6204  0.2135
11186SOL    HW135009   7.531   2.530   8.974  1.2217  0.4463 -1.9244
11186SOL    HW235010   7.682   2.536   8.982  1.2260 -1.6489  1.8509
11187SOL     OW35011   5.423   3.357   2.726 -0.1556  0.0588  0.2939
11187SOL    HW135012   5.400   3.440   2.684 -0.8336  0.5394  1.5462
11187SOL    HW235013   5.429   3.294   2.654 -4.3956  0.1148 -0.3177
11188SOL     OW35014   0.416   3.549   6.051 -0.3129 -0.1190  0.0303
11188SOL    HW135015   0.458   3.486   5.992 -1.2410 -1.1486  0.4448
11188SOL    HW235016   0.322   3.538   6.036 -0.5591 -0.1727  1.4701
11189SOL     OW35017   6.501   6.979   0.255  1.0236  0.6293  0.3368
11189SOL    HW135018   6.422   7.030   0.274  0.2281 -1.2556  2.5619
11189SOL    HW235019   6.551   6.980   0.337  2.5447  0.4469 -0.5466
11190SOL     OW35020   9.021   8.493   7.571 -0.3968  0.1829  0.4675
11190SOL    HW135021   9.089   8.487   7.638  2.1937  1.4969 -1.7954
11190SOL    HW235022   9.039   8.418   7.513 -0.9488  0.4713 -0.0875
11191SOL     OW35023   4.711   2.268   0.011  1.2596  0.1319  0.5673
11191SOL    HW135024   4.662   2.346   0.037 -1.1857 -1.0529 -0.1602
11191SOL    HW235025   4.797   2.279   0.049  1.0789  3.2961  0.2778
11192SOL     OW35026   0.231   3.683   1.318 -0.5330  0.2628  0.3588
11192SOL    HW135027   0.272   3.769   1.326 -2.5310  1.2478  0.4751
11192SOL    HW235028   0.296   3.623   1.355  0.2837  1.8896  1.7244
11193SOL     OW35029   7.343   1.222   8.930 -0.4238  0.6979 -0.2272
11193SOL    HW135030   7.426   1.186   8.960 -1.3795  0.3072  2.0863
11193SOL    HW235031   7.358   1.317   8.927  0.5751  0.5323 -1.4923
11194SOL     OW35032   2.761   0.213   6.230  0.2317  0.7082  0.1323
11194SOL    HW135033   2.806   0.131   6.209  0.8310  0.7609  1.1169
11194SOL    HW235034   2.669   0.188   6.238  0.0936  0.5345 -1.5969
11195SOL     OW35035   2.904   6.910   0.649  0.1919 -0.0035 -0.5255
11195SOL    HW135036   2.980   6.908   0.707  0.1661 -0.0596 -0.4937
11195SOL    HW235037   2.940   6.898   0.561  0.1660 -0.5829 -0.4611
11196SOL     OW35038   6.370   8.503   1.750  0.2090  0.7013 -0.3784
11196SOL    HW135039   6.356   8.595   1.773 -0.2799  0.4703  0.2831
11196SOL    HW235040   6.322   8.454   1.816  2.7113 -0.1283  0.9659
11197SOL     OW35041   9.118   8.649   1.386 -0.1659 -0.7717 -0.5768
11197SOL    HW135042   9.048   8.589   1.412  0.7347 -1.6909 -0.1654
11197SOL    HW235043   9.144   8.619   1.299 -0.3314 -0.3909 -0.7574
11198SOL     OW35044   2.231   4.921   8.886  0.0937 -0.3574 -0.2421
11198SOL    HW135045   2.205   4.972   8.962  2.1273  0.7695 -0.2395
11198SOL    HW235046   2.161   4.936   8.822 -0.1451  1.1369  0.3371
11199SOL     OW35047   2.098   2.652   2.679 -0.1446  0.8178  0.1753
11199SOL    HW135048   2.136   2.564   2.682 -1.9375 -0.0156  0.0678
11199SOL    HW235049   2.039   2.649   2.604 -2.5685  1.0757  1.9628
11200SOL     OW35050   7.051   4.883   0.944 -0.1191  0.2993  0.2893
11200SOL    HW135051   7.109   4.959   0.935  2.1182 -1.3997 -0.4989
11200SOL    HW235052   7.087   4.834   1.018 -0.2975 -0.9869 -0.4446
11201SOL     OW35053   2.382   1.126   8.795  0.1904 -0.2492  0.1115
11201SOL    HW135054   2.312   1.187   8.773  0.1815 -0.1535  0.4005
11201SOL    HW235055   2.459   1.160   8.749  0.5811  0.9234  1.5607
11202SOL     OW35056   4.967   7.047   4.327 -0.6313  0.3786 -0.2077
11202SOL    HW135057   5.062   7.036   4.316 -0.5954 -1.0338  1.0577
11202SOL    HW235058   4.937   7.086   4.246  1.0827  1.0970 -0.5308
11203SOL     OW35059   6.798   6.331   5.669 -0.2678  0.2869  0.2152
11203SOL    HW135060   6.893   6.336   5.666 -0.2571  0.6593  0.9774
11203SOL    HW235061   6.776   6.349   5.760 -1.0590  0.0393  0.0790
11204SOL     OW35062   0.379   3.834   8.700  0.4656  0.4472  0.0966
11204SOL    HW135063   0.381   3.822   8.795  2.2314 -1.8153 -0.1386
11204SOL    HW235064   0.286   3.841   8.678 -0.0257 -0.2038  1.8708
11205SOL     OW35065   1.660   3.581   6.889  0.0254  0.3570 -0.2103
11205SOL    HW135066   1.583   3.593   6.944  0.1108  0.0706 -0.0264
11205SOL    HW235067   1.706   3.506   6.928  1.2540  1.5341  0.6781
11206SOL     OW35068   3.004   4.925   3.335 -0.2063 -0.4595  0.2645
11206SOL    HW135069   2.983   4.903   3.426 -0.5614 -0.2908  0.2254
11206SOL    HW235070   3.069   4.860   3.309 -0.1877 -0.5779  0.6030
11207SOL     OW35071   0.407   6.168   8.003  0.4817 -0.4461 -0.0734
11207SOL    HW135072   0.325   6.126   8.030  0.9475 -0.7623  0.9199
11207SOL    HW235073   0.408   6.160   7.908 -1.2909  0.7826 -0.2467
11208SOL     OW35074   8.697   5.196   8.156  0.1525  0.4076 -0.9991
11208SOL    HW135075   8.748   5.263   8.201 -0.0259 -0.3301  0.3427
11208SOL    HW235076   8.751   5.117   8.160  0.0148  0.2535 -1.8646
11209SOL     OW35077   2.912   6.204   5.494  0.1105 -0.3704 -0.0253
11209SOL    HW135078   2.823   6.177   5.520 -0.6870  3.1970  1.4973
11209SOL    HW235079   2.898   6.259   5.417  1.0881 -0.2739 -0.1384
11210SOL     OW35080   5.203   2.220   4.930 -0.2796  0.2479 -0.2138
11210SOL    HW135081   5.282   2.272   4.915 -0.0992 -0.2864 -1.1869
11210SOL    HW235082   5.135   2.265   4.880 -0.6538  0.8106  0.7679
11211SOL     OW35083   4.669   8.358   4.070  0.1996 -0.4605  0.3550
11211SOL    HW135084   4.642   8.448   4.053 -0.9308 -0.9915 -0.8067
11211SOL    HW235085   4.708   8.361   4.158 -1.4239  0.8392  1.0904
11212SOL     OW35086   4.030   6.720   5.680 -0.2741  0.0318  0.6275
11212SOL    HW135087   3.951   6.736   5.732  0.0179  0.2053  1.0309
11212SOL    HW235088   3.998   6.689   5.596 -0.7519 -0.7626  1.0871
11213SOL     OW35089   3.190   7.597   2.647 -0.0634  0.4546 -0.5602
11213SOL    HW135090   3.208   7.691   2.649 -0.9495  0.6295 -0.5299
11213SOL    HW235091   3.275   7.557   2.626  0.7271  1.1347  1.1268
11214SOL     OW35092   9.040   3.895   0.691  0.0704 -0.0752  0.2221
11214SOL    HW135093   9.013   3.864   0.777 -0.0833  1.2382  0.6677
11214SOL    HW235094   8.962   3.936   0.655 -0.0699 -1.2277 -0.8680
11215SOL     OW35095   0.155   1.325   6.666  0.1206  0.3487 -0.2417
11215SOL    HW135096   0.126   1.234   6.668  0.8609  0.1133  1.0454
11215SOL    HW235097   0.197   1.335   6.581 -0.0857 -0.4733 -0.4518
11216SOL     OW35098   1.260   7.208   5.102  0.3613 -0.3645 -0.3012
11216SOL    HW135099   1.288   7.149   5.032  0.6557 -1.3473  0.6100
11216SOL    HW235100   1.219   7.150   5.167  1.6050  0.2628  1.1065
11217SOL     OW35101   6.857   8.711   3.595 -0.3487  0.1150 -0.4724
11217SOL    HW135102   6.765   8.683   3.600 -1.0344  1.4046 -3.5471
11217SOL    HW235103   6.880   8.700   3.503  2.0774  1.3756 -0.0936
11218SOL     OW35104   9.045   5.964   3.902  0.0153 -0.1271  0.3417
11218SOL    HW135105   9.070   6.054   3.922 -0.7590  0.3779 -0.8369
11218SOL    HW235106   9.054   5.917   3.985 -0.3628  1.2222  1.1779
11219SOL     OW35107   8.609   0.798   2.781  0.3366 -0.0452  0.1939
11219SOL    HW135108   8.682   0.814   2.841  0.5565  1.9408 -0.5320
11219SOL    HW235109   8.537   0.849   2.818 -0.6605 -1.7446  0.7332
11220SOL     OW35110   3.835   9.129   2.437  0.7838  0.0835  0.1757
11220SOL    HW135111   3.864   9.191   2.370 -0.4860 -0.1129 -0.5980
11220SOL    HW235112   3.740   9.142   2.441  0.7250 -0.5836  1.2617
11221SOL     OW35113   5.383   1.624   1.986 -0.6816 -0.1014 -0.3318
11221SOL    HW135114   5.409   1.706   2.028 -0.8590  0.4899 -1.3431
11221SOL    HW235115   5.294   1.609   2.018 -0.8310  0.3655 -0.5106
11222SOL     OW35116   8.610   5.297   1.897  0.0430  0.6464 -0.3232
11222SOL    HW135117   8.645   5.385   1.914 -0.7444  0.8696  0.2130
11222SOL    HW235118   8.654   5.268   1.817 -0.7571  2.1291 -1.3461
11223SOL     OW35119   8.010   7.093   0.576 -0.4991 -0.5202 -1.0826
11223SOL    HW135120   8.019   7.126   0.487  1.8390 -2.0346 -1.4773
11223SOL    HW235121   8.009   6.998   0.568 -0.2019 -0.6963  0.4948
11224SOL     OW35122   3.842   2.612   5.409  0.5066 -0.1864 -0.3678
11224SOL    HW135123   3.826   2.519   5.425 -1.1466  0.0600 -0.5097
11224SOL    HW235124   3.936   2.616   5.391  1.1766 -1.4674  2.2324
11225SOL     OW35125   4.472   2.696   4.583  0.3570 -0.0915  0.4493
11225SOL    HW135126   4.549   2.735   4.623  0.9288 -0.9931  0.2783
11225SOL    HW235127   4.496   2.685   4.491 -1.7606  4.0987 -0.8455
11226SOL     OW35128   4.792   4.354   2.458  0.2954 -0.1087  0.1009
11226SOL    HW135129   4.713   4.367   2.510 -0.4477 -2.0657 -0.4504
11226SOL    HW235130   4.826   4.442   2.443 -0.5014  0.6317  2.2768
11227SOL     OW35131   4.407   3.180   0.459 -0.1012  0.2425  0.1211
11227SOL    HW135132   4.472   3.226   0.513 -2.8443  3.0409  1.3345
11227SOL    HW235133   4.393   3.097   0.504  1.6914  0.0898  0.4947
11228SOL     OW35134   8.582   2.294   3.691 -0.0702  0.1008 -0.1876
11228SOL    HW135135   8.623   2.265   3.609 -0.4971 -0.7339 -0.1235
11228SOL    HW235136   8.629   2.247   3.759 -0.5132 -0.1427 -0.0470
11229SOL     OW35137   4.301   4.190   8.222 -0.2005  0.5393  0.5101
11229SOL    HW135138   4.348   4.181   8.304 -0.6608  0.1879  0.7418
11229SOL    HW235139   4.211   4.166   8.243 -0.4985  1.2333  0.0887
11230SOL     OW35140   3.370   5.895   8.375 -0.1163  0.2160 -0.1478
11230SOL    HW135141   3.279   5.885   8.405 -0.2728 -0.8490 -0.8904
11230SOL    HW235142   3.365   5.880   8.280  0.8089  0.3532 -0.2276
11231SOL     OW35143   7.772   8.149   4.859  0.2757 -0.2866  0.2041
11231SOL    HW135144   7.789   8.239   4.831  1.2503 -0.2615  0.8430
11231SOL    HW235145   7.721   8.158   4.940  0.4646 -0.3121  0.3250
11232SOL     OW35146   6.626   2.216   3.188  0.6098 -0.2608  0.2015
11232SOL    HW135147   6.537   2.198   3.219  0.6851  0.3549  0.8293
11232SOL    HW235148   6.681   2.195   3.264  0.8002  1.3088  0.5329
11233SOL     OW35149   8.904   7.895   3.475  0.5591  0.5116 -0.4064
11233SOL    HW135150   8.811   7.918   3.483  0.5352  1.8390 -3.4567
11233SOL    HW235151   8.947   7.946   3.544 -0.7525  1.4050 -0.2122
11234SOL     OW35152   4.139   8.450   8.264 -0.2792 -0.1028 -0.1152
11234SOL    HW135153   4.124   8.540   8.295  4.2074  1.1290 -0.8068
11234SOL    HW235154   4.081   8.441   8.189  0.9564  3.3163 -1.6995
11235SOL     OW35155   7.841   0.340   6.323 -0.4375  0.2996 -0.2433
11235SOL    HW135156   7.911   0.397   6.292 -0.9394  0.5816 -0.8848
11235SOL    HW235157   7.852   0.338   6.418  1.3760 -0.8999 -0.4265
11236SOL     OW35158   8.848   8.831   7.167 -0.2205 -0.0081 -0.3770
11236SOL    HW135159   8.922   8.879   7.130  0.1051 -0.8506 -0.8629
11236SOL    HW235160   8.887   8.775   7.234 -0.9136  2.0957  1.9054
11237SOL     OW35161   2.438   3.723   1.217  0.0566  0.3154 -0.3246
11237SOL    HW135162   2.465   3.661   1.285  0.4177 -1.5413 -2.0810
11237SOL    HW235163   2.347   3.702   1.200  0.4115 -0.3302 -1.5089
11238SOL     OW35164   7.546   8.179   2.466 -0.0502  0.3851 -0.3303
11238SOL    HW135165   7.483   8.249   2.481 -1.0133 -0.8350  1.9210
11238SOL    HW235166   7.625   8.209   2.510  0.1497  0.8413 -0.9874
11239SOL     OW35167   0.882   1.057   3.751 -0.1785 -0.1279 -0.5172
11239SOL    HW135168   0.839   0.991   3.806  1.9720 -0.6309  0.7071
11239SOL    HW235169   0.948   1.007   3.701  0.3437  0.8488 -0.8325
11240SOL     OW35170   3.780   3.057   8.239 -0.0977  0.1917  0.0469
11240SOL    HW135171   3.739   3.130   8.193  1.0746  0.7459 -0.1543
11240SOL    HW235172   3.750   3.066   8.330  1.0104  1.6745  0.2941
11241SOL     OW35173   0.716   4.679   7.601  0.7605 -0.3214 -0.0740
11241SOL    HW135174   0.755   4.601   7.640  2.5289  0.7675  0.4710
11241SOL    HW235175   0.779   4.749   7.621 -1.1433  1.4098  0.1865
11242SOL     OW35176   1.054   7.032   4.798 -0.0012  0.6726 -0.3569
11242SOL    HW135177   1.005   7.105   4.834  1.7669  2.5164 -1.4794
11242SOL    HW235178   1.144   7.045   4.829  0.3673 -1.0417 -0.5761
11243SOL     OW35179   6.906   6.725   5.065 -0.4759  1.2700  0.1590
11243SOL    HW135180   6.976   6.671   5.028 -1.0729 -0.0612  0.9209
11243SOL    HW235181   6.916   6.717   5.160 -1.5605  1.1787  0.2800
11244SOL     OW35182   1.061   7.749   1.709  0.5379 -0.5458  0.7708
11244SOL    HW135183   1.007   7.682   1.750 -0.8596  0.0256 -0.0442
11244SOL    HW235184   1.011   7.830   1.721 -0.0722 -0.3696 -2.1708
11245SOL     OW35185   8.960   2.020   5.871 -0.2120 -0.4188  0.3909
11245SOL    HW135186   8.949   1.934   5.912  0.0077 -0.9987 -0.7214
11245SOL    HW235187   9.054   2.038   5.878 -0.2247 -0.3678  0.4345
11246SOL     OW35188   3.127   2.527   8.692 -0.1106  0.0822  0.0311
11246SOL    HW135189   3.056   2.470   8.664  1.9919 -1.6994 -2.0689
11246SOL    HW235190   3.112   2.609   8.645  0.2119 -0.9307 -1.9462
11247SOL     OW35191   3.401   5.041   0.547  0.4640 -0.4739 -0.1406
11247SOL    HW135192   3.439   5.128   0.532 -0.0408 -0.7771 -4.7562
11247SOL    HW235193   3.310   5.057   0.568  0.1613  0.2112 -1.8196
11248SOL     OW35194   6.375   8.631   0.548 -0.4219 -0.1087  0.4705
11248SOL    HW135195   6.457   8.655   0.504 -0.0915 -1.1511  0.4730
11248SOL    HW235196   6.333   8.714   0.567  0.1796  0.4207 -0.4012
11249SOL     OW35197   8.504   0.120   3.168  0.3174 -0.5005 -0.3761
11249SOL    HW135198   8.433   0.137   3.230  0.8968 -0.3558  0.2654
11249SOL    HW235199   8.487   0.179   3.094 -1.6288 -2.2427 -1.4243
11250SOL     OW35200   8.758   6.573   6.232  0.9118  0.3138 -0.2739
11250SOL    HW135201   8.757   6.641   6.300  0.0757 -0.0563  0.0961
11250SOL    HW235202   8.832   6.517   6.254 -0.5168 -0.9809  1.5435
11251SOL     OW35203   7.813   1.367   7.045 -0.0374  0.3945 -0.2438
11251SOL    HW135204   7.794   1.460   7.056 -0.3548  0.2037  1.0301
11251SOL    HW235205   7.898   1.365   7.000  1.3126  1.3684  2.0710
11252SOL     OW35206   5.792   1.963   6.186  0.1653  0.3170 -0.2391
11252SOL    HW135207   5.769   1.978   6.278  0.5517  0.5183 -0.1694
11252SOL    HW235208   5.876   1.917   6.190  0.7426  1.3069 -0.4920
11253SOL     OW35209   0.752   2.651   9.179 -0.1636  0.1251 -0.3897
11253SOL    HW135210   0.824   2.640   9.242 -0.9072 -2.9704  0.1033
11253SOL    HW235211   0.769   2.586   9.111 -1.7152  0.3511 -1.0446
11254SOL     OW35212   5.092   8.832   9.227 -0.2477  0.0236 -0.0488
11254SOL    HW135213   5.084   8.752   9.279 -0.0202 -0.5315 -0.8589
11254SOL    HW235214   5.004   8.869   9.226 -0.4390 -0.4268 -0.0115
11255SOL     OW35215   1.805   2.719   4.046 -0.4953  0.1875 -0.0532
11255SOL    HW135216   1.848   2.717   4.131 -2.9123 -1.2739  1.2627
11255SOL    HW235217   1.798   2.812   4.024  1.1580  0.5306  0.7770
11256SOL     OW35218   6.853   6.407   7.069 -0.2024 -0.0382 -0.3041
11256SOL    HW135219   6.948   6.400   7.055 -0.2532 -1.0973 -0.1697
11256SOL    HW235220   6.828   6.323   7.106 -1.1927  0.2608 -0.2796
11257SOL     OW35221   0.923   3.592   4.626  0.1331  0.6546 -0.0881
11257SOL    HW135222   0.980   3.541   4.683 -1.9958  0.0382  1.6753
11257SOL    HW235223   0.936   3.556   4.539  0.8670 -0.8892  0.6311
11258SOL     OW35224   5.781   5.548   9.026 -0.6637 -0.1418  0.3196
11258SOL    HW135225   5.797   5.622   9.086 -0.4302 -0.2043  0.3374
11258SOL    HW235226   5.703   5.573   8.978 -0.6764  0.0491  0.4364
11259SOL     OW35227   6.205   8.776   7.381  0.4209 -0.0776 -0.2378
11259SOL    HW135228   6.162   8.728   7.452 -1.3885 -0.0796 -1.2763
11259SOL    HW235229   6.176   8.866   7.392  1.3339  0.2074 -0.1129
11260SOL     OW35230   6.073   2.973   1.631 -0.0636  0.7478  0.0685
11260SOL    HW135231   6.133   2.909   1.668  0.3384  1.3779  0.5315
11260SOL    HW235232   6.016   2.922   1.574 -0.2365 -0.1286  0.9993
11261SOL     OW35233   0.836   4.097   6.233 -0.0079 -0.1377  0.1816
11261SOL    HW135234   0.817   4.145   6.313  2.7271 -1.3641  1.7065
11261SOL    HW235235   0.911   4.143   6.194  1.3317 -1.8609  0.5898
11262SOL     OW35236   5.248   4.215   3.744 -0.3298 -0.8892 -0.5433
11262SOL    HW135237   5.229   4.124   3.722  0.7132 -1.4300  0.6726
11262SOL    HW235238   5.287   4.212   3.832  0.3561  0.6554 -0.7479
11263SOL     OW35239   0.466   4.097   9.041  0.6623  0.0874 -0.0383
11263SOL    HW135240   0.473   4.099   9.136 -0.8386  1.1040  0.0859
11263SOL    HW235241   0.403   4.027   9.023  1.7160 -0.8035 -0.3697
11264SOL     OW35242   7.498   3.849   8.124  0.2619 -0.1182 -0.5979
11264SOL    HW135243   7.493   3.868   8.218 -1.3613 -0.6977 -0.5217
11264SOL    HW235244   7.524   3.932   8.084 -3.6600  1.6267 -0.0225
11265SOL     OW35245   1.698   1.191   7.236 -0.4619  0.0998  0.0378
11265SOL    HW135246   1.700   1.280   7.271 -0.3740 -0.1366  0.6406
11265SOL    HW235247   1.649   1.140   7.301  0.3901 -0.5122  0.2137
11266SOL     OW35248   0.471   4.998   8.163  0.1968 -0.3443  0.3775
11266SOL    HW135249   0.492   4.908   8.138  0.4169 -0.4020  0.7668
11266SOL    HW235250   0.407   4.989   8.233  1.8413 -0.2661  1.9575
11267SOL     OW35251   3.052   9.237   6.905  0.5019 -0.9062  0.2696
11267SOL    HW135252   3.088   9.160   6.861 -0.2034 -0.5294 -1.0143
11267SOL    HW235253   2.961   9.215   6.923  0.9317 -1.2755  2.1189
11268SOL     OW35254   0.517   7.163   5.885  0.0895  0.1611  0.4826
11268SOL    HW135255   0.548   7.161   5.794  0.7698  1.5360  0.6581
11268SOL    HW235256   0.560   7.088   5.926  0.5894  0.1251 -0.0828
11269SOL     OW35257   2.205   7.458   5.764 -0.0641 -0.2490 -0.0562
11269SOL    HW135258   2.293   7.490   5.746  0.2054 -0.4768  0.8257
11269SOL    HW235259   2.194   7.382   5.707 -0.1131  0.4248 -0.9798
11270SOL     OW35260   0.616   6.096   3.739 -0.1965  0.2487  0.6360
11270SOL    HW135261   0.601   6.117   3.831  1.2032 -0.5450  1.0735
11270SOL    HW235262   0.636   6.003   3.738  0.1135  0.3097 -0.4386
11271SOL     OW35263   7.805   7.714   7.776 -0.3076  0.5752 -0.2876
11271SOL    HW135264   7.765   7.692   7.860 -0.5834  0.5066 -0.4327
11271SOL    HW235265   7.805   7.631   7.728 -2.6931  1.1168 -1.3943
11272SOL     OW35266   2.906   2.675   4.355 -0.2589  0.1691  0.0165
11272SOL    HW135267   2.931   2.674   4.448  1.3797 -0.7887 -0.3893
11272SOL    HW235268   2.840   2.743   4.349 -1.6460 -0.8598  2.1881
11273SOL     OW35269   0.467   8.540   0.228  0.3794 -0.1566 -0.0677
11273SOL    HW135270   0.455   8.475   0.159 -0.1413 -0.6994  0.5289
11273SOL    HW235271   0.383   8.584   0.235  1.1562  1.7649 -1.6038
11274SOL     OW35272   6.066   0.689   8.324  0.1935  0.7824  0.4073
11274SOL    HW135273   6.147   0.654   8.286 -1.4501 -2.5723 -0.4055
11274SOL    HW235274   6.069   0.664   8.416 -0.5229 -0.7431  0.0473
11275SOL     OW35275   5.341   9.186   2.264  0.1956  0.4475  0.5414
11275SOL    HW135276   5.296   9.137   2.195  0.0155 -0.5704  1.3566
11275SOL    HW235277   5.299   9.273   2.262  1.9569  1.3592 -2.3181
11276SOL     OW35278   1.967   4.562   5.141  0.2460  0.4494 -0.3014
11276SOL    HW135279   2.030   4.629   5.114  0.4478 -0.0818 -1.2000
11276SOL    HW235280   1.891   4.612   5.173  0.9773  1.0916  0.4649
11277SOL     OW35281   3.355   0.047   2.541  0.0521  0.6940 -1.0801
11277SOL    HW135282   3.326   0.115   2.479 -0.5343  1.4962  0.0264
11277SOL    HW235283   3.437   0.014   2.504 -0.4761  0.8638 -2.4805
11278SOL     OW35284   2.067   4.124   7.466 -0.7301 -0.5213  0.0082
11278SOL    HW135285   1.980   4.163   7.466 -0.6265 -0.2768  0.8960
11278SOL    HW235286   2.091   4.117   7.558 -0.8297 -2.8933 -0.0688
11279SOL     OW35287   5.992   1.649   0.703 -0.0218 -0.6924  0.1856
11279SOL    HW135288   6.032   1.567   0.675  2.7805  0.3293  0.8726
11279SOL    HW235289   5.967   1.693   0.622  3.2219 -0.0506 -0.6379
11280SOL     OW35290   2.180   4.151   5.544 -0.7335 -0.1107  0.3885
11280SOL    HW135291   2.092   4.137   5.580 -1.4753  1.7310 -0.5826
11280SOL    HW235292   2.165   4.178   5.454  0.7503  1.4340  0.5558
11281SOL     OW35293   6.392   5.645   2.313  0.7740 -0.6237  0.6062
11281SOL    HW135294   6.300   5.647   2.341  0.2489 -0.0679 -1.0608
11281SOL    HW235295   6.421   5.556   2.334  0.1506 -0.5362  1.9878
11282SOL     OW35296   2.711   3.690   9.047 -0.0266 -0.0564  0.3486
11282SOL    HW135297   2.716   3.783   9.066  0.4498 -0.3456  1.8201
11282SOL    HW235298   2.692   3.649   9.132 -1.1302 -1.2294 -0.4260
11283SOL     OW35299   9.114   3.353   3.051 -0.5070  0.5766  0.0105
11283SOL    HW135300   9.060   3.283   3.088 -0.5313  1.5873  1.9748
11283SOL    HW235301   9.053   3.405   2.999 -0.5984 -0.4922 -1.0087
11284SOL     OW35302   6.977   4.548   6.409 -0.5538 -0.4823 -0.3011
11284SOL    HW135303   6.929   4.498   6.474  0.4134 -0.8222  0.1714
11284SOL    HW235304   6.995   4.485   6.339 -0.2519 -0.5247 -0.1874
11285SOL     OW35305   0.179   8.627   0.273 -0.1327  0.5442  0.0675
11285SOL    HW135306   0.116   8.656   0.339 -0.2479  0.6025 -0.0684
11285SOL    HW235307   0.155   8.674   0.193 -1.5067 -1.2763 -0.6689
11286SOL     OW35308   3.186   0.449   5.311 -0.0411  0.6911  0.2757
11286SOL    HW135309   3.136   0.453   5.392 -1.3806 -3.0797 -0.1699
11286SOL    HW235310   3.125   0.477   5.243 -0.8731 -1.5311  0.0250
11287SOL     OW35311   1.355   7.882   8.397 -0.3056 -0.4402 -0.3138
11287SOL    HW135312   1.359   7.899   8.303  0.7670 -1.9221 -0.5799
11287SOL    HW235313   1.411   7.948   8.436  1.1676 -1.2402 -0.9833
11288SOL     OW35314   2.370   8.553   4.153  0.0191  0.5045  0.5684
11288SOL    HW135315   2.441   8.544   4.216 -1.0765  1.0506  1.9506
11288SOL    HW235316   2.291   8.562   4.207 -1.1203 -0.1485 -0.8973
11289SOL     OW35317   6.365   6.856   4.630  0.6874  0.2927 -0.5608
11289SOL    HW135318   6.319   6.862   4.547  1.2178  1.1460 -0.8092
11289SOL    HW235319   6.422   6.934   4.632  1.3950 -0.2220  0.1584
11290SOL     OW35320   5.829   6.017   1.009 -0.4098 -0.2308 -0.5565
11290SOL    HW135321   5.745   5.981   0.978 -0.0970 -1.5010  0.0176
11290SOL    HW235322   5.824   6.011   1.105 -0.1265  0.7912 -0.4649
11291SOL     OW35323   1.773   1.554   6.491 -0.7066  0.2740 -0.1776
11291SOL    HW135324   1.859   1.513   6.499 -1.3447 -0.7056  2.9235
11291SOL    HW235325   1.777   1.630   6.550 -2.4142 -0.7531  1.3844
11292SOL     OW35326   0.815   6.168   1.427  0.0158 -0.0885 -0.5929
11292SOL    HW135327   0.899   6.124   1.438 -0.0582  0.2439  1.8171
11292SOL    HW235328   0.760   6.132   1.496 -1.0472  1.4428 -0.5959
11293SOL     OW35329   6.805   9.121   7.852 -0.1806  0.3895 -0.1547
11293SOL    HW135330   6.823   9.027   7.859 -0.1775  0.4398  0.5134
11293SOL    HW235331   6.719   9.132   7.893 -0.7230  0.5071 -1.2808
11294SOL     OW35332   6.824   8.177   7.715  0.6224  0.0438  0.0920
11294SOL    HW135333   6.752   8.161   7.776 -0.7869  0.3804 -1.3795
11294SOL    HW235334   6.900   8.193   7.770 -1.0680  2.8193  1.8891
11295SOL     OW35335   3.058   3.435   7.297  0.0096 -0.3148  0.1923
11295SOL    HW135336   2.965   3.458   7.288 -0.2878 -1.7021 -0.5041
11295SOL    HW235337   3.072   3.365   7.233  0.5945 -2.8321  2.8621
11296SOL     OW35338   4.396   1.327   2.583 -0.3497 -0.5770  0.2628
11296SOL    HW135339   4.356   1.400   2.631  0.1336 -0.7063  0.8675
11296SOL    HW235340   4.379   1.347   2.491  0.4931  0.7156  0.3736
11297SOL     OW35341   7.945   2.966   2.799 -0.3396  0.4264 -0.2004
11297SOL    HW135342   7.908   2.878   2.807  1.1941 -0.1598  0.8415
11297SOL    HW235343   8.039   2.952   2.795  0.0175  2.0848  1.3343
11298SOL     OW35344   3.569   1.440   4.999 -0.1993 -0.4036  0.0185
11298SOL    HW135345   3.615   1.356   4.991  1.7206  0.6618 -0.8606
11298SOL    HW235346   3.567   1.457   5.093  0.9053 -0.6637  0.1072
11299SOL     OW35347   7.105   8.471   5.948  0.3032  0.0874  0.5713
11299SOL    HW135348   7.164   8.408   5.907 -0.6144 -1.5052  1.6169
11299SOL    HW235349   7.160   8.518   6.010  0.5112 -1.3952  1.5563
11300SOL     OW35350   2.748   8.512   6.978 -0.2062 -0.1227  0.6582
11300SOL    HW135351   2.724   8.462   7.057  0.1456 -1.1591  0.1260
11300SOL    HW235352   2.683   8.582   6.974 -0.3879 -0.2014  1.7221
11301SOL     OW35353   5.598   1.261   4.306  0.1764  0.3125  0.0567
11301SOL    HW135354   5.625   1.256   4.215 -1.6827  1.1663 -0.5867
11301SOL    HW235355   5.678   1.240   4.356  1.7729  1.8318 -1.7038
11302SOL     OW35356   4.185   3.906   6.061 -0.3507  0.6692  0.9078
11302SOL    HW135357   4.110   3.920   6.119 -0.7358 -0.5584  0.7440
11302SOL    HW235358   4.257   3.882   6.119  0.0864  2.3619  1.1126
11303SOL     OW35359   5.752   4.246   8.578 -0.3892 -0.2512 -0.4698
11303SOL    HW135360   5.760   4.289   8.493  1.0638  0.8247  0.1671
11303SOL    HW235361   5.841   4.219   8.599 -0.8722 -1.3075  0.3342
11304SOL     OW35362   2.681   3.075   7.678 -0.2419 -0.2863  0.8081
11304SOL    HW135363   2.757   3.029   7.715  0.6836  0.9663  0.5459
11304SOL    HW235364   2.653   3.021   7.605 -0.4040 -1.4111  1.6748
11305SOL     OW35365   4.796   8.866   5.838  0.1253  0.5726  0.0910
11305SOL    HW135366   4.773   8.828   5.754  1.1923 -0.1945  0.1243
11305SOL    HW235367   4.747   8.947   5.843 -1.9222 -0.5852 -0.1734
11306SOL     OW35368   4.346   3.166   8.071 -0.4340  0.1853  0.3539
11306SOL    HW135369   4.254   3.140   8.065  0.2290 -2.3432 -5.0647
11306SOL    HW235370   4.357   3.232   8.003  1.9444 -0.7472 -0.2860
11307SOL     OW35371   4.025   8.140   7.705  0.2954 -0.1650 -0.1441
11307SOL    HW135372   4.039   8.082   7.780 -0.7058  0.8441  0.8616
11307SOL    HW235373   4.113   8.171   7.683  0.6939 -1.0871  0.1019
11308SOL     OW35374   8.461   1.712   6.353 -0.0696  0.0620  0.3815
11308SOL    HW135375   8.369   1.702   6.327  0.7618 -1.0615 -2.4396
11308SOL    HW235376   8.477   1.637   6.412 -1.0522  0.5743  1.3449
11309SOL     OW35377   1.393   7.206   8.638 -0.2013  0.4917 -0.0447
11309SOL    HW135378   1.345   7.220   8.557 -1.3126  1.1306  0.7049
11309SOL    HW235379   1.452   7.133   8.619 -2.9989 -1.8247 -0.3564
11310SOL     OW35380   3.961   2.079   2.076 -0.4104  0.3635  0.1213
11310SOL    HW135381   3.973   2.143   2.146 -0.4947  0.0140  0.4600
11310SOL    HW235382   4.039   2.023   2.081  0.0931  0.9756 -0.7481
11311SOL     OW35383   8.506   3.004   6.009 -0.5244  0.1384  0.2417
11311SOL    HW135384   8.523   3.078   5.951 -0.3941  0.4767  0.7097
11311SOL    HW235385   8.464   3.043   6.086  0.0918 -0.1929  0.7533
11312SOL     OW35386   1.595   1.843   3.044 -0.1324  0.0835  0.5002
11312SOL    HW135387   1.654   1.771   3.021  1.3620  1.3773  0.0915
11312SOL    HW235388   1.531   1.845   2.973  0.2909 -0.3589  0.0961
11313SOL     OW35389   4.988   0.106   3.039 -0.3129 -0.2767 -0.3753
11313SOL    HW135390   4.939   0.170   2.987  1.5139  0.3893 -1.3701
11313SOL    HW235391   4.935   0.027   3.035 -1.4158  0.4712 -1.2005
11314SOL     OW35392   7.716   1.133   1.619 -0.4451 -0.2272  0.3517
11314SOL    HW135393   7.676   1.168   1.698  0.1340 -1.0697  1.0311
11314SOL    HW235394   7.741   1.044   1.642 -0.1131 -0.4267 -0.7277
11315SOL     OW35395   5.180   8.501   1.266  0.2203 -0.1344 -0.0615
11315SOL    HW135396   5.195   8.594   1.283  0.5992  0.0835 -1.5207
11315SOL    HW235397   5.156   8.496   1.174 -1.0099 -1.3661  0.3001
11316SOL     OW35398   1.085   1.163   3.926  0.2397 -0.3256 -0.1497
11316SOL    HW135399   1.000   1.169   3.880  0.5125  0.3887 -0.5880
11316SOL    HW235400   1.118   1.076   3.904 -0.7884 -0.9639  0.7652
11317SOL     OW35401   6.110   0.969   4.130  0.2169 -0.1989 -0.1006
11317SOL    HW135402   6.123   0.888   4.081  0.3952  0.7921 -1.7930
11317SOL    HW235403   6.199   0.997   4.152  0.2289  0.0749 -0.4794
11318SOL     OW35404   8.305   3.258   0.795 -0.4099  0.8454  0.4574
11318SOL    HW135405   8.218   3.278   0.830  0.0510  0.5574  1.8057
11318SOL    HW235406   8.364   3.317   0.841  0.0735  1.3850 -0.8100
11319SOL     OW35407   7.610   3.048   3.348 -0.3544 -0.1373 -0.0921
11319SOL    HW135408   7.577   2.999   3.424  0.4377 -2.7295 -1.3014
11319SOL    HW235409   7.679   3.104   3.383  1.2396 -2.5712  0.9598
11320SOL     OW35410   3.536   3.900   5.657 -0.6514 -0.5941  0.2068
11320SOL    HW135411   3.567   3.977   5.704  3.1069 -1.6613 -0.1941
11320SOL    HW235412   3.477   3.935   5.590  0.0080  1.7984  0.7809
11321SOL     OW35413   5.094   0.290   8.334  0.3867  0.0399 -0.3602
11321SOL    HW135414   5.112   0.197   8.347 -1.0927 -0.1707  0.3441
11321SOL    HW235415   5.019   0.308   8.390 -0.0085  1.4312 -1.2909
11322SOL     OW35416   8.134   3.594   8.523 -0.1043 -0.1033 -0.3322
11322SOL    HW135417   8.050   3.628   8.492 -0.2649 -1.3543 -1.3478
11322SOL    HW235418   8.148   3.515   8.471  1.5964 -0.0378 -0.0134
11323SOL     OW35419   5.630   1.677   4.043 -0.1478 -0.2643 -0.0603
11323SOL    HW135420   5.679   1.720   4.113 -0.4015  0.3467 -0.2571
11323SOL    HW235421   5.639   1.735   3.968 -1.9666  0.3510  0.1513
11324SOL     OW35422   5.146   5.764   4.224  0.2153  0.1659 -0.1528
11324SOL    HW135423   5.070   5.791   4.276 -0.6054 -1.3409 -0.5075
11324SOL    HW235424   5.159   5.672   4.248  0.3860 -0.2995 -1.9001
11325SOL     OW35425   7.648   0.583   0.926  0.7516 -0.0767 -0.2666
11325SOL    HW135426   7.583   0.615   0.988  1.0531 -0.4017  0.2217
11325SOL    HW235427   7.727   0.634   0.944  0.9802 -0.4990 -0.0613
11326SOL     OW35428   6.855   8.381   2.952  0.1057  0.2715  0.3817
11326SOL    HW135429   6.861   8.466   2.908  1.8624 -0.9043 -1.8566
11326SOL    HW235430   6.817   8.323   2.887 -2.0706 -0.5111  2.2386
11327SOL     OW35431   9.216   1.311   1.279 -0.0959  0.1549  0.5396
11327SOL    HW135432   9.183   1.324   1.190 -0.7689  0.8829  0.8839
11327SOL    HW235433   9.153   1.252   1.320 -0.7002  1.1142  1.0280
11328SOL     OW35434   2.084   7.974   8.151  0.0204 -0.6747 -0.4019
11328SOL    HW135435   2.176   7.956   8.170 -0.0468 -0.2630  0.3239
11328SOL    HW235436   2.078   8.069   8.148 -0.4581 -0.6911 -0.0904
11329SOL     OW35437   2.024   3.800   5.318  0.4829 -0.0854  0.2896
11329SOL    HW135438   2.041   3.776   5.409 -0.0411  0.4580  0.5396
11329SOL    HW235439   2.069   3.884   5.307  0.6039 -0.1847  0.0252
11330SOL     OW35440   8.406   6.229   4.272 -0.6401  0.0268 -0.2357
11330SOL    HW135441   8.446   6.315   4.284 -0.5052  0.1825 -1.6488
11330SOL    HW235442   8.315   6.241   4.297 -0.3754  0.2897  0.6343
11331SOL     OW35443   6.463   3.168   3.761 -0.6766  0.5238 -0.0394
11331SOL    HW135444   6.380   3.122   3.754 -1.0451  0.8993  1.5493
11331SOL    HW235445   6.515   3.116   3.822 -0.6860  1.5666  0.9077
11332SOL     OW35446   1.160   1.909   0.393  0.5726  0.4919 -0.0378
11332SOL    HW135447   1.155   1.988   0.448  0.2472  0.4836 -0.0564
11332SOL    HW235448   1.254   1.891   0.388  0.7647  1.6496 -1.1267
11333SOL     OW35449   0.663   1.832   8.934  0.0486  0.5256 -0.1910
11333SOL    HW135450   0.571   1.853   8.949 -0.9395 -3.4439  0.4753
11333SOL    HW235451   0.667   1.804   8.843  0.4493  0.2009 -0.0791
11334SOL     OW35452   6.075   4.477   5.961  0.0769  0.2319  0.4831
11334SOL    HW135453   6.121   4.395   5.943 -2.4859 -1.0061 -0.9974
11334SOL    HW235454   6.099   4.534   5.888 -1.2779 -0.7121 -0.7626
11335SOL     OW35455   1.064   4.187   9.093  0.5205 -0.0236  0.0074
11335SOL    HW135456   1.159   4.198   9.093  0.6071 -0.6680 -0.8743
11335SOL    HW235457   1.031   4.267   9.053  0.9177 -1.1459 -2.7985
11336SOL     OW35458   7.407   4.664   8.248 -0.4256 -1.1061 -0.2381
11336SOL    HW135459   7.423   4.570   8.235  0.4398 -0.7308 -2.2477
11336SOL    HW235460   7.349   4.688   8.176  0.7199  0.2329 -0.7519
11337SOL     OW35461   5.672   6.774   0.503  0.0063  0.3917 -0.3592
11337SOL    HW135462   5.760   6.738   0.499 -0.6657 -1.2888 -1.2026
11337SOL    HW235463   5.637   6.744   0.587 -0.1463  0.0243 -0.5473
11338SOL     OW35464   3.862   7.589   5.265  0.9080  0.0476  0.2591
11338SOL    HW135465   3.863   7.643   5.344 -1.5296 -0.2232  0.5427
11338SOL    HW235466   3.918   7.636   5.204 -0.3827  2.4416  0.7977
11339SOL     OW35467   6.707   2.594   0.614 -0.3723  0.1652  0.2230
11339SOL    HW135468   6.764   2.518   0.629  0.2508  0.8478  1.5768
11339SOL    HW235469   6.679   2.585   0.524 -0.2965 -1.6598  0.3309
11340SOL     OW35470   5.826   0.731   3.356  0.3252  0.1250 -0.1492
11340SOL    HW135471   5.805   0.807   3.302  0.2386  0.9670  1.0445
11340SOL    HW235472   5.878   0.767   3.428  3.1378 -1.3899 -1.2410
11341SOL     OW35473   9.061   5.546   8.755 -0.0836  0.0625  0.3313
11341SOL    HW135474   9.066   5.547   8.659 -1.6658 -1.0297  0.1952
11341SOL    HW235475   9.063   5.639   8.780  0.5856  0.3546 -0.7331
11342SOL     OW35476   1.607   2.519   1.731  1.1070  0.6283 -0.2197
11342SOL    HW135477   1.668   2.587   1.759  1.0110  0.7879 -0.3915
11342SOL    HW235478   1.520   2.554   1.754  0.9835  1.0198 -1.2229
11343SOL     OW35479   5.679   8.847   0.726 -0.3842 -0.2423  0.1524
11343SOL    HW135480   5.594   8.891   0.734  1.2217  3.0502  0.9288
11343SOL    HW235481   5.717   8.852   0.814  1.3223  0.0086 -0.5490
11344SOL     OW35482   1.654   5.997   7.760 -0.2027 -0.2372 -0.1307
11344SOL    HW135483   1.583   6.001   7.824  0.1752 -0.2974  0.3063
11344SOL    HW235484   1.644   6.076   7.707 -0.6854 -0.3275 -0.1732
11345SOL     OW35485   4.767   5.715   1.265  0.1156 -0.1579 -0.2931
11345SOL    HW135486   4.803   5.784   1.321 -1.4388 -0.4489  1.1600
11345SOL    HW235487   4.744   5.645   1.327  0.0699 -1.2699 -1.5356
11346SOL     OW35488   4.040   3.839   2.066  0.6904  0.2661 -0.0723
11346SOL    HW135489   4.019   3.808   1.977 -0.6897  0.5839  0.1217
11346SOL    HW235490   4.027   3.934   2.062  0.3062  0.2445  0.5452
11347SOL     OW35491   5.758   1.141   1.663 -0.5198 -0.0519 -0.0207
11347SOL    HW135492   5.817   1.210   1.633 -1.5793  0.4017 -1.1501
11347SOL    HW235493   5.786   1.123   1.753  1.1437  0.3287 -0.4279
11348SOL     OW35494   6.474   6.316   8.756 -0.2748 -0.1444 -0.1548
11348SOL    HW135495   6.555   6.290   8.713 -1.0715 -0.0646 -1.7879
11348SOL    HW235496   6.462   6.253   8.827  0.7668 -0.6607 -0.4238
11349SOL     OW35497   8.780   9.223   0.349  0.0811  0.2060  0.0094
11349SOL    HW135498   8.871   9.251   0.337 -0.4729  1.4814 -1.4915
11349SOL    HW235499   8.736   9.248   0.268 -2.0702  1.4358  1.4741
11350SOL     OW35500   6.948   7.053   2.293  0.8300  0.2971  0.0690
11350SOL    HW135501   7.012   7.051   2.222  0.6957  0.6854 -0.0657
11350SOL    HW235502   6.998   7.025   2.370  0.6074 -1.6233 -0.4337
11351SOL     OW35503   4.562   0.003   2.710 -0.1754 -0.3595  0.6368
11351SOL    HW135504   4.534   0.060   2.638 -1.8239 -0.6258  1.0208
11351SOL    HW235505   4.505  -0.074   2.703 -0.8403 -0.0972  2.6026
11352SOL     OW35506   3.655   8.157   1.591  0.3755 -0.6299 -0.0356
11352SOL    HW135507   3.631   8.242   1.628 -0.4750 -0.1617 -1.5770
11352SOL    HW235508   3.640   8.095   1.662 -0.6518  0.2932  0.5964
11353SOL     OW35509   7.280   3.843   3.584  0.0362 -0.2390  0.5738
11353SOL    HW135510   7.334   3.775   3.545 -2.2578 -1.0186 -1.4829
11353SOL    HW235511   7.198   3.799   3.605 -2.0208  2.0248 -2.0126
11354SOL     OW35512   6.425   1.048   7.582  0.6709  0.3122  0.3307
11354SOL    HW135513   6.356   1.077   7.522  0.6971 -0.6541 -0.1929
11354SOL    HW235514   6.483   1.124   7.591  0.3526  0.6531 -0.4102
11355SOL     OW35515   6.516   4.344   1.177 -0.1380 -0.1423 -0.1136
11355SOL    HW135516   6.531   4.430   1.138  0.4603 -0.8149 -1.4640
11355SOL    HW235517   6.593   4.328   1.231 -0.6984  0.5556  0.9149
11356SOL     OW35518   0.487   8.984   6.979  0.2336 -0.2745 -0.3403
11356SOL    HW135519   0.569   9.031   6.962 -0.9406  2.4871  1.1303
11356SOL    HW235520   0.469   8.999   7.072 -1.8505 -0.9990 -0.5719
11357SOL     OW35521   4.358   5.641   0.516 -0.3867 -0.5131  0.2998
11357SOL    HW135522   4.262   5.649   0.517 -0.3819 -0.2743 -0.3432
11357SOL    HW235523   4.374   5.554   0.482 -0.3788  0.0775 -1.3163
11358SOL     OW35524   5.722   7.948   0.437 -0.0522 -0.0075  0.1927
11358SOL    HW135525   5.809   7.980   0.413 -0.2299  0.8024  0.5989
11358SOL    HW235526   5.667   8.027   0.439 -1.1966 -0.6738 -1.7046
11359SOL     OW35527   0.351   6.587   3.338 -0.0614  0.2764  0.0222
11359SOL    HW135528   0.381   6.501   3.309 -1.2172 -0.6673  1.4729
11359SOL    HW235529   0.375   6.592   3.431  2.4869  2.7183 -0.6279
11360SOL     OW35530   5.138   6.284   6.503 -0.6299  0.0406  0.0360
11360SOL    HW135531   5.112   6.312   6.416  0.6996  1.2753 -0.0143
11360SOL    HW235532   5.061   6.298   6.558 -1.2760 -0.1597 -0.8117
11361SOL     OW35533   0.838   3.545   8.219 -0.8280  0.2784 -0.2076
11361SOL    HW135534   0.884   3.489   8.282 -1.1611 -0.8332 -0.9157
11361SOL    HW235535   0.902   3.612   8.194  0.5867 -1.4512 -1.4564
11362SOL     OW35536   4.417   7.025   6.010  0.3848  0.0030 -0.5859
11362SOL    HW135537   4.512   7.023   6.025  0.0170 -1.8386  2.4094
11362SOL    HW235538   4.389   6.935   6.023 -1.8787  0.6543 -0.5138
11363SOL     OW35539   4.870   6.961   5.056 -0.0984 -0.2793  0.1587
11363SOL    HW135540   4.953   6.919   5.033  1.6747  2.8161  0.3682
11363SOL    HW235541   4.804   6.912   5.006  2.1132 -1.4141 -1.8742
11364SOL     OW35542   1.357   1.340   2.449 -0.3870 -0.1803 -0.3286
11364SOL    HW135543   1.387   1.431   2.454 -0.3217 -0.2568  1.1084
11364SOL    HW235544   1.331   1.328   2.358  1.6959  0.6113 -1.0755
11365SOL     OW35545   4.168   6.604   4.541  0.2546  0.3459 -0.0808
11365SOL    HW135546   4.247   6.635   4.584  0.3498  0.4162 -0.3057
11365SOL    HW235547   4.155   6.664   4.468  0.2301  0.0859 -0.2933
11366SOL     OW35548   8.751   2.220   7.833 -0.2534 -0.3362 -0.1569
11366SOL    HW135549   8.823   2.188   7.888 -1.1156 -0.7463  0.7606
11366SOL    HW235550   8.795   2.268   7.762  0.8578  1.9350  1.9225
11367SOL     OW35551   3.158   1.898   6.152 -0.0298  0.1280 -0.3550
11367SOL    HW135552   3.109   1.845   6.088  0.8811  2.1313 -2.9101
11367SOL    HW235553   3.207   1.960   6.098  3.3962 -0.1247  2.1715
11368SOL     OW35554   7.855   5.255   7.930 -0.1553  0.2311  0.3498
11368SOL    HW135555   7.814   5.244   8.016 -0.6150 -0.0653  0.0971
11368SOL    HW235556   7.785   5.286   7.873 -0.4192 -1.6909 -0.4330
11369SOL     OW35557   9.090   2.197   9.199 -0.2619  0.2277 -0.8631
11369SOL    HW135558   9.162   2.256   9.219 -0.5010 -0.0067  0.8294
11369SOL    HW235559   9.016   2.254   9.177 -0.3905  0.5819  0.4063
11370SOL     OW35560   3.614   7.946   0.285 -0.5365 -0.3631 -0.6140
11370SOL    HW135561   3.675   7.872   0.273 -2.1512 -2.0490  0.9312
11370SOL    HW235562   3.614   7.990   0.200  1.7927 -1.0868 -1.0757
11371SOL     OW35563   4.656   7.158   6.703 -0.7221 -0.3613 -0.3281
11371SOL    HW135564   4.736   7.188   6.659  0.2907 -3.8541 -1.1726
11371SOL    HW235565   4.596   7.136   6.631 -2.4385  1.8496  0.2896
11372SOL     OW35566   2.701   5.496   2.633  1.0570 -0.9319 -0.7538
11372SOL    HW135567   2.780   5.478   2.685  1.8465 -1.0800 -1.9626
11372SOL    HW235568   2.708   5.437   2.559  0.2889 -0.2637 -1.3715
11373SOL     OW35569   4.482   9.021   1.656  0.1081 -0.3323  0.6412
11373SOL    HW135570   4.450   9.039   1.568  1.2422  1.7086  0.5979
11373SOL    HW235571   4.409   8.976   1.700 -1.3696  0.7801 -0.5816
11374SOL     OW35572   2.654   1.311   6.863 -0.4398 -0.3890 -0.6658
11374SOL    HW135573   2.704   1.266   6.931 -2.2963  0.2486  1.2221
11374SOL    HW235574   2.597   1.244   6.827 -0.7141 -0.3330 -0.3363
11375SOL     OW35575   6.074   7.065   3.134  0.0997 -0.2396  1.0312
11375SOL    HW135576   6.022   6.985   3.139  1.5934 -1.5969 -2.4752
11375SOL    HW235577   6.154   7.044   3.181 -0.8499  0.5307  3.1264
11376SOL     OW35578   0.990   7.770   5.313  0.0114 -0.7068  0.3490
11376SOL    HW135579   0.951   7.855   5.292  0.9190 -0.3965 -0.1319
11376SOL    HW235580   1.000   7.727   5.228  1.9389 -0.2291  0.2945
11377SOL     OW35581   7.562   5.147   1.215  0.0571 -0.1061 -0.1055
11377SOL    HW135582   7.510   5.093   1.156  0.3518  0.2974 -0.7471
11377SOL    HW235583   7.640   5.093   1.234 -0.8737 -0.9927  1.3999
11378SOL     OW35584   1.706   6.138   2.662  0.3504  0.4398 -0.2279
11378SOL    HW135585   1.774   6.161   2.599  0.7618  0.8586  0.3467
11378SOL    HW235586   1.625   6.168   2.623  0.7694  2.1208  0.1000
11379SOL     OW35587   8.690   6.526   3.663  0.3557 -0.1988 -0.0488
11379SOL    HW135588   8.745   6.497   3.736  1.0667  0.3035 -0.3722
11379SOL    HW235589   8.600   6.515   3.695  0.6571  0.6303  1.1499
11380SOL     OW35590   2.696   4.615   6.527  0.3480 -0.2298  0.3046
11380SOL    HW135591   2.751   4.576   6.595  0.1904  1.4978  1.4683
11380SOL    HW235592   2.607   4.612   6.562 -0.0493 -1.1128 -0.6964
11381SOL     OW35593   3.045   7.757   2.919 -0.0774  0.7138  0.3107
11381SOL    HW135594   3.069   7.769   3.011  0.2930  1.3329  0.1421
11381SOL    HW235595   3.128   7.741   2.874 -0.3186 -0.1650  0.1627
11382SOL     OW35596   5.092   8.167   3.250  0.0663  0.2991  0.2763
11382SOL    HW135597   5.030   8.219   3.302 -0.3292  0.2082 -0.1024
11382SOL    HW235598   5.040   8.093   3.219  0.3011  0.3588 -0.2572
11383SOL     OW35599   7.274   2.818   4.135  0.0586  0.5848  0.1087
11383SOL    HW135600   7.286   2.750   4.201 -0.9866  0.5796  0.3149
11383SOL    HW235601   7.354   2.815   4.083  0.1436 -0.6290  0.2768
11384SOL     OW35602   3.703   8.830   4.015  0.2145  0.0424  0.0257
11384SOL    HW135603   3.639   8.781   4.066 -0.1846 -0.3931 -0.8776
11384SOL    HW235604   3.651   8.888   3.960  0.6388  0.4274  0.0215
11385SOL     OW35605   4.426   3.207   5.494  0.0236 -0.6387 -0.1489
11385SOL    HW135606   4.352   3.268   5.491 -1.4706 -2.3786 -0.3909
11385SOL    HW235607   4.387   3.124   5.523  2.1425 -1.2661  1.0707
11386SOL     OW35608   3.142   8.182   4.300  0.2399 -0.0516 -0.0556
11386SOL    HW135609   3.162   8.112   4.362  1.4914  0.1505 -0.2155
11386SOL    HW235610   3.221   8.191   4.247 -0.8840 -0.4049 -1.8921
11387SOL     OW35611   1.648   3.974   1.408 -0.4021  0.8047  0.4607
11387SOL    HW135612   1.637   4.059   1.450 -0.7329  0.8064  0.3776
11387SOL    HW235613   1.608   3.912   1.470 -0.4257  0.7471  0.3882
11388SOL     OW35614   6.196   2.513   3.495 -0.2676 -0.4419 -0.1916
11388SOL    HW135615   6.170   2.599   3.526 -1.3625 -0.4921 -0.9082
11388SOL    HW235616   6.215   2.525   3.402 -0.7510 -1.0246 -0.3734
11389SOL     OW35617   7.813   5.589   1.043  0.1533 -0.4798 -0.0316
11389SOL    HW135618   7.846   5.502   1.065 -0.5557 -0.3750  1.5426
11389SOL    HW235619   7.779   5.624   1.125 -0.4663  0.9053 -0.8359
11390SOL     OW35620   4.208   3.980   0.737  0.3045  0.4815  0.0431
11390SOL    HW135621   4.264   3.993   0.660  0.4260 -1.3214 -0.1984
11390SOL    HW235622   4.127   3.944   0.702  0.7414 -1.3589  0.8108
11391SOL     OW35623   7.607   2.705   1.863  0.5666 -0.3873  0.0496
11391SOL    HW135624   7.645   2.764   1.798  1.8773  0.8975  1.8791
11391SOL    HW235625   7.597   2.759   1.941 -0.0346 -2.1239  1.2274
11392SOL     OW35626   6.780   2.732   1.055 -0.1908  0.3358  0.0293
11392SOL    HW135627   6.712   2.760   1.116  0.2691  0.0650  0.6810
11392SOL    HW235628   6.738   2.735   0.969 -1.4009 -0.9903  0.5355
11393SOL     OW35629   6.031   7.095   5.809  0.2004  0.4342  0.0268
11393SOL    HW135630   5.977   7.159   5.856 -0.3579 -0.0667  0.0806
11393SOL    HW235631   6.005   7.106   5.717  0.2449  0.4198  0.0124
11394SOL     OW35632   1.259   5.005   5.259 -0.4291  0.4833  0.0242
11394SOL    HW135633   1.237   4.976   5.171 -1.6670  0.6384  0.2659
11394SOL    HW235634   1.263   4.924   5.310 -3.0410  0.5705  0.5131
11395SOL     OW35635   8.527   9.192   0.489 -0.6054 -0.1285  0.1864
11395SOL    HW135636   8.613   9.188   0.446  1.0440 -0.8919  3.2286
11395SOL    HW235637   8.479   9.117   0.453  1.0049 -1.2346  0.2123
11396SOL     OW35638   4.109   7.625   0.142  0.3442 -0.1977 -0.0818
11396SOL    HW135639   4.187   7.588   0.101  0.2952 -0.2503 -0.1269
11396SOL    HW235640   4.094   7.707   0.095  0.2351 -0.3021 -0.2315
11397SOL     OW35641   3.684   1.736   5.870 -0.3835  0.0175 -0.3378
11397SOL    HW135642   3.677   1.667   5.936 -1.3904  2.0273  1.7674
11397SOL    HW235643   3.775   1.730   5.839 -0.4911 -2.3310 -0.3971
11398SOL     OW35644   5.841   9.099   0.827  0.2198 -0.1518  0.4050
11398SOL    HW135645   5.886   9.180   0.801  1.6342 -0.8935  0.4777
11398SOL    HW235646   5.850   9.042   0.751  0.3274 -0.6901  0.8202
11399SOL     OW35647   8.751   1.586   6.407 -0.6119 -0.1744  0.0581
11399SOL    HW135648   8.846   1.592   6.394 -0.4894 -0.2590  0.8503
11399SOL    HW235649   8.741   1.523   6.479 -1.2542  0.0102  0.1373
11400SOL     OW35650   8.600   5.989   7.253  0.7999 -0.2642  0.4557
11400SOL    HW135651   8.627   6.019   7.340  0.7001  1.0864  0.0449
11400SOL    HW235652   8.674   6.008   7.196 -0.0672  1.3026 -0.2280
11401SOL     OW35653   5.810   1.187   0.456  0.3062 -0.1470 -0.4506
11401SOL    HW135654   5.899   1.154   0.445 -0.1467 -0.9766 -1.9157
11401SOL    HW235655   5.798   1.248   0.383 -0.0057  0.7240  0.3081
11402SOL     OW35656   6.174   1.406   5.403 -0.0959 -0.2718  0.2498
11402SOL    HW135657   6.166   1.347   5.478 -2.5842  1.9951  1.9611
11402SOL    HW235658   6.111   1.373   5.340  1.8521 -2.0579 -0.9138
11403SOL     OW35659   1.040   4.602   0.087 -0.1152 -0.2000 -0.0448
11403SOL    HW135660   1.018   4.533   0.150  2.0146 -0.8087  0.0950
11403SOL    HW235661   1.040   4.558   0.002 -1.8752  0.3769 -0.3890
11404SOL     OW35662   1.199   0.447   8.259 -0.3840 -0.0560  0.8204
11404SOL    HW135663   1.268   0.396   8.217  0.0135  0.6495  0.5996
11404SOL    HW235664   1.133   0.460   8.191 -0.0088  0.5876  0.5629
11405SOL     OW35665   1.385   4.902   6.930 -0.2662  0.1828 -0.1928
11405SOL    HW135666   1.397   4.809   6.908 -1.7149 -0.1856  0.4751
11405SOL    HW235667   1.462   4.923   6.983 -0.0964 -0.7462 -0.0418
11406SOL     OW35668   7.615   4.420   2.319  0.1455  0.0544  0.2798
11406SOL    HW135669   7.549   4.448   2.384 -0.8413  1.4762 -1.2498
11406SOL    HW235670   7.685   4.381   2.372 -1.5275 -0.7685  2.0457
11407SOL     OW35671   1.348   7.151   5.532 -0.0294 -0.0990  0.8670
11407SOL    HW135672   1.350   7.110   5.619  1.9889  0.9558  1.3748
11407SOL    HW235673   1.336   7.078   5.472  2.3141 -1.3643  1.8110
11408SOL     OW35674   8.191   4.030   7.928 -0.7670 -0.1749  0.3997
11408SOL    HW135675   8.107   4.001   7.892  0.5686 -0.5206 -2.7069
11408SOL    HW235676   8.255   3.968   7.894  1.0115  1.1815  1.1200
11409SOL     OW35677   6.642   9.075   4.123 -0.7727  0.5270  0.1217
11409SOL    HW135678   6.730   9.064   4.159 -0.9049  1.6827  0.8541
11409SOL    HW235679   6.640   9.018   4.046 -0.1654 -1.3180  1.4115
11410SOL     OW35680   6.737   6.401   7.430  0.1986 -0.4888 -0.6924
11410SOL    HW135681   6.775   6.331   7.378  0.8494 -0.2913 -0.4910
11410SOL    HW235682   6.811   6.439   7.478 -0.2477 -0.0966 -0.2955
11411SOL     OW35683   5.710   1.104   5.820 -0.1944 -0.1995  0.5346
11411SOL    HW135684   5.719   1.051   5.741 -0.3024  0.9429 -0.2605
11411SOL    HW235685   5.799   1.108   5.857  0.2665  0.8822 -0.6175
11412SOL     OW35686   1.651   3.404   1.388  0.1532  0.2518  0.1898
11412SOL    HW135687   1.665   3.421   1.295  3.1329 -2.1868  0.0245
11412SOL    HW235688   1.609   3.318   1.391  2.0940 -0.7283  1.0371
11413SOL     OW35689   0.156   7.593   2.370 -0.0826  0.3309 -0.0037
11413SOL    HW135690   0.100   7.517   2.387  0.1732  0.1397 -0.0112
11413SOL    HW235691   0.129   7.624   2.284  0.8925 -0.7067 -0.7031
11414SOL     OW35692   3.874   6.474   4.471 -0.3458  0.0861 -0.5262
11414SOL    HW135693   3.803   6.426   4.428  0.4039 -0.9132 -0.7066
11414SOL    HW235694   3.830   6.540   4.524 -1.4662 -1.0343  0.0113
11415SOL     OW35695   3.555   0.282   2.791  0.1420 -0.4548 -0.2908
11415SOL    HW135696   3.603   0.298   2.872 -0.7524 -1.5368  0.4722
11415SOL    HW235697   3.505   0.202   2.807 -0.7353 -0.2043 -1.5961
11416SOL     OW35698   8.413   8.353   2.769  0.2160 -0.2031 -0.4734
11416SOL    HW135699   8.355   8.323   2.700  0.5176 -0.4520 -0.6236
11416SOL    HW235700   8.362   8.346   2.849  0.0068 -0.3167 -0.6183
11417SOL     OW35701   3.672   1.202   1.427  0.0837 -0.2826  0.2495
11417SOL    HW135702   3.581   1.196   1.455 -0.5120  2.9355 -0.5682
11417SOL    HW235703   3.723   1.190   1.508 -1.1823  0.1293  1.1442
11418SOL     OW35704   3.660   4.700   4.126  0.1994 -0.2601  0.3673
11418SOL    HW135705   3.680   4.792   4.112  0.0606 -0.5246 -1.8386
11418SOL    HW235706   3.589   4.680   4.065 -1.9826 -1.1235  2.9551
11419SOL     OW35707   4.551   7.654   0.288  0.2207  0.2858 -0.2796
11419SOL    HW135708   4.507   7.738   0.276 -0.3884  0.0572  0.2611
11419SOL    HW235709   4.602   7.665   0.368  1.1320  0.5396 -0.8915
11420SOL     OW35710   4.017   0.792   8.649  0.0951 -0.0449 -0.6857
11420SOL    HW135711   3.927   0.766   8.631 -0.9503  2.0580  1.1267
11420SOL    HW235712   4.041   0.744   8.728  1.4040 -2.1887 -2.2614
11421SOL     OW35713   5.097   2.236   8.702  0.6586  0.3468  0.3948
11421SOL    HW135714   5.005   2.244   8.725  0.0915 -0.3132 -1.4242
11421SOL    HW235715   5.128   2.326   8.693 -0.5796  0.6225 -1.6632
11422SOL     OW35716   1.652   8.102   3.263 -0.0810  0.2266 -0.1539
11422SOL    HW135717   1.558   8.104   3.282 -0.1572  1.3036 -0.5872
11422SOL    HW235718   1.694   8.095   3.348 -0.5702 -1.8693 -0.0223
11423SOL     OW35719   7.661   1.643   0.665  0.0449 -0.2952 -0.9056
11423SOL    HW135720   7.733   1.673   0.720 -0.0145  0.7634 -1.3793
11423SOL    HW235721   7.593   1.710   0.676 -1.4624 -1.9390  0.6061
11424SOL     OW35722   2.285   0.133   5.329  0.3423  0.1207 -0.2223
11424SOL    HW135723   2.247   0.207   5.375  2.7322  1.0345  0.4296
11424SOL    HW235724   2.324   0.171   5.250  0.2861 -0.6892 -0.6566
11425SOL     OW35725   7.759   4.634   7.959 -0.0186  0.0578 -0.1096
11425SOL    HW135726   7.730   4.546   7.936 -1.6205  0.2650  0.9195
11425SOL    HW235727   7.682   4.689   7.947  1.0416  1.4131 -1.0538
11426SOL     OW35728   3.964   4.363   1.050  0.1839  0.1233 -0.0033
11426SOL    HW135729   3.993   4.439   1.100 -1.8212  0.7012  0.3653
11426SOL    HW235730   4.000   4.377   0.962  0.1879  1.3070  0.1681
11427SOL     OW35731   1.146   3.948   5.702 -0.2348 -0.0747  0.3597
11427SOL    HW135732   1.241   3.949   5.693 -0.1840 -1.6951  0.3202
11427SOL    HW235733   1.123   4.036   5.732  1.2518  0.3888  0.2016
11428SOL     OW35734   6.082   2.968   8.728 -0.1567  0.0956 -0.0769
11428SOL    HW135735   5.991   2.986   8.706 -0.1902 -1.6711 -1.6557
11428SOL    HW235736   6.131   3.041   8.688 -0.7643  0.3069 -0.4597
11429SOL     OW35737   4.504   2.363   4.323 -0.0746 -0.8674  0.3806
11429SOL    HW135738   4.563   2.297   4.359  0.2808 -0.9207 -0.2781
11429SOL    HW235739   4.549   2.446   4.339  1.3670 -1.0576 -2.2228
11430SOL     OW35740   6.785   1.458   5.667 -0.3127 -0.2692 -0.0556
11430SOL    HW135741   6.841   1.435   5.593 -0.0435  0.5503 -0.1144
11430SOL    HW235742   6.704   1.491   5.627  1.0629  3.4278 -0.1401
11431SOL     OW35743   2.207   2.182   8.490 -0.2250  0.2860  0.0162
11431SOL    HW135744   2.145   2.112   8.464 -1.2273  0.6815  1.2507
11431SOL    HW235745   2.192   2.194   8.584 -0.6854  2.7364 -0.3015
11432SOL     OW35746   6.980   7.667   8.333  0.8107 -0.3106 -0.0408
11432SOL    HW135747   6.885   7.659   8.327  0.6511  0.4197  1.1590
11432SOL    HW235748   7.005   7.609   8.404  1.2682 -0.5011 -0.3519
11433SOL     OW35749   6.821   7.182   4.247 -0.0599 -0.7275  0.1368
11433SOL    HW135750   6.783   7.263   4.280 -1.3729 -1.1009 -0.4203
11433SOL    HW235751   6.915   7.193   4.263 -0.4672 -0.4080  2.8964
11434SOL     OW35752   0.589   2.928   3.267  0.5668  0.2352  0.3063
11434SOL    HW135753   0.495   2.943   3.265  0.4939 -0.1145  0.9966
11434SOL    HW235754   0.627   3.008   3.231  0.0891  1.0872  1.6476
11435SOL     OW35755   5.002   0.832   4.849  0.0168 -0.4577 -0.2451
11435SOL    HW135756   5.090   0.841   4.884  0.1503 -0.0469 -0.6806
11435SOL    HW235757   4.958   0.771   4.910 -0.1920  1.2950  1.4648
11436SOL     OW35758   7.418   2.204   5.686  0.3138  0.6713  0.7468
11436SOL    HW135759   7.462   2.282   5.651 -1.5731  1.6994  0.5512
11436SOL    HW235760   7.326   2.228   5.690 -0.5575 -2.0207 -0.6225
11437SOL     OW35761   7.919   5.275   4.011  0.0505  0.1256  0.2573
11437SOL    HW135762   7.881   5.348   4.059  1.1969 -0.0057  1.4352
11437SOL    HW235763   7.906   5.199   4.068 -1.0909 -0.6102 -0.9244
11438SOL     OW35764   0.377   4.176   4.736  0.3805 -0.4317  0.1786
11438SOL    HW135765   0.446   4.179   4.802  1.4554 -1.6309 -0.8199
11438SOL    HW235766   0.423   4.184   4.653 -0.5929 -1.8947 -0.5510
11439SOL     OW35767   8.655   6.684   4.937 -0.4825  0.5005  0.0073
11439SOL    HW135768   8.708   6.702   4.860 -0.5771  1.0587  0.0670
11439SOL    HW235769   8.663   6.763   4.991  0.3060 -0.2124  0.9880
11440SOL     OW35770   6.893   7.587   5.556  0.4028 -0.1624  0.3517
11440SOL    HW135771   6.834   7.512   5.553  1.1339 -0.7620  0.4784
11440SOL    HW235772   6.925   7.588   5.646  1.7755 -0.8234 -0.0862
11441SOL     OW35773   8.762   4.265   8.772  0.5845 -0.6666 -0.3377
11441SOL    HW135774   8.780   4.176   8.742  1.7231  0.3267 -2.9427
11441SOL    HW235775   8.744   4.314   8.691  0.1627  1.5071  0.9890
11442SOL     OW35776   4.020   3.843   0.318 -0.1989 -0.1984  0.3340
11442SOL    HW135777   4.104   3.857   0.274 -0.0866  1.3475  0.9910
11442SOL    HW235778   3.969   3.790   0.256  1.1951 -1.0322 -0.1331
11443SOL     OW35779   2.802   4.428   2.008 -0.1567 -0.5486  0.0039
11443SOL    HW135780   2.776   4.378   1.931 -0.9261 -0.5103  0.2325
11443SOL    HW235781   2.796   4.366   2.081  2.2403 -1.0817 -0.1672
11444SOL     OW35782   1.517   0.854   1.478  0.2094  0.2034 -0.5526
11444SOL    HW135783   1.502   0.760   1.475  2.1998 -0.1705 -0.1805
11444SOL    HW235784   1.433   0.891   1.508 -0.7388 -1.3771 -1.1424
11445SOL     OW35785   6.864   8.197   4.947  0.3507 -0.3050 -0.2181
11445SOL    HW135786   6.871   8.128   5.013 -0.7012 -0.7555 -0.5496
11445SOL    HW235787   6.807   8.160   4.880  1.3323  0.1626 -1.3637
11446SOL     OW35788   3.223   5.698   7.582  0.4894 -0.1583 -0.5038
11446SOL    HW135789   3.232   5.735   7.494  0.4013  2.6344  0.5516
11446SOL    HW235790   3.254   5.768   7.640 -0.8483 -1.3319  1.7597
11447SOL     OW35791   1.990   8.898   3.722  0.2772  0.3855  0.0001
11447SOL    HW135792   1.902   8.867   3.743  0.9920 -0.0997  2.5284
11447SOL    HW235793   1.977   8.988   3.690 -1.1421  0.2250  0.0873
11448SOL     OW35794   1.966   4.329   3.030 -0.1764  0.4055 -0.3101
11448SOL    HW135795   1.937   4.245   3.064 -1.1345 -0.1942 -2.4300
11448SOL    HW235796   1.950   4.391   3.101 -1.3573 -0.8824  0.5892
11449SOL     OW35797   2.525   5.969   2.422 -0.0197  0.4450 -0.4305
11449SOL    HW135798   2.621   5.979   2.421  0.0308  0.1408  0.3647
11449SOL    HW235799   2.509   5.888   2.374 -0.0005  1.3043 -1.9165
11450SOL     OW35800   2.095   4.065   2.660 -0.4021 -0.6280 -0.2455
11450SOL    HW135801   2.183   4.064   2.697 -0.1857  0.0987 -0.7369
11450SOL    HW235802   2.038   4.050   2.736  0.1010 -0.3063  0.2036
11451SOL     OW35803   6.587   1.243   1.327  0.0910 -0.0766  0.3764
11451SOL    HW135804   6.574   1.148   1.335 -0.0057 -0.1007 -0.0561
11451SOL    HW235805   6.509   1.281   1.367 -0.8177 -0.2081 -1.2074
11452SOL     OW35806   4.657   9.100   1.348 -0.0654  0.1728  0.4780
11452SOL    HW135807   4.711   9.037   1.301  0.0370  1.1857 -0.8228
11452SOL    HW235808   4.716   9.173   1.367 -0.8236  1.0749 -0.5192
11453SOL     OW35809   6.100   4.924   8.030  0.4508  0.1203  0.1866
11453SOL    HW135810   6.028   4.987   8.027  0.4030  0.0572 -2.1179
11453SOL    HW235811   6.156   4.955   8.101 -2.1690 -0.2733  2.6189
11454SOL     OW35812   5.739   8.478   5.692 -0.4704  0.5493 -0.9217
11454SOL    HW135813   5.820   8.507   5.735  0.1049  0.5167 -1.9642
11454SOL    HW235814   5.725   8.390   5.727 -2.2815  1.9206  2.3397
11455SOL     OW35815   2.173   5.663   9.181  0.2427 -0.1064  0.1467
11455SOL    HW135816   2.083   5.677   9.152 -1.1284 -1.5481  3.3085
11455SOL    HW235817   2.215   5.617   9.108 -1.4774  0.7402 -1.4601
11456SOL     OW35818   5.920   4.508   0.491  0.3283  0.7761 -0.2844
11456SOL    HW135819   5.962   4.428   0.522  1.8026  0.5969 -2.5190
11456SOL    HW235820   5.867   4.538   0.565 -0.0108 -2.0593  0.7364
11457SOL     OW35821   3.957   7.415   8.371  0.4429 -0.2428 -0.3025
11457SOL    HW135822   3.915   7.347   8.423 -0.3120 -0.0006 -0.5799
11457SOL    HW235823   3.938   7.391   8.280  1.2905 -0.3723 -0.4549
11458SOL     OW35824   6.787   4.658   1.924  0.3565  0.8019  0.7532
11458SOL    HW135825   6.797   4.676   2.017 -1.0224  0.5682  0.9667
11458SOL    HW235826   6.876   4.654   1.890  1.0453 -1.6013  2.5324
11459SOL     OW35827   2.451   7.041   2.389  0.1678 -0.0000  0.5819
11459SOL    HW135828   2.538   7.048   2.428 -0.8816 -0.1979  3.2113
11459SOL    HW235829   2.453   7.100   2.314  2.3116  0.6162  1.0602
11460SOL     OW35830   8.703   2.801   6.874  0.1656 -1.2091  0.3538
11460SOL    HW135831   8.763   2.842   6.936  0.6182 -0.8976 -0.2766
11460SOL    HW235832   8.760   2.759   6.810 -0.2743 -0.5390 -0.4995
11461SOL     OW35833   5.740   1.428   2.558  0.1164  0.4466 -0.4298
11461SOL    HW135834   5.821   1.434   2.508  0.3610 -1.2424 -0.3044
11461SOL    HW235835   5.709   1.518   2.566  0.6463  0.8836 -2.6873
11462SOL     OW35836   2.487   2.916   4.480 -0.0350 -0.4957 -0.0671
11462SOL    HW135837   2.536   2.971   4.541  2.6569 -1.4168 -1.2293
11462SOL    HW235838   2.496   2.827   4.515  2.0232 -1.1189 -1.9374
11463SOL     OW35839   7.981   3.032   2.077  0.4624  0.5898  0.0582
11463SOL    HW135840   8.063   3.010   2.032 -0.7797 -0.9919 -1.5619
11463SOL    HW235841   7.954   3.114   2.037  0.4359  0.2717 -0.5929
11464SOL     OW35842   6.496   4.145   0.334 -0.0369  0.0246  0.0150
11464SOL    HW135843   6.470   4.174   0.247  2.0037  1.6335 -0.1351
11464SOL    HW235844   6.591   4.135   0.328 -0.1309 -2.3896  1.3691
11465SOL     OW35845   8.943   5.531   7.138 -0.4113 -0.3498  0.2270
11465SOL    HW135846   8.952   5.626   7.128 -0.8030 -0.4646 -1.5651
11465SOL    HW235847   8.990   5.495   7.064 -1.3705 -1.5109  0.1616
11466SOL     OW35848   6.341   8.949   9.183  0.3993 -0.5448 -0.0880
11466SOL    HW135849   6.330   8.854   9.175  0.1299 -0.5147 -0.0876
11466SOL    HW235850   6.415   8.960   9.242  1.3849 -0.7625 -1.2576
11467SOL     OW35851   6.406   5.940   2.840 -0.3475  0.1236  0.6023
11467SOL    HW135852   6.383   5.923   2.749 -0.0077 -1.7140  0.8179
11467SOL    HW235853   6.431   6.033   2.842 -1.4746  0.4976 -0.9112
11468SOL     OW35854   6.819   8.479   0.766 -0.2135 -0.1658  0.2081
11468SOL    HW135855   6.842   8.504   0.855  0.0689 -0.6271  0.2672
11468SOL    HW235856   6.726   8.502   0.758 -0.6949 -1.6562  1.1866
11469SOL     OW35857   2.492   3.104   6.306  0.0919 -0.1488  0.0838
11469SOL    HW135858   2.476   3.184   6.357 -1.6257 -0.4397  0.0547
11469SOL    HW235859   2.578   3.118   6.267  0.3456  1.1757  1.0217
11470SOL     OW35860   2.497   2.310   8.635  0.3699  0.3957 -0.2624
11470SOL    HW135861   2.409   2.317   8.671  0.2371  1.0157 -0.7069
11470SOL    HW235862   2.516   2.216   8.638 -0.0510  0.3219  0.4266
11471SOL     OW35863   5.069   3.903   6.835  0.2174  0.1685  0.5682
11471SOL    HW135864   5.121   3.853   6.771 -1.4481 -0.9375  0.0055
11471SOL    HW235865   5.100   3.873   6.920  0.9419  0.0178  0.2616
11472SOL     OW35866   6.867   1.027   8.099  0.2073  0.0607 -0.2517
11472SOL    HW135867   6.801   1.097   8.103 -0.4514 -0.5465 -0.2400
11472SOL    HW235868   6.872   1.005   8.006  2.2918  1.8449 -0.6346
11473SOL     OW35869   6.467   0.345   1.101 -0.6190  0.2074 -0.1433
11473SOL    HW135870   6.505   0.257   1.097 -0.6844  0.2115 -1.1759
11473SOL    HW235871   6.382   0.332   1.142 -0.8223 -0.3020 -0.6985
11474SOL     OW35872   3.946   7.237   0.354  0.2813  0.4854  0.5171
11474SOL    HW135873   3.958   7.277   0.267  1.1348 -2.4864 -0.8544
11474SOL    HW235874   3.947   7.311   0.414 -0.8213  2.7483 -2.0115
11475SOL     OW35875   2.903   0.504   0.258  0.6247  0.4835  0.0262
11475SOL    HW135876   2.895   0.465   0.171 -1.1153 -0.4352  0.5655
11475SOL    HW235877   2.926   0.431   0.316  2.3170  1.1726  0.3105
11476SOL     OW35878   7.239   2.152   2.459 -0.6341  0.3087  0.1488
11476SOL    HW135879   7.309   2.087   2.450  0.2777  1.2146  0.3822
11476SOL    HW235880   7.187   2.122   2.533 -0.1813 -0.1177  0.2949
11477SOL     OW35881   7.926   4.033   1.590 -0.1147 -0.1851 -0.6806
11477SOL    HW135882   7.956   3.987   1.511  4.5723  0.2667  0.5179
11477SOL    HW235883   7.925   4.125   1.566  3.5517  0.2320  0.0372
11478SOL     OW35884   5.310   4.626   7.296  0.3578  0.2925 -0.4818
11478SOL    HW135885   5.307   4.586   7.383  2.4383 -0.2004 -0.5748
11478SOL    HW235886   5.383   4.583   7.252  1.1343  2.4632 -1.4894
11479SOL     OW35887   0.831   2.711   2.158  0.5096  0.2973  0.5674
11479SOL    HW135888   0.815   2.736   2.249  0.4757 -1.0185  0.9472
11479SOL    HW235889   0.912   2.757   2.134 -0.1154  1.5809  0.8674
11480SOL     OW35890   4.873   5.348   1.391 -0.2460 -0.1050  0.2164
11480SOL    HW135891   4.835   5.300   1.464  1.4174 -1.2477  0.3868
11480SOL    HW235892   4.931   5.412   1.432 -0.6788  0.4773 -0.0700
11481SOL     OW35893   0.662   2.712   8.276  0.1176  0.0801 -0.1801
11481SOL    HW135894   0.686   2.804   8.261  0.1280  0.2862  1.0006
11481SOL    HW235895   0.709   2.664   8.208  0.7893  0.8718 -0.2956
11482SOL     OW35896   6.481   0.791   0.897 -0.2039  0.0640 -0.7085
11482SOL    HW135897   6.468   0.853   0.969  0.5402 -0.1680 -0.3666
11482SOL    HW235898   6.398   0.743   0.892  0.3114 -1.1384  1.1652
11483SOL     OW35899   1.815   0.674   2.062  0.7227 -0.3190  0.5742
11483SOL    HW135900   1.791   0.583   2.077 -3.1111  0.5655  0.9069
11483SOL    HW235901   1.815   0.684   1.967 -2.7015  0.0331  0.5001
11484SOL     OW35902   0.497   8.574   8.906 -0.3371  0.0613  0.2349
11484SOL    HW135903   0.452   8.494   8.936 -0.8371  0.5803  0.8912
11484SOL    HW235904   0.438   8.611   8.841 -0.2379  0.0438  0.1358
11485SOL     OW35905   5.435   4.314   3.140 -0.1500  0.6165 -0.5482
11485SOL    HW135906   5.512   4.365   3.165 -0.3970  0.3507  0.8248
11485SOL    HW235907   5.383   4.309   3.220 -0.9230 -0.3887 -1.0980
11486SOL     OW35908   5.501   7.239   0.375  0.1582  0.2773 -0.3807
11486SOL    HW135909   5.421   7.287   0.397  0.6869  0.6770  0.7994
11486SOL    HW235910   5.520   7.188   0.454  0.4221 -0.7317 -1.0823
11487SOL     OW35911   4.004   5.248   8.020 -0.0363  0.4699 -0.0924
11487SOL    HW135912   4.060   5.256   8.097  0.0485 -0.7194 -0.0209
11487SOL    HW235913   4.053   5.193   7.959  0.4079  2.3129 -1.5092
11488SOL     OW35914   9.146   2.288   1.484 -0.9464  0.1515  0.5259
11488SOL    HW135915   9.191   2.206   1.504 -1.0256 -0.0219 -0.0160
11488SOL    HW235916   9.131   2.286   1.390 -0.7365  0.8976  0.4639
11489SOL     OW35917   4.123   2.685   6.785  0.5344  0.5141 -0.2754
11489SOL    HW135918   4.209   2.645   6.786  0.3899 -0.0228 -2.7994
11489SOL    HW235919   4.063   2.613   6.764 -0.3047  1.1925 -0.2603
11490SOL     OW35920   0.860   1.757   4.915  0.6922  0.7431  0.6886
11490SOL    HW135921   0.900   1.844   4.922  2.2780  0.2353 -0.9802
11490SOL    HW235922   0.801   1.764   4.840  1.5734  0.1591 -0.0833
11491SOL     OW35923   3.845   4.394   6.297  0.3681 -0.7684  0.0020
11491SOL    HW135924   3.853   4.448   6.375  0.6318 -1.4175  0.4374
11491SOL    HW235925   3.851   4.455   6.224 -2.2160  0.1703  0.4753
11492SOL     OW35926   2.407   8.738   2.401  0.3215  0.3202  0.2009
11492SOL    HW135927   2.481   8.792   2.426  1.0096 -1.3582  2.1298
11492SOL    HW235928   2.430   8.650   2.434 -1.4970 -0.7500 -1.2032
11493SOL     OW35929   5.532   7.664   2.847 -0.2865  0.5567  0.9083
11493SOL    HW135930   5.517   7.617   2.765 -1.2094 -1.4733  2.1633
11493SOL    HW235931   5.611   7.623   2.884 -1.4002 -0.4564  2.2716
11494SOL     OW35932   7.800   1.982   2.586 -1.0536 -0.2712  0.1157
11494SOL    HW135933   7.839   1.912   2.639  1.2841  0.9582  0.1414
11494SOL    HW235934   7.820   1.959   2.496  1.8185  1.3887  0.2077
11495SOL     OW35935   2.828   1.772   6.383 -0.2906  0.5406  0.0562
11495SOL    HW135936   2.753   1.716   6.362 -1.0315  1.5835 -0.1862
11495SOL    HW235937   2.797   1.828   6.455  0.0665  1.3368 -0.3928
11496SOL     OW35938   8.632   5.168   6.262  0.1404  0.0544 -0.0458
11496SOL    HW135939   8.697   5.147   6.195  0.6062  1.0059  0.0972
11496SOL    HW235940   8.554   5.194   6.213  0.5104  0.8356 -0.2196
11497SOL     OW35941   7.374   5.325   4.437  0.1905  0.1406  0.5351
11497SOL    HW135942   7.421   5.373   4.369 -0.5397 -0.1581 -0.1921
11497SOL    HW235943   7.443   5.280   4.487  0.6267 -2.9482 -2.4734
11498SOL     OW35944   7.770   1.388   5.170  0.8004 -0.2656 -0.2616
11498SOL    HW135945   7.816   1.351   5.246 -0.3438 -2.4172 -0.5432
11498SOL    HW235946   7.691   1.427   5.207  1.1296  0.3336 -0.1710
11499SOL     OW35947   5.676   9.148   6.191  0.2501  0.1145 -0.5273
11499SOL    HW135948   5.687   9.148   6.096 -2.2837 -0.8282 -0.8995
11499SOL    HW235949   5.593   9.195   6.205  0.1881 -0.4359  1.1487
11500SOL     OW35950   4.187   1.058   0.447  0.0164  0.7195  0.1771
11500SOL    HW135951   4.097   1.032   0.426  0.5237 -1.3507  0.3075
11500SOL    HW235952   4.204   1.017   0.532  0.9512  1.4283  0.3440
11501SOL     OW35953   8.243   2.688   6.916  0.3416  0.0053 -0.0987
11501SOL    HW135954   8.193   2.766   6.942 -1.8301 -1.2568 -0.2670
11501SOL    HW235955   8.251   2.637   6.997 -0.3530 -0.6916 -0.4567
11502SOL     OW35956   0.170   0.254   4.712 -0.5856  0.0355  0.0688
11502SOL    HW135957   0.173   0.253   4.808 -0.0650 -1.3945  0.0695
11502SOL    HW235958   0.085   0.215   4.690  0.6223 -2.8376  0.0014
11503SOL     OW35959   2.762   2.917   6.222 -0.3768  0.0989 -0.3405
11503SOL    HW135960   2.685   2.862   6.210 -0.9548  0.5656  0.9898
11503SOL    HW235961   2.751   2.987   6.159 -0.1039 -0.7962 -1.4097
11504SOL     OW35962   2.849   1.042   0.800  0.2152 -0.5587 -0.0393
11504SOL    HW135963   2.922   1.001   0.753 -0.6465 -1.5444 -0.5667
11504SOL    HW235964   2.884   1.060   0.888  1.1826 -0.7215 -0.3819
11505SOL     OW35965   5.954   4.557   2.280 -0.1533 -0.5827 -0.0091
11505SOL    HW135966   5.891   4.622   2.309  1.3666  0.4369  1.1704
11505SOL    HW235967   5.993   4.595   2.201  0.4436 -0.2223  0.4488
11506SOL     OW35968   0.798   8.304   9.244  0.6797  0.3809  0.1597
11506SOL    HW135969   0.863   8.244   9.282 -0.2489 -1.4212 -0.9538
11506SOL    HW235970   0.837   8.330   9.160  0.2703 -0.1841 -0.2111
11507SOL     OW35971   0.974   5.945   5.993 -0.2484  0.6844 -0.2859
11507SOL    HW135972   0.951   6.029   6.034  3.4085  1.0859  1.4267
11507SOL    HW235973   0.942   5.879   6.054  1.5757  1.1577  1.3071
11508SOL     OW35974   3.400   2.175   2.831 -0.2531  0.6313 -0.8159
11508SOL    HW135975   3.349   2.165   2.751  0.7001 -1.0624 -1.2614
11508SOL    HW235976   3.355   2.122   2.896 -0.3886  1.0848 -0.5311
11509SOL     OW35977   8.765   4.463   0.260  0.3911  0.3038 -0.2608
11509SOL    HW135978   8.851   4.438   0.295  0.8684 -1.0229 -2.1666
11509SOL    HW235979   8.705   4.397   0.295  0.4598  0.2786 -0.1907
11510SOL     OW35980   3.295   8.252   5.284 -0.5977  0.6589 -0.4006
11510SOL    HW135981   3.269   8.344   5.294  0.3605  0.8235  0.9466
11510SOL    HW235982   3.389   8.252   5.302 -0.8266 -0.7766  0.9896
11511SOL     OW35983   1.739   3.772   2.981 -0.4257  0.5762  0.1407
11511SOL    HW135984   1.737   3.793   2.887  0.4966  0.0998 -0.0091
11511SOL    HW235985   1.653   3.796   3.013 -0.5685  1.2818 -0.7175
11512SOL     OW35986   8.491   1.050   8.773 -0.0940 -0.6260 -0.7628
11512SOL    HW135987   8.565   1.080   8.826  0.8997 -0.1170 -2.3474
11512SOL    HW235988   8.470   0.963   8.808  2.6101 -1.6978 -1.4960
11513SOL     OW35989   6.667   1.845   2.268  0.1702  0.0172  0.2085
11513SOL    HW135990   6.596   1.791   2.302  0.0076  0.0523 -0.0746
11513SOL    HW235991   6.628   1.931   2.254  0.9533  0.8954  2.7996
11514SOL     OW35992   1.893   3.734   8.572 -0.2576  0.1880  0.3457
11514SOL    HW135993   1.807   3.700   8.596 -0.0198 -0.2100  0.6419
11514SOL    HW235994   1.955   3.678   8.618  0.1432  2.2893  2.5766
11515SOL     OW35995   8.390   0.056   7.049 -0.0526  0.2102  0.4723
11515SOL    HW135996   8.476   0.074   7.088  0.0806  2.1041 -0.5651
11515SOL    HW235997   8.344   0.140   7.052 -1.6418 -0.6182  0.4199
11516SOL     OW35998   4.299   6.056   3.242  0.4501  0.5290  0.3345
11516SOL    HW135999   4.296   5.973   3.290 -0.3710 -0.3377 -1.1266
11516SOL    HW236000   4.209   6.069   3.212  1.0308  0.6498 -1.5167
11517SOL     OW36001   2.723   0.920   6.875  0.0317  0.2591 -0.8277
11517SOL    HW136002   2.794   0.941   6.814  1.4533 -1.3560  0.1646
11517SOL    HW236003   2.742   0.972   6.953 -0.2639  0.3080 -0.7862
11518SOL     OW36004   6.630   7.165   8.346  0.0048  0.6746 -0.1132
11518SOL    HW136005   6.718   7.152   8.310 -0.8860  0.5496 -2.3598
11518SOL    HW236006   6.610   7.081   8.388  1.4144  1.1219  1.5960
11519SOL     OW36007   6.566   7.200   0.071  0.2631  0.2888 -0.1394
11519SOL    HW136008   6.544   7.123   0.123 -1.0153  0.3783 -0.5193
11519SOL    HW236009   6.504   7.198  -0.002  1.4191  0.6794 -1.1592
11520SOL     OW36010   9.015   3.868   1.409 -0.3640  0.0567 -0.0229
11520SOL    HW136011   8.994   3.839   1.498 -0.2480 -0.0631 -0.0359
11520SOL    HW236012   9.109   3.853   1.400 -0.4985 -0.5868 -0.4146
11521SOL     OW36013   2.255   4.314   3.807 -0.1828 -0.7249 -1.0321
11521SOL    HW136014   2.168   4.348   3.789 -0.4656 -0.9057 -0.0717
11521SOL    HW236015   2.251   4.221   3.782  0.1087 -0.4523 -2.1334
11522SOL     OW36016   2.899   6.218   2.695 -0.3918 -0.2975  0.2110
11522SOL    HW136017   2.961   6.222   2.768  0.1569 -0.2366 -0.2566
11522SOL    HW236018   2.917   6.297   2.643 -0.0910 -0.8518 -0.5418
11523SOL     OW36019   8.277   5.760   9.035 -0.3235  0.1297  0.0899
11523SOL    HW136020   8.328   5.679   9.026  0.5509  0.7303 -0.5107
11523SOL    HW236021   8.236   5.753   9.121  1.4597 -0.0056  0.9709
11524SOL     OW36022   6.148   1.490   4.392 -0.6709  0.0961  0.3112
11524SOL    HW136023   6.198   1.436   4.331  0.4626  1.8563 -0.4029
11524SOL    HW236024   6.057   1.466   4.377 -0.2501 -1.1190 -0.4282
11525SOL     OW36025   6.969   0.186   6.325  0.3209  0.1993 -0.0833
11525SOL    HW136026   7.045   0.153   6.277 -0.1822  0.1331 -0.8544
11525SOL    HW236027   6.975   0.281   6.316  1.8020  0.3907  2.1876
11526SOL     OW36028   1.568   8.766   1.944  0.1495 -0.0852 -0.3650
11526SOL    HW136029   1.523   8.808   2.018  1.4415 -0.2210  0.5444
11526SOL    HW236030   1.656   8.803   1.946  0.9963 -1.9852 -0.2114
11527SOL     OW36031   3.900   2.493   1.556 -0.3835 -0.4332  0.0229
11527SOL    HW136032   3.980   2.451   1.524 -1.5063 -1.3118 -1.8171
11527SOL    HW236033   3.891   2.572   1.502 -1.0946 -0.7004 -0.2655
11528SOL     OW36034   1.274   3.224   8.604  0.3597  0.3712  0.0619
11528SOL    HW136035   1.238   3.151   8.555 -0.1599  0.1924  0.6918
11528SOL    HW236036   1.197   3.274   8.632  0.6616  0.6648  0.3781
11529SOL     OW36037   4.093   1.274   8.627 -0.1987 -0.9351  0.0444
11529SOL    HW136038   4.012   1.291   8.676  0.2257  0.0688  0.4126
11529SOL    HW236039   4.135   1.202   8.675 -0.3576 -0.7508  0.4702
11530SOL     OW36040   3.977   6.512   1.917  0.3102  0.3070  0.6162
11530SOL    HW136041   3.884   6.514   1.893  0.0416 -0.8627  1.4126
11530SOL    HW236042   3.993   6.420   1.940  2.1275  0.0966 -1.1896
11531SOL     OW36043   1.592   1.746   4.324 -0.0089 -0.9405  0.7583
11531SOL    HW136044   1.611   1.653   4.338  0.6930 -0.7491  1.1065
11531SOL    HW236045   1.654   1.792   4.379 -2.0070 -0.2725  2.5813
11532SOL     OW36046   3.857   3.546   9.089  0.4874  0.5503  0.1490
11532SOL    HW136047   3.841   3.619   9.148 -1.6925 -0.2945  0.6903
11532SOL    HW236048   3.888   3.475   9.145 -0.5020  0.0914  0.1297
11533SOL     OW36049   4.808   2.811   3.807  0.0551  0.1898  0.3960
11533SOL    HW136050   4.880   2.816   3.870  0.4906  0.0079 -0.0818
11533SOL    HW236051   4.834   2.870   3.736 -0.5480  0.5900  0.4938
11534SOL     OW36052   6.636   0.637   2.834 -0.3242 -0.9803  0.3199
11534SOL    HW136053   6.693   0.683   2.895 -0.3619 -0.1717 -0.2381
11534SOL    HW236054   6.551   0.633   2.879 -0.2875 -0.6132  0.4289
11535SOL     OW36055   4.408   7.042   4.923 -0.4377  0.2961 -0.1740
11535SOL    HW136056   4.346   6.972   4.901 -1.0822  0.8155 -0.0098
11535SOL    HW236057   4.355   7.121   4.928  0.2869  0.8001 -0.3246
11536SOL     OW36058   0.440   8.012   7.136 -0.4161  0.5639 -0.5098
11536SOL    HW136059   0.416   7.955   7.210 -1.2501  0.3711 -0.9080
11536SOL    HW236060   0.405   7.966   7.059  0.5214  0.7180 -1.0377
11537SOL     OW36061   7.398   4.908   7.232  0.5497 -0.3606  0.2860
11537SOL    HW136062   7.366   4.978   7.288  1.0895 -0.7894  1.1536
11537SOL    HW236063   7.487   4.892   7.261  0.0847 -2.1603  0.8938
11538SOL     OW36064   0.911   4.546   2.628  0.4442  0.0843  0.0218
11538SOL    HW136065   0.926   4.546   2.533  0.3546  0.9794  0.0033
11538SOL    HW236066   0.956   4.468   2.659 -0.4044 -0.8030 -0.8920
11539SOL     OW36067   7.550   1.552   7.446 -0.2783 -0.6591 -0.0447
11539SOL    HW136068   7.640   1.586   7.448 -0.4749 -0.0033 -1.4040
11539SOL    HW236069   7.496   1.625   7.479 -0.4433 -0.5597 -0.5286
11540SOL     OW36070   0.477   8.203   3.835 -0.2353 -0.3313  0.1206
11540SOL    HW136071   0.551   8.147   3.859  0.1538  1.0954  2.5725
11540SOL    HW236072   0.483   8.211   3.740  2.0127 -1.2658  0.1161
11541SOL     OW36073   1.063   3.121   7.400  0.1677 -0.4255 -0.9281
11541SOL    HW136074   1.025   3.101   7.485  0.2327 -1.9071 -1.2300
11541SOL    HW236075   1.157   3.119   7.414  0.1982  1.1187 -0.6660
11542SOL     OW36076   0.550   3.520   3.490 -0.1944 -0.0137  0.2485
11542SOL    HW136077   0.620   3.550   3.432 -0.1373  0.5420  0.6029
11542SOL    HW236078   0.587   3.445   3.536  0.3143  0.5250  0.7324
11543SOL     OW36079   7.411   3.906   4.512 -0.0319 -0.0392  0.0379
11543SOL    HW136080   7.467   3.837   4.548 -0.2523  0.4551  1.4070
11543SOL    HW236081   7.322   3.882   4.539 -0.0204  1.2049  1.3566
11544SOL     OW36082   5.028   9.059   4.882  0.1874 -0.3945  0.1204
11544SOL    HW136083   4.963   9.015   4.937 -0.0162 -1.2524 -0.7830
11544SOL    HW236084   4.978   9.127   4.836 -0.1823 -1.3724 -0.9395
11545SOL     OW36085   5.941   5.298   6.215 -0.0737  0.7364  0.0130
11545SOL    HW136086   5.991   5.325   6.292 -1.3992  0.8644  0.8541
11545SOL    HW236087   5.997   5.232   6.173  1.0906  1.3467  0.5464
11546SOL     OW36088   5.560   4.295   0.965  1.2088 -0.0617  0.1296
11546SOL    HW136089   5.473   4.282   0.929  0.9949  0.2500  0.5344
11546SOL    HW236090   5.563   4.387   0.990  1.9244  0.1367 -0.5979
11547SOL     OW36091   8.075   6.599   1.645 -0.2380  0.3776 -0.2368
11547SOL    HW136092   8.024   6.519   1.662  1.0511 -0.5701 -0.7184
11547SOL    HW236093   8.011   6.659   1.605 -1.0881 -0.6185 -0.4318
11548SOL     OW36094   5.515   4.223   2.873  0.2458  0.2677 -0.5582
11548SOL    HW136095   5.493   4.280   2.947 -1.6007  0.2243 -1.0272
11548SOL    HW236096   5.536   4.139   2.913 -1.1191  0.1327 -0.0761
11549SOL     OW36097   6.819   4.543   1.059 -0.1992 -0.8944  0.0209
11549SOL    HW136098   6.793   4.559   0.969  1.7629 -0.3883 -0.5060
11549SOL    HW236099   6.822   4.630   1.100  1.0380 -0.8764 -0.0745
11550SOL     OW36100   4.884   2.293   8.957  0.6152 -0.2237 -0.0541
11550SOL    HW136101   4.795   2.275   8.928 -0.2370  0.0178  2.2278
11550SOL    HW236102   4.888   2.260   9.047  2.6475  0.3141  0.1118
11551SOL     OW36103   8.846   1.801   2.556  0.2830  0.2398 -0.1564
11551SOL    HW136104   8.808   1.780   2.641  0.3164  0.6935 -0.0259
11551SOL    HW236105   8.811   1.888   2.535 -0.0444 -0.0401 -0.7936
11552SOL     OW36106   3.006   4.405   4.730  0.1732  0.3314  0.4156
11552SOL    HW136107   3.040   4.413   4.819  1.1699 -2.0820  0.3419
11552SOL    HW236108   3.079   4.371   4.679 -0.3009  1.8686 -1.4354
11553SOL     OW36109   7.961   2.612   4.437  0.0069  0.4121  0.0443
11553SOL    HW136110   7.908   2.630   4.515  1.7282 -1.2818  1.7374
11553SOL    HW236111   8.046   2.653   4.457  0.1789  0.7918 -1.3999
11554SOL     OW36112   4.168   0.448   7.936 -0.3668 -0.0899  0.1781
11554SOL    HW136113   4.093   0.477   7.885  0.7156  2.3838 -0.1828
11554SOL    HW236114   4.136   0.442   8.026 -1.2080  0.0945 -0.1037
11555SOL     OW36115   2.042   5.176   8.917 -0.2407 -0.2294  0.1985
11555SOL    HW136116   1.959   5.173   8.964 -1.0386 -1.2038 -1.1763
11555SOL    HW236117   2.037   5.103   8.855  1.7813 -0.4934  0.2859
11556SOL     OW36118   6.094   1.864   3.827 -0.2815  0.2736  0.2515
11556SOL    HW136119   6.057   1.934   3.880 -0.4365  1.2954 -1.1569
11556SOL    HW236120   6.081   1.893   3.737  1.3174 -0.7155 -0.3323
11557SOL     OW36121   3.576   1.008   0.387  0.3722  0.7929 -0.0499
11557SOL    HW136122   3.593   0.915   0.373 -2.3529  0.3286 -1.0009
11557SOL    HW236123   3.594   1.023   0.479 -1.3855 -1.3104  0.6978
11558SOL     OW36124   4.857   2.029   5.046 -0.3211  0.2332  0.2248
11558SOL    HW136125   4.838   2.000   4.957  2.2990 -2.5337  0.4003
11558SOL    HW236126   4.829   1.955   5.101 -0.8888  1.4452  1.6394
11559SOL     OW36127   4.712   8.759   6.977 -0.2936  0.0185  0.3242
11559SOL    HW136128   4.770   8.792   7.045  1.1882  1.5502 -1.5753
11559SOL    HW236129   4.636   8.816   6.980 -0.3263 -0.0529  0.8309
11560SOL     OW36130   6.003   9.066   1.941 -0.0261 -0.7828  0.2065
11560SOL    HW136131   5.951   9.127   1.888 -1.1636 -0.5622  1.5113
11560SOL    HW236132   6.085   9.113   1.957 -0.6748  0.2126  0.7419
11561SOL     OW36133   5.777   4.801   6.545  0.6614 -0.2383 -0.4317
11561SOL    HW136134   5.832   4.729   6.513  2.3574 -0.1533  1.9813
11561SOL    HW236135   5.837   4.855   6.596 -1.6595 -0.2946  2.6565
11562SOL     OW36136   6.598   2.394   8.035  0.4214  0.3517 -0.1071
11562SOL    HW136137   6.632   2.480   8.059  0.9523  0.0349  0.2942
11562SOL    HW236138   6.513   2.413   7.994  0.0323  0.9858  0.9626
11563SOL     OW36139   8.245   1.164   1.676 -0.5122 -0.0903  0.2211
11563SOL    HW136140   8.264   1.115   1.756  0.4608  1.4418  0.9811
11563SOL    HW236141   8.308   1.133   1.612 -0.2400 -0.2071  0.5429
11564SOL     OW36142   7.915   8.588   6.539  0.2473  0.3583 -0.1431
11564SOL    HW136143   7.829   8.619   6.510 -0.5578 -0.5592  1.1829
11564SOL    HW236144   7.972   8.665   6.532 -0.7326  1.0457 -0.7967
11565SOL     OW36145   3.265   2.928   5.100  0.1356  0.6981  0.4316
11565SOL    HW136146   3.247   2.896   5.011  2.4219 -0.1753  0.2136
11565SOL    HW236147   3.200   2.883   5.155  0.8089 -1.4275 -0.4009
11566SOL     OW36148   5.902   5.490   0.443  0.0514 -0.0798  0.4436
11566SOL    HW136149   5.930   5.577   0.472 -1.5035  0.8155 -0.6153
11566SOL    HW236150   5.981   5.436   0.450  0.6801  1.0160  2.5591
11567SOL     OW36151   1.456   1.992   8.703  0.7228 -0.1134 -0.0091
11567SOL    HW136152   1.496   2.076   8.729  0.1864  0.7304 -1.7617
11567SOL    HW236153   1.378   1.985   8.757  0.2194  1.0484 -0.5441
11568SOL     OW36154   8.316   1.392   2.602 -0.7492  0.3413  0.0511
11568SOL    HW136155   8.391   1.439   2.638  0.6212 -0.6534 -1.3932
11568SOL    HW236156   8.292   1.440   2.523 -0.4766 -0.3319 -0.4558
11569SOL     OW36157   6.254   8.755   5.803 -0.3320  0.3399 -0.3673
11569SOL    HW136158   6.251   8.675   5.750  1.6315  1.5395 -2.4874
11569SOL    HW236159   6.208   8.820   5.750 -1.2644  0.8171  0.9929
11570SOL     OW36160   2.403   3.016   1.387  0.2118  0.2126  0.0893
11570SOL    HW136161   2.477   2.968   1.424 -0.3907 -0.7660  0.0680
11570SOL    HW236162   2.440   3.063   1.312  0.5697 -1.3787 -0.7829
11571SOL     OW36163   1.283   3.698   7.203 -0.2901  0.5252 -0.0435
11571SOL    HW136164   1.268   3.608   7.174 -0.0815 -0.0846  1.6475
11571SOL    HW236165   1.198   3.728   7.235  0.1599 -0.0017  1.7596
11572SOL     OW36166   4.790   3.509   7.831  0.4723  0.2330  0.1150
11572SOL    HW136167   4.863   3.451   7.854  0.5348  0.4941  0.5932
11572SOL    HW236168   4.780   3.567   7.907 -0.7791 -0.3345  0.4097
11573SOL     OW36169   0.632   3.627   7.194 -0.3417 -0.0907  0.2755
11573SOL    HW136170   0.556   3.669   7.153 -1.1886 -0.4751  1.3917
11573SOL    HW236171   0.601   3.539   7.217 -0.3349  0.4842  2.7764
11574SOL     OW36172   5.352   7.304   0.685 -0.1069 -0.2503 -0.1974
11574SOL    HW136173   5.360   7.348   0.601 -0.8813 -0.4197 -0.3722
11574SOL    HW236174   5.346   7.374   0.750  1.2234 -0.1195 -0.1927
11575SOL     OW36175   9.041   0.399   7.522  0.1160  0.2079 -0.2091
11575SOL    HW136176   9.044   0.421   7.616 -0.5631  1.5803 -0.4786
11575SOL    HW236177   9.085   0.472   7.479  0.7433 -0.5903 -0.9564
11576SOL     OW36178   0.489   5.331   7.615  0.7678 -0.1491  0.1710
11576SOL    HW136179   0.493   5.260   7.552  2.0953  0.9052 -0.9930
11576SOL    HW236180   0.519   5.408   7.567 -1.8380  1.5122  1.0014
11577SOL     OW36181   0.146   6.642   8.477 -0.3295  0.4057  0.6236
11577SOL    HW136182   0.184   6.555   8.488 -0.9076 -0.0073 -0.4322
11577SOL    HW236183   0.196   6.682   8.405 -1.6710 -0.0577 -0.6262
11578SOL     OW36184   3.895   4.021   8.618 -0.6034  0.3456 -0.7242
11578SOL    HW136185   3.851   4.049   8.698  0.4486  0.4275 -0.1489
11578SOL    HW236186   3.875   3.928   8.610 -1.0166  0.4195 -0.5735
11579SOL     OW36187   0.645   7.393   4.905  0.4376 -0.3437 -0.2362
11579SOL    HW136188   0.726   7.398   4.855  0.8768  2.3202  0.5633
11579SOL    HW236189   0.576   7.414   4.842  0.7819  0.9839 -0.2032
11580SOL     OW36190   9.263   0.575   8.416  0.3095  0.0143 -0.2171
11580SOL    HW136191   9.236   0.637   8.348  0.8632  2.3731  1.5776
11580SOL    HW236192   9.299   0.501   8.368 -1.6013  0.4240 -2.5123
11581SOL     OW36193   0.562   6.339   3.623 -0.4753  0.5844  0.3253
11581SOL    HW136194   0.589   6.262   3.673  0.4476  0.8563  0.2737
11581SOL    HW236195   0.607   6.330   3.539  0.8053  1.8727  0.8218
11582SOL     OW36196   4.113   8.598   7.309  0.0034  0.3846  0.0836
11582SOL    HW136197   4.079   8.598   7.399 -1.4162 -1.4120 -0.3774
11582SOL    HW236198   4.096   8.687   7.278 -1.2802  0.4971  0.9850
11583SOL     OW36199   1.563   1.510   5.853  0.9686  0.0719 -0.1443
11583SOL    HW136200   1.608   1.471   5.928 -0.9748  2.8089  2.6928
11583SOL    HW236201   1.537   1.597   5.882 -1.8155  0.5207 -3.2559
11584SOL     OW36202   2.302   8.470   0.137 -0.3755 -0.0369  0.7337
11584SOL    HW136203   2.245   8.394   0.142  0.1897 -0.6053 -0.9795
11584SOL    HW236204   2.380   8.440   0.090 -0.6918  1.9087 -1.1937
11585SOL     OW36205   1.443   5.779   4.525 -0.3264 -0.6029  0.2919
11585SOL    HW136206   1.488   5.715   4.580  1.2708 -0.2466 -0.5116
11585SOL    HW236207   1.415   5.730   4.447  0.0941 -0.5241  0.0856
11586SOL     OW36208   4.833   0.497   7.470  0.0556  0.4853 -0.0287
11586SOL    HW136209   4.864   0.587   7.484  1.0207 -0.0353  1.3685
11586SOL    HW236210   4.903   0.456   7.418  0.9436 -0.1872  1.6202
11587SOL     OW36211   3.837   3.681   1.033 -0.2378 -0.1825 -0.0487
11587SOL    HW136212   3.749   3.685   1.071 -0.0894  0.5519  0.2324
11587SOL    HW236213   3.832   3.736   0.955 -0.0784 -0.3019 -0.1440
11588SOL     OW36214   6.738   0.908   0.836  0.1765  0.2815 -0.5783
11588SOL    HW136215   6.750   0.996   0.871  1.4139 -0.4427  0.9578
11588SOL    HW236216   6.660   0.875   0.881  0.4469  0.1509 -0.2038
11589SOL     OW36217   1.833   7.078   2.858 -0.5651 -0.1502  0.2758
11589SOL    HW136218   1.916   7.124   2.876 -0.2918 -0.2784 -0.5885
11589SOL    HW236219   1.828   7.010   2.925  0.4536 -0.6792 -0.1670
11590SOL     OW36220   5.920   6.519   2.679  0.0309 -0.0855 -0.5560
11590SOL    HW136221   5.938   6.612   2.690  0.9838 -0.2004 -1.0432
11590SOL    HW236222   5.825   6.514   2.665 -0.3384  0.6108  1.3887
11591SOL     OW36223   3.755   1.162   3.205 -0.1756 -0.4779 -0.1637
11591SOL    HW136224   3.672   1.117   3.222  0.0229 -0.1570  1.8639
11591SOL    HW236225   3.732   1.255   3.203 -0.2333 -0.4989 -2.1480
11592SOL     OW36226   5.989   7.444   7.765  0.1080  0.8170  0.4351
11592SOL    HW136227   6.024   7.397   7.841 -0.9799  1.2438  1.2095
11592SOL    HW236228   5.924   7.384   7.728  2.8530 -0.8744 -2.2098
11593SOL     OW36229   5.882   3.514   6.688 -0.0638 -0.1238 -0.8385
11593SOL    HW136230   5.951   3.515   6.754  0.2185  0.0883 -1.1315
11593SOL    HW236231   5.866   3.421   6.670  1.0117 -0.1599 -1.6628
11594SOL     OW36232   0.846   0.121   6.156 -0.0628  0.1224 -0.0797
11594SOL    HW136233   0.864   0.208   6.121  2.0308  0.3164  1.3056
11594SOL    HW236234   0.751   0.111   6.147 -0.0776  1.5818 -2.3470
11595SOL     OW36235   6.626   7.528   6.837  0.2283 -0.3959 -0.6159
11595SOL    HW136236   6.559   7.580   6.792 -1.5518  0.7022  2.9072
11595SOL    HW236237   6.593   7.438   6.832 -0.8567 -0.0478 -0.0714
11596SOL     OW36238   0.328   1.801   6.792  0.4992 -0.1739 -0.1979
11596SOL    HW136239   0.325   1.773   6.884 -0.1194  0.1290 -0.1243
11596SOL    HW236240   0.275   1.735   6.746 -2.3499  1.6684  0.1987
11597SOL     OW36241   4.425   9.073   3.292  0.1724 -0.1393  0.6040
11597SOL    HW136242   4.419   9.044   3.383  0.2256 -2.1139  0.0216
11597SOL    HW236243   4.342   9.047   3.252  0.3187  0.3218 -0.0289
11598SOL     OW36244   7.246   6.056   0.386  0.1660  0.2017  0.1390
11598SOL    HW136245   7.289   6.080   0.468 -0.0691  0.5009  0.1753
11598SOL    HW236246   7.304   6.090   0.318 -0.0226  0.6325  0.1880
11599SOL     OW36247   6.774   0.332   8.424 -0.1020  0.3204 -0.3047
11599SOL    HW136248   6.836   0.351   8.494  0.2892 -0.0912 -0.5350
11599SOL    HW236249   6.701   0.392   8.440 -0.1766  0.0002  0.6580
11600SOL     OW36250   3.133   6.630   7.521  0.0483  0.1558  0.2732
11600SOL    HW136251   3.044   6.667   7.527  0.3184  0.8773  0.0413
11600SOL    HW236252   3.146   6.617   7.427 -0.3749 -1.4119  0.4069
11601SOL     OW36253   5.011   8.549   5.897 -0.4055 -0.0909 -0.4614
11601SOL    HW136254   5.085   8.598   5.934 -1.3010  0.3254  0.8666
11601SOL    HW236255   4.935   8.580   5.947 -1.2974 -1.3845 -0.9643
11602SOL     OW36256   7.677   0.973   1.136 -0.3808  0.2433  0.1683
11602SOL    HW136257   7.684   1.033   1.062  1.1320  0.6247  0.5938
11602SOL    HW236258   7.616   1.016   1.196 -0.1168  0.8567  0.0029
11603SOL     OW36259   5.384   1.968   6.325  0.4646 -0.2579  0.2014
11603SOL    HW136260   5.461   1.964   6.382  0.8536  1.4273 -0.1552
11603SOL    HW236261   5.321   1.910   6.367  0.9794  0.4238  2.0158
11604SOL     OW36262   4.266   7.277   4.974  0.6036  0.9465 -0.4491
11604SOL    HW136263   4.184   7.250   4.933  0.2914 -0.8259  1.1776
11604SOL    HW236264   4.245   7.286   5.067  2.5359 -1.1506  0.2972
11605SOL     OW36265   1.064   5.417   4.576  0.3864  0.2599 -0.9729
11605SOL    HW136266   1.019   5.410   4.660  2.5359 -1.8627  0.1486
11605SOL    HW236267   0.999   5.391   4.511 -0.3119 -1.9195  0.4830
11606SOL     OW36268   0.017   8.013   5.827  0.3139  0.2992  0.2823
11606SOL    HW136269  -0.029   8.090   5.861 -0.1448  0.8261 -1.4654
11606SOL    HW236270   0.074   8.047   5.758  0.5610 -0.8452 -0.1099
11607SOL     OW36271   4.816   3.874   7.256  0.1903  0.2184 -0.1622
11607SOL    HW136272   4.811   3.959   7.213 -0.7462 -0.7425 -2.0530
11607SOL    HW236273   4.725   3.853   7.278  0.1030 -1.3049 -1.8371
11608SOL     OW36274   1.544   8.041   0.496 -0.5870  0.0537 -0.0369
11608SOL    HW136275   1.604   7.992   0.440 -1.0581  0.4412 -0.9058
11608SOL    HW236276   1.457   8.013   0.469 -0.8266 -1.0138  1.6825
11609SOL     OW36277   2.838   2.405   4.560 -0.2120 -0.4972 -0.2184
11609SOL    HW136278   2.805   2.398   4.471 -0.6410  1.4190 -0.2367
11609SOL    HW236279   2.881   2.490   4.564  1.2328 -1.2237  0.9696
11610SOL     OW36280   3.260   9.054   2.620  0.3966  0.0346 -0.0479
11610SOL    HW136281   3.327   9.015   2.563  2.7829  0.2472  2.4169
11610SOL    HW236282   3.265   9.148   2.602  0.5220  0.0146 -0.1171
11611SOL     OW36283   1.286   3.954   0.014  0.1559 -0.0019 -0.1307
11611SOL    HW136284   1.249   3.935   0.100  1.7828 -0.7265  0.4439
11611SOL    HW236285   1.282   4.050   0.007  1.3634  0.2021  1.4185
11612SOL     OW36286   2.181   7.530   4.690 -0.4120  0.3518  0.1944
11612SOL    HW136287   2.225   7.612   4.667 -0.4746  0.8019  1.5535
11612SOL    HW236288   2.088   7.551   4.689 -0.4211  0.3599  0.7140
11613SOL     OW36289   5.874   3.163   3.044  0.2103 -0.1275 -0.2775
11613SOL    HW136290   5.826   3.103   2.987  1.9866  0.4375 -2.4969
11613SOL    HW236291   5.958   3.120   3.060  0.5542  0.6917  0.1697
11614SOL     OW36292   0.440   5.729   8.309 -0.6291  0.3643 -0.1435
11614SOL    HW136293   0.395   5.652   8.275 -0.5230  0.6972 -1.0686
11614SOL    HW236294   0.495   5.696   8.380  0.8607 -0.7438 -1.7348
11615SOL     OW36295   6.826   6.804   0.404 -0.1946 -0.4723  0.3485
11615SOL    HW136296   6.832   6.851   0.321 -2.1412 -0.2372  0.2940
11615SOL    HW236297   6.897   6.740   0.401 -0.7261 -1.0302 -1.8833
11616SOL     OW36298   6.071   8.358   0.923 -0.1348 -0.4249  0.1680
11616SOL    HW136299   6.090   8.283   0.979 -0.1627  0.6161  1.6107
11616SOL    HW236300   6.102   8.434   0.972 -0.1651  0.5271 -1.2301
11617SOL     OW36301   7.675   2.536   7.178  0.3953  0.7375 -0.1010
11617SOL    HW136302   7.739   2.599   7.212  0.1965  0.1962  1.3434
11617SOL    HW236303   7.682   2.544   7.082  1.2812  2.0184  0.0440
11618SOL     OW36304   7.315   6.314   1.874 -0.3825  0.3646  0.3899
11618SOL    HW136305   7.282   6.404   1.877 -1.9936 -0.1743 -0.1062
11618SOL    HW236306   7.332   6.298   1.781  1.1573  0.5658  0.6190
11619SOL     OW36307   2.436   7.745   3.364  0.1327  0.0353  0.4364
11619SOL    HW136308   2.481   7.661   3.360  0.5334  0.2616  0.0223
11619SOL    HW236309   2.469   7.787   3.444  0.3548  0.0303  0.3475
11620SOL     OW36310   0.959   9.163   6.089  0.5165  0.1353 -0.0810
11620SOL    HW136311   0.913   9.233   6.137 -1.5468 -0.7211 -0.6733
11620SOL    HW236312   0.970   9.198   6.001 -0.2189 -0.1281 -0.2882
11621SOL     OW36313   0.104   6.556   1.037 -0.2253  0.5691 -0.0013
11621SOL    HW136314   0.121   6.596   0.952  1.0838  0.2584  0.0990
11621SOL    HW236315   0.171   6.593   1.095  1.4828 -2.1859 -0.0533
11622SOL     OW36316   2.137   3.497   3.583  0.1559  0.9355  0.0030
11622SOL    HW136317   2.194   3.437   3.535  1.3366  2.7920 -1.0443
11622SOL    HW236318   2.092   3.441   3.647  1.5558 -0.9580 -0.5651
11623SOL     OW36319   2.890   1.146   7.891 -0.5752 -0.4941  0.1325
11623SOL    HW136320   2.891   1.149   7.795 -0.0902  1.5411  0.1470
11623SOL    HW236321   2.850   1.229   7.917  0.7176 -0.3055  1.6859
11624SOL     OW36322   0.919   6.847   5.786 -0.0565  0.5115  0.2797
11624SOL    HW136323   0.960   6.776   5.834 -1.1141  0.2427  0.8032
11624SOL    HW236324   0.932   6.824   5.694  1.8315  0.9510  0.3913
11625SOL     OW36325   9.274   1.064   7.618  0.0128  0.1916  0.4557
11625SOL    HW136326   9.256   1.157   7.633 -0.9486  0.2407 -0.8690
11625SOL    HW236327   9.225   1.042   7.539  0.9064 -1.2393  0.2563
11626SOL     OW36328   3.404   5.447   2.043  0.2458  0.0949 -0.0163
11626SOL    HW136329   3.445   5.392   2.109 -0.0111 -0.6004 -0.4260
11626SOL    HW236330   3.436   5.412   1.959 -1.9364 -1.1242 -0.4047
11627SOL     OW36331   8.322   1.328   7.096  0.5610  0.0398 -0.2225
11627SOL    HW136332   8.413   1.302   7.113  0.9999  0.7182 -1.3820
11627SOL    HW236333   8.270   1.266   7.146  1.6516 -0.8943 -0.1865
11628SOL     OW36334   1.447   8.378   4.541  0.2652  0.6134 -0.3113
11628SOL    HW136335   1.369   8.337   4.505  0.3923 -0.7193  0.8163
11628SOL    HW236336   1.508   8.385   4.468 -0.9343  1.7914 -1.2304
11629SOL     OW36337   1.643   8.442   4.346 -0.0298  0.6561  0.3656
11629SOL    HW136338   1.646   8.363   4.292 -0.0175  0.2187  0.9905
11629SOL    HW236339   1.733   8.453   4.378 -0.4383 -0.2669  1.9342
11630SOL     OW36340   1.642   6.035   3.478  0.4966  0.0920  0.2174
11630SOL    HW136341   1.719   6.078   3.442  1.4891 -1.8541 -0.1701
11630SOL    HW236342   1.664   5.941   3.476 -1.4836 -0.4532  1.0510
11631SOL     OW36343   0.966   1.269   4.867 -0.4137 -0.1522  0.3218
11631SOL    HW136344   0.890   1.283   4.924 -2.1106 -0.3795 -1.7784
11631SOL    HW236345   0.989   1.357   4.835  0.7354  0.0174  1.5094
11632SOL     OW36346   2.261   7.814   8.587  0.1172  0.0685 -0.3890
11632SOL    HW136347   2.239   7.722   8.569  1.9949 -0.4290 -0.3457
11632SOL    HW236348   2.302   7.845   8.506  0.7332  0.4468  0.0621
11633SOL     OW36349   3.562   9.181   0.813 -0.2227 -0.2894  0.1949
11633SOL    HW136350   3.491   9.121   0.788 -0.2338  0.8376 -2.8521
11633SOL    HW236351   3.517   9.259   0.846 -0.2721 -0.8967  1.6081
11634SOL     OW36352   9.105   3.530   0.556 -0.2617 -0.4641 -0.3791
11634SOL    HW136353   9.026   3.511   0.606  0.8969 -2.5491  0.8358
11634SOL    HW236354   9.172   3.475   0.596  1.3083 -0.4186 -2.7399
11635SOL     OW36355   8.476   5.538   1.431 -0.1139 -0.0875 -0.0310
11635SOL    HW136356   8.416   5.515   1.360  0.0045  1.5603 -0.6987
11635SOL    HW236357   8.562   5.515   1.398 -0.0888  0.4075 -0.3293
11636SOL     OW36358   3.160   3.240   4.433  0.0281 -0.0070 -0.1510
11636SOL    HW136359   3.219   3.252   4.358  1.6289 -0.7786  0.9453
11636SOL    HW236360   3.207   3.183   4.492 -1.3350  0.3457  1.3432
11637SOL     OW36361   3.724   7.524   9.246 -0.2226  0.5950  0.4434
11637SOL    HW136362   3.735   7.582   9.170 -0.0520 -0.7647 -0.5990
11637SOL    HW236363   3.720   7.436   9.209 -2.3680  0.0390  1.8154
11638SOL     OW36364   6.089   8.612   5.474 -0.1864  0.4266  0.2491
11638SOL    HW136365   6.085   8.708   5.480  1.1839  0.5024  0.3356
11638SOL    HW236366   6.025   8.581   5.538  1.5217  1.3181  2.5599
11639SOL     OW36367   5.181   5.374   4.916 -0.4536 -0.0439 -0.3581
11639SOL    HW136368   5.197   5.459   4.873 -1.1382 -0.0369 -0.6179
11639SOL    HW236369   5.100   5.388   4.966 -0.2654 -0.3834  0.0384
11640SOL     OW36370   3.535   5.121   0.956 -0.6240  0.1286 -0.4607
11640SOL    HW136371   3.479   5.193   0.983  0.0254  0.7634 -0.7760
11640SOL    HW236372   3.480   5.043   0.964 -1.0697  0.5434  0.7096
11641SOL     OW36373   7.254   9.146   6.915  0.3040  0.3425  0.4170
11641SOL    HW136374   7.243   9.059   6.876  2.8864 -0.7369  1.8587
11641SOL    HW236375   7.252   9.206   6.840  1.1589 -1.2525 -0.9567
11642SOL     OW36376   5.778   7.040   1.595  0.0481 -0.2175 -0.0198
11642SOL    HW136377   5.820   7.124   1.576 -0.1302 -0.3564 -1.1147
11642SOL    HW236378   5.829   6.977   1.544  0.2870 -0.7978  0.9335
11643SOL     OW36379   7.176   6.269   0.972 -0.4750  0.1719  0.0993
11643SOL    HW136380   7.216   6.336   0.916  0.8601 -1.6680 -1.2502
11643SOL    HW236381   7.104   6.315   1.016  0.9224  2.7151 -0.0650
11644SOL     OW36382   6.624   3.921   4.991 -0.1724  0.0285  0.0086
11644SOL    HW136383   6.532   3.945   4.978 -0.5993 -0.5639  1.6269
11644SOL    HW236384   6.672   3.978   4.932 -1.7035 -1.4541 -2.9214
11645SOL     OW36385   5.546   7.885   3.639  0.8195  0.4600  0.3287
11645SOL    HW136386   5.505   7.838   3.712  0.2497 -0.5516 -0.6074
11645SOL    HW236387   5.540   7.977   3.663 -3.8967  0.6630 -0.5362
11646SOL     OW36388   6.348   7.832   4.925  0.0771 -0.1425 -0.1441
11646SOL    HW136389   6.380   7.896   4.862  0.3059 -0.9585 -0.8752
11646SOL    HW236390   6.260   7.809   4.893  0.7622 -1.6600 -1.0533
11647SOL     OW36391   2.074   1.648   7.570  0.5044  0.6892 -0.9485
11647SOL    HW136392   2.075   1.553   7.557  2.9136  0.4751  0.1879
11647SOL    HW236393   2.032   1.683   7.491 -1.4168 -1.3359 -0.9080
11648SOL     OW36394   1.548   6.768   0.714 -0.3223  0.5868 -0.1917
11648SOL    HW136395   1.542   6.859   0.684 -0.0130  1.8670  3.2251
11648SOL    HW236396   1.496   6.765   0.794  0.7418 -1.9050  0.5129
11649SOL     OW36397   3.335   5.378   7.032  0.1625 -0.0821  0.2907
11649SOL    HW136398   3.412   5.395   6.979 -0.0922 -2.4878 -0.9909
11649SOL    HW236399   3.366   5.323   7.103 -0.1107  0.2862  0.7017
11650SOL     OW36400   3.679   3.778   0.402 -0.3961  0.4347  0.0035
11650SOL    HW136401   3.645   3.847   0.346 -0.5670  0.5074  0.1957
11650SOL    HW236402   3.705   3.708   0.342 -0.7616  0.4323 -0.1485
11651SOL     OW36403   8.525   2.313   6.532  0.7884  0.4413 -0.4088
11651SOL    HW136404   8.539   2.247   6.600  0.0302 -0.2838 -0.9491
11651SOL    HW236405   8.614   2.340   6.507  1.1053 -0.2866 -0.1069
11652SOL     OW36406   7.964   2.077   0.432 -0.5885  0.2872 -0.0183
11652SOL    HW136407   7.991   2.162   0.399 -0.1874  0.8985  1.8041
11652SOL    HW236408   8.003   2.071   0.519 -1.1301 -1.4998  0.1431
11653SOL     OW36409   2.967   5.891   1.320  0.2709 -0.5797  0.4112
11653SOL    HW136410   3.060   5.875   1.301 -0.2882 -1.4637 -1.9495
11653SOL    HW236411   2.933   5.931   1.240 -1.2013  0.6765  1.6069
11654SOL     OW36412   3.096   4.647   3.680 -0.1763 -0.4881 -0.4237
11654SOL    HW136413   3.091   4.610   3.768  0.3141 -0.7052 -0.4849
11654SOL    HW236414   3.078   4.573   3.621 -0.1114 -0.4307 -0.5174
11655SOL     OW36415   3.262   6.270   6.434 -0.2423  0.1454 -0.3888
11655SOL    HW136416   3.286   6.361   6.414  3.4506 -0.8233 -0.9935
11655SOL    HW236417   3.291   6.220   6.358  1.8171 -2.0222  1.6677
11656SOL     OW36418   0.929   2.012   2.500  0.2370  0.6409  0.1066
11656SOL    HW136419   0.962   1.961   2.426  1.3277 -1.2842  1.8021
11656SOL    HW236420   1.005   2.020   2.559 -0.6198  2.0093  1.0936
11657SOL     OW36421   4.389   8.763   4.682  0.4303  0.3372 -0.3355
11657SOL    HW136422   4.454   8.738   4.749  1.7232  1.9142 -0.9335
11657SOL    HW236423   4.350   8.680   4.656  1.6660 -0.6000  0.6181
11658SOL     OW36424   7.565   1.219   5.972 -0.1361 -0.0166 -0.0004
11658SOL    HW136425   7.626   1.293   5.970 -0.5980  0.3771  0.5818
11658SOL    HW236426   7.566   1.186   5.882  1.5741 -0.5398  0.1680
11659SOL     OW36427   8.639   8.756   7.697  0.0468  0.1958 -0.6050
11659SOL    HW136428   8.733   8.770   7.711  0.0248  0.5286 -0.7704
11659SOL    HW236429   8.624   8.665   7.723  0.2471  0.4007  0.2829
11660SOL     OW36430   6.507   0.502   6.135  0.1025 -0.2282  0.1477
11660SOL    HW136431   6.568   0.495   6.062  0.6241 -1.7644  0.6981
11660SOL    HW236432   6.503   0.414   6.172 -1.3545  0.1626  1.0127
11661SOL     OW36433   0.200   2.895   6.796  0.3055  0.0498 -0.1144
11661SOL    HW136434   0.143   2.827   6.831  0.7211 -0.1552  0.1784
11661SOL    HW236435   0.142   2.952   6.744 -0.1273 -0.2455  0.0435
11662SOL     OW36436   6.517   8.602   2.499  0.5083 -0.0272 -0.2622
11662SOL    HW136437   6.477   8.617   2.413 -0.3272  0.6170  0.2169
11662SOL    HW236438   6.443   8.577   2.556  0.4552  2.6964  1.0132
11663SOL     OW36439   6.241   2.273   8.180 -0.3382 -0.0408  0.6181
11663SOL    HW136440   6.264   2.184   8.154  0.4570  0.7211 -1.4983
11663SOL    HW236441   6.255   2.274   8.275  1.6172 -1.6123  0.4273
11664SOL     OW36442   0.629   8.489   2.159  0.1840  0.1553 -0.2671
11664SOL    HW136443   0.571   8.415   2.174  0.6404 -0.1184  0.1549
11664SOL    HW236444   0.676   8.467   2.078  1.4345 -0.7478  0.6643
11665SOL     OW36445   6.711   0.609   2.103 -0.7973  0.0758 -0.4200
11665SOL    HW136446   6.743   0.694   2.134 -1.3088  1.3632 -3.1083
11665SOL    HW236447   6.618   0.608   2.126 -0.0793 -1.6868  3.2738
11666SOL     OW36448   6.135   3.592   1.215  0.0181  0.2228 -0.3268
11666SOL    HW136449   6.097   3.542   1.287  0.5997 -1.6762 -1.2644
11666SOL    HW236450   6.205   3.642   1.256  1.5562 -2.1987  0.2511
11667SOL     OW36451   0.417   8.258   7.314 -0.2461  0.4463 -0.2639
11667SOL    HW136452   0.383   8.187   7.259 -0.7391 -0.5214  1.2015
11667SOL    HW236453   0.416   8.335   7.258  0.1091 -0.6569 -1.8514
11668SOL     OW36454   4.081   4.005   5.807 -0.1162  0.1109  0.9163
11668SOL    HW136455   3.994   3.970   5.793  0.0449  0.2192 -0.6012
11668SOL    HW236456   4.118   3.954   5.878 -1.0217 -0.6723  0.8305
11669SOL     OW36457   2.965   6.960   5.002  0.3419 -0.0735  0.1368
11669SOL    HW136458   2.991   7.052   5.015 -0.6529  0.1096  0.8981
11669SOL    HW236459   3.018   6.912   5.065 -0.1341  0.1401  0.7063
11670SOL     OW36460   8.522   8.722   1.261 -0.3375 -0.5802 -0.5914
11670SOL    HW136461   8.566   8.656   1.315 -0.7230 -0.6900 -0.4081
11670SOL    HW236462   8.442   8.743   1.310 -0.1753  0.0880 -0.6006
11671SOL     OW36463   7.002   8.552   0.564 -0.1463  0.6041 -0.4707
11671SOL    HW136464   6.951   8.550   0.645 -0.5368  1.1420 -0.6929
11671SOL    HW236465   6.939   8.526   0.496 -0.3684  2.0299 -0.8565
11672SOL     OW36466   8.254   4.216   1.376 -0.0099  0.2444 -0.3506
11672SOL    HW136467   8.214   4.277   1.315 -0.2841  1.5799  1.1132
11672SOL    HW236468   8.254   4.262   1.461 -0.2198 -1.7696  0.8106
11673SOL     OW36469   0.531   8.128   6.753  0.2041 -0.3995  0.4833
11673SOL    HW136470   0.450   8.137   6.804 -0.1358  0.1233 -0.1316
11673SOL    HW236471   0.571   8.215   6.756 -1.7229  0.8169 -3.2379
11674SOL     OW36472   5.674   7.654   7.406 -0.0056 -0.0978 -0.3097
11674SOL    HW136473   5.606   7.706   7.450  1.2239  1.2299  0.1060
11674SOL    HW236474   5.689   7.580   7.464 -0.4973  0.0564  0.0258
11675SOL     OW36475   2.420   8.786   3.830 -0.1964 -0.0901 -0.2133
11675SOL    HW136476   2.343   8.838   3.807 -0.1678  0.2957  0.5222
11675SOL    HW236477   2.384   8.704   3.864 -0.2488 -0.4390 -1.0988
11676SOL     OW36478   8.405   5.398   5.724  0.7063  0.7216 -0.4312
11676SOL    HW136479   8.375   5.307   5.718  0.6717  0.7380 -0.5109
11676SOL    HW236480   8.342   5.447   5.671  1.0036  0.7252 -0.7781
11677SOL     OW36481   3.766   7.513   7.972 -0.2570  0.1066 -0.1000
11677SOL    HW136482   3.794   7.603   7.954 -1.0347  0.5014  0.6197
11677SOL    HW236483   3.699   7.496   7.906  1.2071 -0.6470 -1.4704
11678SOL     OW36484   2.913   2.151   0.964  0.4097 -0.2557  0.0896
11678SOL    HW136485   2.889   2.173   1.054 -0.4386 -1.0736  0.0822
11678SOL    HW236486   2.835   2.111   0.928  1.1921 -1.2249 -0.5746
11679SOL     OW36487   4.762   2.027   4.406  0.0197  0.4896  0.1843
11679SOL    HW136488   4.719   2.080   4.339 -0.0530 -0.8653 -0.8846
11679SOL    HW236489   4.692   2.004   4.467 -0.2302  0.4981 -0.0948
11680SOL     OW36490   2.389   1.487   8.549 -0.0796 -0.5314  0.6587
11680SOL    HW136491   2.306   1.527   8.524 -0.3267 -0.1510  2.0286
11680SOL    HW236492   2.450   1.516   8.481 -0.6395  0.7910  0.6832
11681SOL     OW36493   1.626   3.865   6.578 -0.4105 -0.5774  0.5584
11681SOL    HW136494   1.642   3.847   6.486 -1.8333  0.6969  0.0102
11681SOL    HW236495   1.562   3.799   6.604 -0.0017 -0.9434  0.6377
11682SOL     OW36496   3.606   4.526   2.919 -0.7549  0.6554  0.0843
11682SOL    HW136497   3.585   4.461   2.985 -0.4827  0.1843 -0.2850
11682SOL    HW236498   3.528   4.533   2.865 -0.0494 -1.0623 -1.2628
11683SOL     OW36499   2.431   6.142   6.253  0.7264  0.3440  0.3751
11683SOL    HW136500   2.399   6.054   6.274  1.0706 -1.0412 -4.0196
11683SOL    HW236501   2.449   6.181   6.339 -0.3172 -3.4654  2.5906
11684SOL     OW36502   2.661   5.357   6.882 -0.8628  0.5581  0.0031
11684SOL    HW136503   2.632   5.381   6.970 -0.8609 -3.8659  1.4684
11684SOL    HW236504   2.586   5.374   6.825 -0.9441  3.2634  0.7870
11685SOL     OW36505   8.710   5.893   2.130  0.1410  0.4864  0.2640
11685SOL    HW136506   8.780   5.957   2.139 -0.6730  1.3389  0.7767
11685SOL    HW236507   8.673   5.909   2.044  0.7525 -0.1719 -0.1356
11686SOL     OW36508   8.266   7.371   0.650 -0.0264  0.1606  0.1718
11686SOL    HW136509   8.172   7.388   0.644  0.1603  0.8661 -1.1914
11686SOL    HW236510   8.275   7.312   0.725 -1.8716 -2.1782 -1.3083
11687SOL     OW36511   2.545   2.558   7.395 -0.5194  0.5092  0.0952
11687SOL    HW136512   2.580   2.614   7.325  0.6166 -0.7432 -0.3845
11687SOL    HW236513   2.525   2.475   7.352 -1.8429  0.4070  0.8644
11688SOL     OW36514   5.504   7.150   7.561 -0.0691 -0.8333 -0.5345
11688SOL    HW136515   5.527   7.101   7.640 -0.3302 -0.0569  0.0335
11688SOL    HW236516   5.408   7.158   7.565 -0.0546 -0.5297 -0.7633
11689SOL     OW36517   8.612   2.790   8.578  0.7478  0.1658  0.4250
11689SOL    HW136518   8.567   2.738   8.511  0.2359  1.2607 -0.1051
11689SOL    HW236519   8.663   2.726   8.627  1.6883 -0.5992 -1.4284
11690SOL     OW36520   1.420   6.968   8.516  0.6691 -0.2678 -0.3088
11690SOL    HW136521   1.430   6.991   8.423  0.5184  0.2107 -0.2127
11690SOL    HW236522   1.453   6.879   8.523 -0.8618 -0.9476 -1.1512
11691SOL     OW36523   6.568   8.143   3.960 -0.1223  0.4545  0.1083
11691SOL    HW136524   6.533   8.054   3.957  0.1063  0.3911 -1.2426
11691SOL    HW236525   6.652   8.137   3.914  0.1921  1.2467  0.5597
11692SOL     OW36526   8.848   1.778   4.496  0.2200 -0.0037  0.9547
11692SOL    HW136527   8.884   1.693   4.471  1.0187  0.4521  0.5153
11692SOL    HW236528   8.801   1.761   4.578  0.3314 -0.8670  0.8514
11693SOL     OW36529   7.136   8.393   2.630  0.3461  0.0183 -0.3837
11693SOL    HW136530   7.081   8.330   2.676 -0.6961 -0.4958 -2.2230
11693SOL    HW236531   7.075   8.454   2.589  1.2504  0.9047 -0.4582
11694SOL     OW36532   6.829   8.389   8.753  0.0641  0.1861  0.0439
11694SOL    HW136533   6.922   8.401   8.771  1.2228 -2.5541 -3.0929
11694SOL    HW236534   6.816   8.294   8.754 -2.8293  0.4751  0.6261
11695SOL     OW36535   6.486   5.233   4.382  0.1045 -0.1355  0.5155
11695SOL    HW136536   6.419   5.192   4.327 -1.8612  2.2784  0.9490
11695SOL    HW236537   6.440   5.257   4.463  1.4969  1.4495  0.8911
11696SOL     OW36538   6.680   5.744   6.837 -0.3261 -0.2098 -0.5125
11696SOL    HW136539   6.685   5.793   6.755 -0.2052 -0.3419 -0.5847
11696SOL    HW236540   6.588   5.718   6.843 -0.4367  0.2076 -0.3635
11697SOL     OW36541   4.726   0.502   3.562 -0.0467  0.2461  0.2126
11697SOL    HW136542   4.742   0.595   3.543  1.7894  0.1308  0.9906
11697SOL    HW236543   4.793   0.479   3.626 -1.1741 -1.3503  0.8938
11698SOL     OW36544   4.743   6.105   3.422 -0.2589 -0.6170 -0.0275
11698SOL    HW136545   4.710   6.024   3.383  0.4230 -0.7498 -0.3415
11698SOL    HW236546   4.830   6.083   3.453  0.3204  0.2396 -0.9751
11699SOL     OW36547   1.870   8.166   8.502  0.4112 -0.2440 -0.0281
11699SOL    HW136548   1.961   8.165   8.530  0.7045  0.1660 -0.9360
11699SOL    HW236549   1.868   8.114   8.422 -0.2982 -0.8650  0.3806
11700SOL     OW36550   2.817   2.363   6.355 -0.3448 -0.2027  0.1500
11700SOL    HW136551   2.883   2.418   6.396  0.6567 -0.9279 -0.4578
11700SOL    HW236552   2.797   2.408   6.273 -1.5316  0.6572  0.8720
11701SOL     OW36553   5.365   8.842   6.851 -0.6679  0.1205  0.1229
11701SOL    HW136554   5.422   8.828   6.776  0.3247  0.9580  0.6961
11701SOL    HW236555   5.294   8.897   6.818  0.0693  0.9681 -0.0778
11702SOL     OW36556   0.590   2.146   3.103  0.1966 -0.0766  0.4470
11702SOL    HW136557   0.682   2.131   3.079  0.0891  0.1238 -0.1109
11702SOL    HW236558   0.586   2.127   3.197  1.2078  1.6273  0.8861
11703SOL     OW36559   3.150   8.080   8.597  0.3572 -0.5927 -0.6069
11703SOL    HW136560   3.190   7.993   8.602  1.9463 -0.1750 -3.5265
11703SOL    HW236561   3.207   8.129   8.538 -1.3980  1.9367 -0.3532
11704SOL     OW36562   5.108   8.674   3.623 -0.4322 -0.3702  0.0451
11704SOL    HW136563   5.143   8.600   3.672 -1.4306 -1.5920 -1.0348
11704SOL    HW236564   5.035   8.706   3.677  0.6186  0.5025  1.0002
11705SOL     OW36565   5.951   5.887   3.900 -0.0652  0.3677 -0.4557
11705SOL    HW136566   5.984   5.964   3.946  0.0575  0.2768 -0.3917
11705SOL    HW236567   5.920   5.921   3.816  1.4844  0.2501 -1.0953
11706SOL     OW36568   8.758   0.203   6.416 -0.6766 -0.2541  0.0040
11706SOL    HW136569   8.812   0.211   6.338 -0.0644 -0.4411  0.4013
11706SOL    HW236570   8.719   0.289   6.427 -0.3966 -0.0931 -0.2417
11707SOL     OW36571   5.906   6.632   1.193 -0.1255 -0.2312 -0.3889
11707SOL    HW136572   5.956   6.603   1.269 -0.9713  0.2350  0.3631
11707SOL    HW236573   5.856   6.555   1.166 -0.4906 -0.1623  0.0786
11708SOL     OW36574   0.592   6.851   5.001  0.2086 -0.2205 -0.0493
11708SOL    HW136575   0.608   6.938   4.965 -0.4394  0.1845  0.6328
11708SOL    HW236576   0.655   6.843   5.073 -0.2700 -0.0032  0.3946
11709SOL     OW36577   7.434   6.738   8.847  0.8725  0.2894  0.1512
11709SOL    HW136578   7.412   6.784   8.766  1.8499 -0.0060 -0.3020
11709SOL    HW236579   7.358   6.750   8.903  0.4649  1.0960 -0.5507
11710SOL     OW36580   7.387   6.297   2.802  0.7297  0.1675 -0.4761
11710SOL    HW136581   7.460   6.291   2.740  0.3909 -0.2554 -0.8487
11710SOL    HW236582   7.309   6.303   2.746  0.5255  1.4514 -0.0883
11711SOL     OW36583   7.200   1.451   7.631 -0.0522 -0.4696 -0.3469
11711SOL    HW136584   7.278   1.490   7.592  0.0354 -0.8667 -0.5712
11711SOL    HW236585   7.159   1.523   7.679  0.6816 -0.3574  0.1288
11712SOL     OW36586   1.322   7.841   4.841 -0.1851 -0.1153 -0.0594
11712SOL    HW136587   1.406   7.886   4.830  0.1494 -1.0605 -1.6916
11712SOL    HW236588   1.345   7.749   4.856 -0.9192 -0.2188  0.5353
11713SOL     OW36589   4.632   8.855   4.032  0.5580 -0.1984 -0.1865
11713SOL    HW136590   4.621   8.878   4.124  2.1614 -1.5988  0.3924
11713SOL    HW236591   4.687   8.925   3.996  0.4819 -0.0012  0.0829
11714SOL     OW36592   7.798   4.336   5.374 -0.0867  0.7401  0.4816
11714SOL    HW136593   7.871   4.319   5.433  0.3652  0.2164 -0.2124
11714SOL    HW236594   7.722   4.346   5.432  0.4840  1.0531  1.1921
11715SOL     OW36595   0.221   6.440   5.927  0.0421  0.0869 -0.1464
11715SOL    HW136596   0.181   6.450   6.013 -0.1582  0.9544 -0.3315
11715SOL    HW236597   0.171   6.499   5.870  1.1904  0.7488 -0.5068
11716SOL     OW36598   6.097   6.216   0.227  0.1572 -0.1410 -0.2340
11716SOL    HW136599   6.087   6.129   0.188  0.2879 -1.0340  1.6195
11716SOL    HW236600   6.191   6.233   0.224  0.3745 -0.9478  1.1201
11717SOL     OW36601   3.519   1.466   1.435  0.2927 -0.3727  0.7127
11717SOL    HW136602   3.526   1.371   1.434  0.9723 -0.3318 -1.0414
11717SOL    HW236603   3.601   1.497   1.398  0.4262  0.9541  2.0061
11718SOL     OW36604   6.864   7.250   3.349 -0.1080  0.4268  0.6079
11718SOL    HW136605   6.870   7.268   3.255 -2.3073 -0.4506  0.2498
11718SOL    HW236606   6.867   7.154   3.355 -1.2490  0.4204  1.3047
11719SOL     OW36607   7.998   1.087   3.961 -0.1447 -0.4914 -0.6053
11719SOL    HW136608   8.008   0.992   3.949  1.9626 -0.3636 -0.1918
11719SOL    HW236609   7.982   1.097   4.055  2.7054 -0.3025 -0.0662
11720SOL     OW36610   1.364   8.429   2.336  0.2820  0.0255  0.3716
11720SOL    HW136611   1.301   8.444   2.406 -1.6055  0.1507 -1.2772
11720SOL    HW236612   1.386   8.517   2.304  0.1543 -0.0817 -0.0177
11721SOL     OW36613   0.506   6.817   3.259 -0.7195 -0.6051 -0.2361
11721SOL    HW136614   0.525   6.866   3.339 -1.1396  1.5269 -1.3677
11721SOL    HW236615   0.469   6.734   3.290 -0.2901 -0.1051  1.7659
11722SOL     OW36616   0.694   6.007   6.217 -0.6159  0.1691  0.0290
11722SOL    HW136617   0.655   6.091   6.195 -1.0200  0.5889  2.1285
11722SOL    HW236618   0.723   6.017   6.308 -3.1658 -2.7895  1.3638
11723SOL     OW36619   8.109   1.659   1.602 -0.1420  0.1532  0.3307
11723SOL    HW136620   8.202   1.636   1.598 -0.3220 -0.4292 -1.9514
11723SOL    HW236621   8.068   1.584   1.646 -0.1879 -2.4355 -3.6419
11724SOL     OW36622   7.562   6.886   4.006  0.0644 -0.9412  0.2132
11724SOL    HW136623   7.493   6.939   4.044  2.1922  1.1144  1.4855
11724SOL    HW236624   7.602   6.942   3.939  1.4314 -1.4737  0.5456
11725SOL     OW36625   8.791   0.577   2.403  0.1210  0.1951 -0.3881
11725SOL    HW136626   8.782   0.672   2.409 -0.9862  0.1757 -1.5252
11725SOL    HW236627   8.702   0.545   2.389  0.6776 -0.8907 -1.5904
11726SOL     OW36628   2.574   2.137   3.746  0.2812  0.2492  0.7298
11726SOL    HW136629   2.539   2.223   3.769 -0.4120  0.2966 -0.4205
11726SOL    HW236630   2.622   2.152   3.665 -1.2411 -0.7097 -0.4040
11727SOL     OW36631   4.716   6.939   4.298 -0.4507  0.0277  0.1031
11727SOL    HW136632   4.709   6.847   4.273  1.0573 -0.4550  1.3113
11727SOL    HW236633   4.809   6.954   4.309 -0.6142  1.9192 -0.7497
11728SOL     OW36634   1.647   0.921   7.926 -0.5220  0.1813 -0.0675
11728SOL    HW136635   1.639   0.865   8.003  0.1023 -0.9813 -0.8080
11728SOL    HW236636   1.733   0.900   7.889 -0.4058  1.4100 -0.5634
11729SOL     OW36637   3.364   5.477   9.065 -0.1086 -0.5289  0.4459
11729SOL    HW136638   3.275   5.506   9.084 -0.1803  0.8862 -1.7157
11729SOL    HW236639   3.389   5.525   8.985  2.1062 -1.8656  0.2412
11730SOL     OW36640   6.919   3.453   0.289  1.1578  0.6433 -0.5178
11730SOL    HW136641   6.962   3.511   0.225 -0.7914  1.1219 -1.4702
11730SOL    HW236642   6.936   3.365   0.256  0.7396  0.8594 -1.3474
11731SOL     OW36643   4.471   0.359   5.270  0.0875  0.1892  0.8387
11731SOL    HW136644   4.469   0.327   5.361  0.5730  1.9278  1.4993
11731SOL    HW236645   4.560   0.392   5.259  0.5752 -1.5238 -0.8680
11732SOL     OW36646   4.437   6.719   7.907 -0.1936  0.5859 -0.9352
11732SOL    HW136647   4.385   6.643   7.934  0.5259  0.8025  1.2083
11732SOL    HW236648   4.419   6.785   7.973  2.3848  0.8375 -0.3798
11733SOL     OW36649   6.186   8.605   4.516  0.1948 -0.4779  0.7225
11733SOL    HW136650   6.189   8.553   4.436  0.1678  0.4106  0.1374
11733SOL    HW236651   6.276   8.605   4.548  0.5014  0.3772 -0.1050
11734SOL     OW36652   5.452   2.392   1.421 -0.4253  0.2622 -0.7151
11734SOL    HW136653   5.361   2.367   1.435 -0.5999  1.3727  0.2765
11734SOL    HW236654   5.458   2.414   1.328 -1.4045  1.1091 -0.5840
11735SOL     OW36655   1.135   1.721   4.544  0.0518  0.4268  0.4057
11735SOL    HW136656   1.205   1.691   4.602  1.7466 -2.4442 -2.7356
11735SOL    HW236657   1.181   1.748   4.464 -2.3121 -1.7063 -1.8561
11736SOL     OW36658   4.793   4.544   6.940 -0.6487 -0.4240 -0.1306
11736SOL    HW136659   4.867   4.602   6.924 -0.1501 -1.1083 -0.3390
11736SOL    HW236660   4.769   4.512   6.853 -1.1619 -0.2424 -0.0594
11737SOL     OW36661   4.707   1.188   0.952  0.0789  0.0356  0.6863
11737SOL    HW136662   4.659   1.119   0.998  0.4416 -0.9021 -0.2940
11737SOL    HW236663   4.771   1.220   1.016  1.6663 -2.3508  0.4174
11738SOL     OW36664   4.578   3.670   1.512 -0.1370 -0.0527  0.4036
11738SOL    HW136665   4.489   3.639   1.529 -0.4195  0.9962  0.9079
11738SOL    HW236666   4.602   3.627   1.430 -0.5490 -1.4791  1.0090
11739SOL     OW36667   5.030   6.605   7.008 -0.1482 -0.0669 -0.2478
11739SOL    HW136668   4.997   6.607   6.918 -0.4373  0.8019 -0.1345
11739SOL    HW236669   5.119   6.641   7.001 -0.6540  1.2919 -0.0140
11740SOL     OW36670   2.066   0.162   8.860  0.0595 -0.6981 -0.3661
11740SOL    HW136671   2.121   0.211   8.922  1.2298 -0.5734 -1.4527
11740SOL    HW236672   2.129   0.114   8.806 -0.9671 -1.2859 -1.0633
11741SOL     OW36673   4.026   2.633   8.287  0.5427 -0.4030  0.1174
11741SOL    HW136674   4.110   2.664   8.321  0.3168 -0.6143  0.8891
11741SOL    HW236675   3.968   2.709   8.292  0.8033 -0.1205 -0.8689
11742SOL     OW36676   0.773   1.249   8.457 -0.0162 -0.3560 -0.0042
11742SOL    HW136677   0.851   1.269   8.507 -0.7799 -0.5664  1.3334
11742SOL    HW236678   0.780   1.155   8.438  0.0622 -0.3692  0.0927
11743SOL     OW36679   3.812   5.775   7.970  0.3493 -0.3403  0.6883
11743SOL    HW136680   3.779   5.857   7.931  2.0509 -0.3600 -0.9421
11743SOL    HW236681   3.736   5.716   7.968  0.1620 -0.1429 -2.2049
11744SOL     OW36682   8.712   4.246   3.035  0.3959  0.2156 -0.5861
11744SOL    HW136683   8.779   4.228   2.969 -1.3616  1.7611 -2.9460
11744SOL    HW236684   8.670   4.161   3.049  1.3892 -0.3173 -0.7348
11745SOL     OW36685   2.051   0.862   0.112  0.1611  0.0147  0.0817
11745SOL    HW136686   2.015   0.947   0.086 -0.1565 -0.3219 -0.5944
11745SOL    HW236687   2.142   0.864   0.081 -0.2962 -0.4954 -1.3340
11746SOL     OW36688   7.114   3.394   7.071 -0.2586  0.4141  0.2808
11746SOL    HW136689   7.022   3.386   7.048 -0.2097  1.0425 -0.1718
11746SOL    HW236690   7.127   3.330   7.141 -0.6583 -0.8161 -0.7335
11747SOL     OW36691   2.195   3.499   7.715 -0.3854 -0.0905 -0.7665
11747SOL    HW136692   2.131   3.430   7.696 -0.0964 -0.6032  0.0882
11747SOL    HW236693   2.142   3.579   7.723 -1.0491 -0.6664  0.8599
11748SOL     OW36694   2.576   0.737   6.458 -0.1889 -0.2368 -0.0199
11748SOL    HW136695   2.593   0.767   6.548 -3.6712 -0.0205  0.7017
11748SOL    HW236696   2.529   0.654   6.469  1.6145 -1.5932 -1.8007
11749SOL     OW36697   4.191   8.511   0.638 -0.1578  0.4534  0.3511
11749SOL    HW136698   4.168   8.426   0.675  0.8399 -0.3631 -0.8109
11749SOL    HW236699   4.281   8.500   0.608  0.6023  2.4666  1.6860
11750SOL     OW36700   9.047   8.229   7.391 -0.4745 -0.1032 -0.2423
11750SOL    HW136701   9.063   8.184   7.474 -0.2117 -0.0218 -0.2453
11750SOL    HW236702   9.032   8.159   7.328  1.9861 -0.3368 -0.6905
11751SOL     OW36703   3.964   1.984   6.760 -0.1510  0.5361 -0.5852
11751SOL    HW136704   3.908   2.014   6.832 -0.0786  0.7898 -0.6339
11751SOL    HW236705   3.907   1.929   6.707 -0.5215  1.2850 -0.9676
11752SOL     OW36706   3.625   0.486   1.849 -0.2137 -0.3410  0.4871
11752SOL    HW136707   3.573   0.411   1.876 -1.1066 -0.2583 -0.9022
11752SOL    HW236708   3.583   0.517   1.769  0.5910  1.1741  0.6107
11753SOL     OW36709   6.478   5.532   0.716 -0.3582 -0.3304 -0.4447
11753SOL    HW136710   6.406   5.556   0.774  1.0952  1.5591  0.6994
11753SOL    HW236711   6.449   5.558   0.629 -2.2497 -2.4613 -0.5261
11754SOL     OW36712   0.802   9.068   6.604  0.1354  0.2591 -0.1240
11754SOL    HW136713   0.880   9.016   6.622  0.2548  0.6691  0.5970
11754SOL    HW236714   0.834   9.144   6.556 -0.2927 -1.2466 -2.9832
11755SOL     OW36715   7.112   4.406   8.799  0.1849  0.5272 -0.6384
11755SOL    HW136716   7.051   4.405   8.725  0.8364  1.6178 -1.2218
11755SOL    HW236717   7.127   4.499   8.816 -0.3155  0.3014  1.1946
11756SOL     OW36718   7.426   7.852   0.806 -0.0246 -0.3490 -0.0209
11756SOL    HW136719   7.382   7.786   0.752  1.2883 -0.5230 -0.9372
11756SOL    HW236720   7.460   7.803   0.881 -0.7644 -0.3446  0.3188
11757SOL     OW36721   7.130   9.189   5.213 -0.1163  0.3208 -0.1033
11757SOL    HW136722   7.113   9.281   5.194  1.6096  0.3544 -1.8122
11757SOL    HW236723   7.055   9.143   5.176 -0.9299  1.0119  0.6538
11758SOL     OW36724   6.088   4.804   8.858 -0.3497  0.1340 -0.3264
11758SOL    HW136725   6.042   4.746   8.797 -0.1661  0.4544 -0.7728
11758SOL    HW236726   6.062   4.773   8.945  0.5035 -1.2616 -0.5294
11759SOL     OW36727   7.825   0.417   5.001 -0.1314  0.6201  0.1559
11759SOL    HW136728   7.792   0.507   4.996  0.7910  0.9846  0.4507
11759SOL    HW236729   7.783   0.372   4.927 -0.5702  1.3017 -0.0165
11760SOL     OW36730   1.520   1.649   2.648  0.0503 -0.0031  0.2334
11760SOL    HW136731   1.487   1.609   2.568  1.4001 -1.6845  0.4644
11760SOL    HW236732   1.457   1.623   2.716 -0.5283  0.5553 -0.0770
11761SOL     OW36733   2.410   6.953   1.721  0.1151 -0.0635 -0.7529
11761SOL    HW136734   2.338   6.895   1.743 -0.7678  0.6466 -1.6591
11761SOL    HW236735   2.444   6.983   1.805 -1.1731  0.2238 -0.3161
11762SOL     OW36736   9.138   4.292   6.439  1.0819  0.0845 -0.5932
11762SOL    HW136737   9.156   4.288   6.345  0.6908  0.6988 -0.6944
11762SOL    HW236738   9.206   4.350   6.474  1.3793 -0.3419 -0.4532
11763SOL     OW36739   8.671   4.132   1.619  0.0811 -0.0701 -0.1623
11763SOL    HW136740   8.737   4.092   1.677 -0.9165 -2.5494 -0.6106
11763SOL    HW236741   8.706   4.119   1.531 -0.2336  0.1232 -0.3156
11764SOL     OW36742   3.922   7.343   8.113  0.1401  0.4486 -0.1450
11764SOL    HW136743   4.002   7.338   8.060 -1.3510 -1.8817 -2.4426
11764SOL    HW236744   3.864   7.400   8.063 -0.1963  0.8708  0.7058
11765SOL     OW36745   9.169   7.796   5.143  0.3781 -0.2305  0.0017
11765SOL    HW136746   9.255   7.833   5.158 -0.3250  1.1909  0.7022
11765SOL    HW236747   9.111   7.845   5.201 -0.9402 -1.0352 -0.5806
11766SOL     OW36748   3.989   4.464   8.207  0.3265 -0.2819  0.6719
11766SOL    HW136749   3.919   4.519   8.173  0.3617 -0.2269  0.6867
11766SOL    HW236750   4.009   4.403   8.136  0.3448 -0.2201  0.6233
11767SOL     OW36751   5.940   4.553   0.788  0.0071 -0.0622  0.6390
11767SOL    HW136752   5.932   4.458   0.783 -2.3681  0.1163 -0.1205
11767SOL    HW236753   6.033   4.570   0.775  0.3358 -2.2336 -0.2508
11768SOL     OW36754   5.345   6.329   4.579  0.1015  0.2754 -0.1975
11768SOL    HW136755   5.295   6.395   4.628  0.4028 -0.0405  0.5561
11768SOL    HW236756   5.351   6.254   4.639 -2.1731 -1.3683 -1.8283
11769SOL     OW36757   8.518   3.349   8.721 -0.1042 -0.0789  0.1018
11769SOL    HW136758   8.595   3.343   8.779 -0.1175 -0.0190  0.1252
11769SOL    HW236759   8.530   3.432   8.674  0.2995 -0.4922 -0.5411
11770SOL     OW36760   0.278   6.411   4.388  0.1922 -0.3067  0.3406
11770SOL    HW136761   0.334   6.345   4.348  0.4940 -0.2218  0.6243
11770SOL    HW236762   0.240   6.368   4.464  0.5761 -0.0757  0.6614
11771SOL     OW36763   1.394   8.907   6.362  0.2585  0.6085 -0.8838
11771SOL    HW136764   1.455   8.960   6.309  2.3761  0.4856  1.2720
11771SOL    HW236765   1.341   8.971   6.409  0.1624  0.7462 -1.1764
11772SOL     OW36766   3.781   9.095   1.050  0.7471  0.8022  0.6180
11772SOL    HW136767   3.858   9.060   1.096  0.9491  2.8741  1.9685
11772SOL    HW236768   3.809   9.180   1.017 -0.8835  1.4961  0.9153
11773SOL     OW36769   3.272   1.089   1.204  0.2235 -0.0402 -0.6563
11773SOL    HW136770   3.264   0.995   1.186 -1.9210 -0.0944  0.3247
11773SOL    HW236771   3.317   1.094   1.288  1.2318 -0.1327 -1.1778
11774SOL     OW36772   3.221   8.061   0.849  0.4583  0.1996  0.2449
11774SOL    HW136773   3.306   8.023   0.872  0.7206 -0.2798 -1.4074
11774SOL    HW236774   3.237   8.108   0.767 -1.0287 -0.5083 -0.4850
11775SOL     OW36775   6.419   1.593   4.497 -0.0917 -0.0498  0.3690
11775SOL    HW136776   6.448   1.606   4.407 -0.4754 -0.7238  0.1454
11775SOL    HW236777   6.411   1.681   4.533  1.9295  0.1808  0.3463
11776SOL     OW36778   2.037   6.770   0.731 -0.1787 -0.3132  0.2776
11776SOL    HW136779   2.060   6.773   0.638 -1.2321  0.4392  0.0233
11776SOL    HW236780   2.116   6.799   0.776 -0.3003  1.4095 -0.5286
11777SOL     OW36781   8.866   6.227   0.572 -0.1986  0.6548 -0.6015
11777SOL    HW136782   8.906   6.300   0.524  1.8053 -0.0003 -0.0248
11777SOL    HW236783   8.913   6.225   0.655 -1.2066 -0.4317 -0.0339
11778SOL     OW36784   5.697   1.061   6.146 -0.0560  0.1648  0.0683
11778SOL    HW136785   5.713   0.968   6.164  1.6412  0.8517  2.6455
11778SOL    HW236786   5.739   1.076   6.061 -0.6115 -1.4457 -0.5284
11779SOL     OW36787   4.457   8.015   0.873  0.1478  0.1776 -0.2002
11779SOL    HW136788   4.424   7.946   0.815  1.8926 -1.3447  0.5104
11779SOL    HW236789   4.435   7.986   0.961 -0.7404  1.5040  0.0524
11780SOL     OW36790   3.598   5.196   4.955  0.4853 -0.1013 -0.1867
11780SOL    HW136791   3.516   5.206   5.004  1.0716  1.0196  0.5793
11780SOL    HW236792   3.573   5.141   4.881 -1.0301  0.4214 -0.1157
11781SOL     OW36793   2.244   2.230   3.060 -0.4410  0.1830  0.0158
11781SOL    HW136794   2.266   2.316   3.095  0.4179  0.5930 -1.4661
11781SOL    HW236795   2.153   2.238   3.032 -0.5427  0.4248  0.4121
11782SOL     OW36796   8.255   7.086   8.129  0.7963 -0.0901  0.2853
11782SOL    HW136797   8.289   7.082   8.218 -1.3443 -1.7124  1.1170
11782SOL    HW236798   8.333   7.078   8.073  2.0532 -0.4236  2.0028
11783SOL     OW36799   7.829   4.627   2.074 -0.0162 -0.0271 -0.3442
11783SOL    HW136800   7.749   4.581   2.100 -0.0816  0.5618  0.5571
11783SOL    HW236801   7.802   4.717   2.059  0.2552 -0.0941 -1.3201
11784SOL     OW36802   5.073   1.949   0.393  0.2862  0.5033 -0.3522
11784SOL    HW136803   5.033   1.961   0.480 -0.5142  0.7140 -0.7440
11784SOL    HW236804   4.999   1.950   0.332  0.5816 -2.0789 -0.8473
11785SOL     OW36805   4.770   1.154   6.916  0.0621 -0.2198  0.0250
11785SOL    HW136806   4.864   1.155   6.900  0.0351 -0.9749 -0.2492
11785SOL    HW236807   4.762   1.151   7.012  0.3221 -0.3546  0.0441
11786SOL     OW36808   2.873   3.687   8.630  0.1329  0.5062  0.3275
11786SOL    HW136809   2.816   3.719   8.700  0.0153 -1.0884  1.0143
11786SOL    HW236810   2.816   3.683   8.553 -1.0419 -1.8688  1.1920
11787SOL     OW36811   5.939   0.679   2.136  0.0551 -0.1331  0.0574
11787SOL    HW136812   5.845   0.693   2.128 -0.1940 -0.9622  1.2578
11787SOL    HW236813   5.974   0.767   2.155 -0.6515 -0.0053  0.8901
11788SOL     OW36814   6.203   7.449   6.437  0.3914 -0.5007 -0.4040
11788SOL    HW136815   6.216   7.478   6.527 -0.0527 -3.1882  0.6300
11788SOL    HW236816   6.115   7.481   6.415  0.7092  0.6280 -0.1053
11789SOL     OW36817   3.718   2.481   6.132  0.4517  0.1452  0.0738
11789SOL    HW136818   3.736   2.525   6.215  1.9824 -0.1612 -0.0731
11789SOL    HW236819   3.661   2.542   6.084  1.9063  1.6470  0.1834
11790SOL     OW36820   1.741   3.762   5.332  0.6664 -0.2674 -0.2092
11790SOL    HW136821   1.722   3.855   5.341 -0.6627 -0.3999 -1.3458
11790SOL    HW236822   1.835   3.758   5.314  0.5803  0.9124 -0.9887
11791SOL     OW36823   5.216   0.746   7.588  0.2554  0.4664  0.0810
11791SOL    HW136824   5.183   0.819   7.535 -0.4236  0.4188  0.4230
11791SOL    HW236825   5.241   0.787   7.671  2.5271  0.7593 -0.6674
11792SOL     OW36826   7.297   8.550   3.183 -0.2564 -0.2835 -0.6329
11792SOL    HW136827   7.340   8.496   3.249 -1.9040  0.0172  0.7810
11792SOL    HW236828   7.279   8.490   3.111 -1.7373 -1.6071  0.7621
11793SOL     OW36829   8.036   6.631   2.270 -0.0513 -0.4206 -0.3320
11793SOL    HW136830   8.064   6.579   2.195 -0.0849 -0.0043 -0.6397
11793SOL    HW236831   8.079   6.716   2.258 -0.3287 -0.2378 -0.0626
11794SOL     OW36832   8.051   5.197   1.926  0.3489 -0.2615 -0.1208
11794SOL    HW136833   8.013   5.115   1.960 -0.2328  0.4692  1.0674
11794SOL    HW236834   8.139   5.199   1.963  0.2982 -0.2583 -0.0010
11795SOL     OW36835   3.971   2.370   4.249 -0.2079 -0.3197 -0.0909
11795SOL    HW136836   3.915   2.387   4.325 -1.5693  1.1596 -1.3650
11795SOL    HW236837   4.032   2.443   4.247 -0.5954 -0.0086 -0.7696
11796SOL     OW36838   3.710   1.918   4.857  0.7891 -0.3276  0.3746
11796SOL    HW136839   3.680   1.831   4.882  0.6102 -0.1493  0.7984
11796SOL    HW236840   3.713   1.967   4.940 -1.9715  0.9475 -0.1784
11797SOL     OW36841   2.024   5.866   2.850 -0.0110 -0.1799  0.0317
11797SOL    HW136842   2.059   5.908   2.772 -1.4529 -0.6636 -0.9356
11797SOL    HW236843   1.961   5.802   2.816 -2.0953  0.9037  1.6356
11798SOL     OW36844   8.980   8.097   2.156 -0.5584  0.5099  0.7462
11798SOL    HW136845   9.061   8.091   2.105 -1.1186 -0.3460 -0.0713
11798SOL    HW236846   9.006   8.144   2.236  0.3903  1.6948 -0.2079
11799SOL     OW36847   4.216   6.185   2.619  0.3254  0.0090 -0.4354
11799SOL    HW136848   4.133   6.229   2.639  0.0529  0.2166 -1.8893
11799SOL    HW236849   4.196   6.092   2.630  0.0041  0.0779 -0.4032
11800SOL     OW36850   4.358   7.647   2.758  0.4111 -0.2601 -0.1866
11800SOL    HW136851   4.406   7.660   2.676 -0.0227 -1.5195 -0.6641
11800SOL    HW236852   4.419   7.600   2.815  0.2531 -0.5747 -0.2745
11801SOL     OW36853   6.585   4.296   3.086 -0.2260 -0.0009  0.6646
11801SOL    HW136854   6.512   4.329   3.033  0.7381  1.4566  0.1560
11801SOL    HW236855   6.645   4.258   3.022  0.4847  0.8680  0.7884
11802SOL     OW36856   8.281   3.540   8.954 -0.2477 -0.1945  0.6026
11802SOL    HW136857   8.299   3.613   8.895 -0.4731  0.5315  1.4160
11802SOL    HW236858   8.312   3.463   8.906  0.0881  0.4371 -0.2276
11803SOL     OW36859   4.845   0.964   8.367 -0.4824 -0.3378 -0.4385
11803SOL    HW136860   4.803   1.050   8.372 -2.3771 -1.2856  2.4616
11803SOL    HW236861   4.938   0.982   8.381 -0.5631  1.3668 -1.7553
11804SOL     OW36862   2.085   0.515   5.064 -0.1506  0.2506  0.0450
11804SOL    HW136863   2.122   0.501   4.977 -0.2512 -0.8188  0.1532
11804SOL    HW236864   2.104   0.434   5.111 -0.1512  0.7883  1.0042
11805SOL     OW36865   6.106   5.340   6.410  0.5231 -0.6689 -0.5327
11805SOL    HW136866   6.171   5.381   6.467 -0.5113  1.6200 -0.8823
11805SOL    HW236867   6.140   5.251   6.395  1.8393 -0.6763  1.9406
11806SOL     OW36868   3.460   2.091   7.148  0.1015 -0.0502  0.3141
11806SOL    HW136869   3.500   2.008   7.175  0.3620  0.1913  0.6856
11806SOL    HW236870   3.535   2.149   7.130 -0.0174  1.0597  2.9994
11807SOL     OW36871   0.100   6.867   7.557  0.2003  0.2012  0.0207
11807SOL    HW136872   0.185   6.827   7.538 -0.1188 -0.0468 -0.9405
11807SOL    HW236873   0.036   6.798   7.541 -0.2544  0.6709 -0.2422
11808SOL     OW36874   8.977   1.919   0.700 -0.6134 -0.3739 -0.3284
11808SOL    HW136875   8.910   1.986   0.711 -1.2553 -1.1086  0.4464
11808SOL    HW236876   9.049   1.948   0.756 -1.1290 -0.6168  0.4813
11809SOL     OW36877   2.751   3.090   8.893 -0.0442  0.1759  0.2246
11809SOL    HW136878   2.845   3.107   8.888  0.0107 -0.0317  0.5271
11809SOL    HW236879   2.717   3.161   8.947  0.1187 -0.4205  1.1155
11810SOL     OW36880   5.443   1.461   6.977 -0.3376 -0.1821  0.5748
11810SOL    HW136881   5.387   1.493   6.906 -0.3890 -0.9610  0.2547
11810SOL    HW236882   5.406   1.500   7.056 -0.1109  0.9277  0.1578
11811SOL     OW36883   5.537   7.949   7.247 -0.2537  0.3176  0.1994
11811SOL    HW136884   5.594   8.025   7.232  0.3666 -0.4542 -1.6191
11811SOL    HW236885   5.480   7.947   7.170 -0.8161 -0.5671  0.6339
11812SOL     OW36886   8.785   0.697   8.011  0.0052 -0.2447  0.0248
11812SOL    HW136887   8.702   0.708   7.963  0.9417  0.4827 -1.5069
11812SOL    HW236888   8.758   0.683   8.102 -1.7913  0.4205 -0.3546
11813SOL     OW36889   3.141   5.045   2.250 -0.0776 -0.0511 -0.1114
11813SOL    HW136890   3.231   5.020   2.270  0.0127  0.2665 -0.1139
11813SOL    HW236891   3.133   5.031   2.156  0.2366  0.7302 -0.2643
11814SOL     OW36892   1.403   0.885   6.281  0.3018 -0.5247 -0.4038
11814SOL    HW136893   1.448   0.806   6.251 -1.3862 -1.4144 -0.7608
11814SOL    HW236894   1.471   0.939   6.321  1.4411 -2.3671  0.2651
11815SOL     OW36895   2.289   5.843   4.852 -0.1198  0.5188  0.6814
11815SOL    HW136896   2.308   5.860   4.760 -0.0602 -2.1970  0.1052
11815SOL    HW236897   2.373   5.854   4.897  0.4427 -0.6659 -0.0450
11816SOL     OW36898   4.129   1.324   2.246  0.5391  0.4095 -0.1094
11816SOL    HW136899   4.126   1.340   2.151  1.1822  0.4699 -0.1184
11816SOL    HW236900   4.181   1.396   2.281 -1.3372  1.5187  0.5513
11817SOL     OW36901   8.304   7.316   1.337 -0.1419  0.2701  0.5229
11817SOL    HW136902   8.381   7.267   1.309 -1.3786 -2.4797  1.5684
11817SOL    HW236903   8.230   7.262   1.310 -1.5460  0.8163  2.9536
11818SOL     OW36904   2.732   5.917   5.400  1.0040 -0.0263 -0.3979
11818SOL    HW136905   2.694   5.997   5.435  0.2368 -0.2197 -0.7524
11818SOL    HW236906   2.672   5.892   5.329  0.0121 -2.0662  1.0688
11819SOL     OW36907   0.905   7.709   1.427 -0.2285  0.2873  0.3000
11819SOL    HW136908   0.892   7.617   1.401 -0.0636  0.2929  0.1967
11819SOL    HW236909   0.831   7.755   1.388  1.5411  0.8068 -2.7576
11820SOL     OW36910   2.415   6.209   2.916 -0.0154 -0.2808 -0.0788
11820SOL    HW136911   2.484   6.227   2.852  0.0850 -1.2331 -0.2585
11820SOL    HW236912   2.383   6.122   2.893  0.9575 -1.2505  1.9601
11821SOL     OW36913   3.634   4.880   4.400 -0.0234  0.0540 -0.2518
11821SOL    HW136914   3.636   4.916   4.311  0.4316 -0.7236 -0.5590
11821SOL    HW236915   3.580   4.942   4.449 -0.1471  0.5765 -1.0307
11822SOL     OW36916   4.041   2.562   9.068  0.3219  0.1892 -0.1190
11822SOL    HW136917   3.985   2.625   9.024  0.6931  2.3839  2.2882
11822SOL    HW236918   3.981   2.499   9.107 -0.2988  0.9707  0.1970
11823SOL     OW36919   8.677   7.145   1.699  0.0268  0.5060  0.2617
11823SOL    HW136920   8.740   7.139   1.771 -0.4778 -0.0736  0.6644
11823SOL    HW236921   8.703   7.075   1.639 -0.1836  0.3149  0.3915
11824SOL     OW36922   0.358   2.378   0.414 -0.4239 -0.4008  0.3833
11824SOL    HW136923   0.409   2.457   0.395 -1.2002  0.0291  0.0219
11824SOL    HW236924   0.375   2.319   0.340 -1.2965  0.1860 -0.3193
11825SOL     OW36925   1.411   7.142   7.299 -0.0615 -0.0193 -0.0136
11825SOL    HW136926   1.426   7.233   7.271  2.0519 -1.0324 -2.6388
11825SOL    HW236927   1.485   7.122   7.356 -0.3970 -0.1679  0.3714
11826SOL     OW36928   8.099   8.606   0.472 -0.6649  0.2098  0.1083
11826SOL    HW136929   8.118   8.696   0.445 -0.7403  0.2978  0.3440
11826SOL    HW236930   8.184   8.562   0.471 -0.7352  0.0738 -0.7584
11827SOL     OW36931   7.885   8.186   7.876  0.0212  0.0969  0.4323
11827SOL    HW136932   7.836   8.114   7.915 -0.1695 -1.0141 -1.7352
11827SOL    HW236933   7.976   8.170   7.903  0.0167 -1.1134 -0.1838
11828SOL     OW36934   3.624   1.083   6.455  0.1146  0.5076  0.4647
11828SOL    HW136935   3.714   1.107   6.432 -0.3292  0.5120 -1.4730
11828SOL    HW236936   3.607   1.129   6.537  1.1304  2.4058 -0.3189
11829SOL     OW36937   8.963   7.647   7.505 -1.0773  0.8011 -0.1413
11829SOL    HW136938   8.957   7.613   7.594  2.3179  0.3310  0.0279
11829SOL    HW236939   8.975   7.741   7.515 -0.2201  0.6846 -0.0800
11830SOL     OW36940   3.416   5.723   7.250 -0.0976  0.0160 -0.1367
11830SOL    HW136941   3.439   5.649   7.306  2.9089 -1.5023 -3.0481
11830SOL    HW236942   3.333   5.697   7.209 -1.0566  0.0831  1.6423
11831SOL     OW36943   5.011   1.619   4.673 -0.2216  0.4266  0.3958
11831SOL    HW136944   5.021   1.526   4.696 -1.5201 -0.1643 -1.2259
11831SOL    HW236945   5.090   1.639   4.623  0.1842  0.2796  0.9663
11832SOL     OW36946   4.484   4.466   3.326 -0.1685  0.1541 -0.0092
11832SOL    HW136947   4.544   4.391   3.323  0.9838  1.0598 -0.3224
11832SOL    HW236948   4.400   4.431   3.299  0.5551 -0.8474 -1.0574
11833SOL     OW36949   5.496   1.791   5.768  0.6312 -0.1678 -0.3887
11833SOL    HW136950   5.402   1.770   5.767  0.9695 -1.7984 -2.1095
11833SOL    HW236951   5.534   1.727   5.828  0.7326  0.1752 -0.0805
11834SOL     OW36952   2.450   5.176   8.226 -0.4025 -0.5080  0.1988
11834SOL    HW136953   2.463   5.232   8.303 -0.0257 -1.5164  0.8920
11834SOL    HW236954   2.469   5.233   8.152  3.0085 -0.4584  0.9391
11835SOL     OW36955   4.906   7.100   4.043 -0.2234  0.0037 -0.4860
11835SOL    HW136956   4.833   7.069   3.989  1.4712  2.1930 -4.4975
11835SOL    HW236957   4.963   7.024   4.053 -1.5073 -0.9297 -0.0449
11836SOL     OW36958   8.279   1.068   4.879 -0.2654  0.4787  0.0001
11836SOL    HW136959   8.198   1.099   4.920 -0.0351  0.2533  0.6473
11836SOL    HW236960   8.306   1.140   4.822  0.3073  1.5323  1.5355
11837SOL     OW36961   7.592   7.595   1.367  0.0281 -0.4164 -0.2915
11837SOL    HW136962   7.545   7.673   1.394  2.3102  0.5649  1.2212
11837SOL    HW236963   7.634   7.619   1.284 -0.5384 -0.5953 -0.6299
11838SOL     OW36964   3.162   6.630   2.712  0.2770  0.3977 -0.7273
11838SOL    HW136965   3.179   6.569   2.783 -0.7940 -0.7551 -1.4088
11838SOL    HW236966   3.244   6.677   2.699  0.6782  0.1618  0.8094
11839SOL     OW36967   5.524   8.886   3.720  0.4053  0.1032  0.2647
11839SOL    HW136968   5.617   8.894   3.702  0.4815  0.9770  1.0078
11839SOL    HW236969   5.482   8.906   3.636  0.8386  1.5488  0.3698
11840SOL     OW36970   4.216   0.627   4.225  0.1548 -0.7236 -0.1600
11840SOL    HW136971   4.247   0.549   4.270 -1.5095 -1.6167 -0.4860
11840SOL    HW236972   4.127   0.640   4.257 -0.5084 -0.4641 -1.9949
11841SOL     OW36973   2.124   6.141   7.511  0.0876  0.2970  0.4024
11841SOL    HW136974   2.204   6.179   7.548  1.1760 -1.8302  0.4515
11841SOL    HW236975   2.083   6.097   7.586  0.7413 -1.5245 -0.2478
11842SOL     OW36976   8.118   4.860   0.349  0.1499 -0.2157  0.4076
11842SOL    HW136977   8.144   4.920   0.419 -0.7037  0.2174  0.3693
11842SOL    HW236978   8.118   4.914   0.270 -1.7468  0.0662  0.5522
11843SOL     OW36979   1.996   3.230   6.278 -0.1304 -0.0649  0.0409
11843SOL    HW136980   1.978   3.322   6.297  1.3144  0.2621 -0.0829
11843SOL    HW236981   2.065   3.231   6.212 -1.1937 -1.2459 -1.1438
11844SOL     OW36982   6.305   6.566   8.060 -0.3346 -0.2395 -0.5530
11844SOL    HW136983   6.355   6.648   8.049  0.8741 -0.8145  0.3579
11844SOL    HW236984   6.217   6.587   8.030  0.5562  0.6976 -2.6572
11845SOL     OW36985   9.006   3.766   4.865  0.0409 -0.0466 -0.3985
11845SOL    HW136986   9.077   3.704   4.847 -0.6153 -0.9356  0.0126
11845SOL    HW236987   9.044   3.852   4.846  0.4033 -0.6711 -2.8454
11846SOL     OW36988   6.400   1.654   0.595 -0.6942  0.5069 -0.1334
11846SOL    HW136989   6.478   1.691   0.636 -0.3871 -1.1586  0.8968
11846SOL    HW236990   6.345   1.629   0.669 -1.0465 -0.7006 -0.7897
11847SOL     OW36991   5.677   8.440   7.279  0.0130  0.0180  0.3429
11847SOL    HW136992   5.730   8.506   7.322  0.2034 -0.8503  1.4770
11847SOL    HW236993   5.684   8.461   7.185  0.4950  1.2635  0.6443
11848SOL     OW36994   7.412   3.681   7.674  0.1093  0.4511 -0.2641
11848SOL    HW136995   7.345   3.629   7.630 -0.6501  1.0075  0.2060
11848SOL    HW236996   7.485   3.621   7.687 -1.1804 -0.8791  1.3149
11849SOL     OW36997   5.286   0.677   6.522  0.1706  0.3546  0.1288
11849SOL    HW136998   5.355   0.617   6.494 -0.2204 -0.6797  1.2916
11849SOL    HW236999   5.219   0.670   6.453  0.3041 -0.2462  0.0546
11850SOL     OW37000   5.357   4.195   6.152  0.5142 -0.5213 -0.1199
11850SOL    HW137001   5.351   4.289   6.165  0.7971 -0.5088 -0.0802
11850SOL    HW237002   5.451   4.176   6.152  0.4591 -0.8028 -0.1270
11851SOL     OW37003   9.189   8.800   6.471  0.1626  0.2654  0.2071
11851SOL    HW137004   9.165   8.863   6.539 -0.6154 -0.0103  0.2055
11851SOL    HW237005   9.283   8.789   6.480  0.0580  0.1665  1.2980
11852SOL     OW37006   1.032   6.089   4.869  0.8735 -0.2265  0.4885
11852SOL    HW137007   1.034   5.995   4.850 -0.0067  0.1196 -1.5166
11852SOL    HW237008   1.120   6.119   4.845  0.9686 -0.4417  0.5625
11853SOL     OW37009   2.487   2.777   6.753  0.3668  0.2232 -0.1654
11853SOL    HW137010   2.485   2.846   6.686  1.1023  1.2765  0.8607
11853SOL    HW237011   2.497   2.824   6.835  2.2667 -1.1504  0.4665
11854SOL     OW37012   6.438   2.433   1.303 -0.1518 -0.3767  0.4529
11854SOL    HW137013   6.383   2.410   1.378  1.4187  1.7551  2.3992
11854SOL    HW237014   6.389   2.500   1.256 -0.4229 -0.5152  0.5398
11855SOL     OW37015   7.347   9.193   5.375  0.4644  0.0960  0.1993
11855SOL    HW137016   7.358   9.288   5.365 -1.6645  0.3772  0.1322
11855SOL    HW237017   7.258   9.176   5.344  1.1676 -2.0931 -0.7821
11856SOL     OW37018   4.277   4.353   3.619 -0.5002  0.3492 -0.1334
11856SOL    HW137019   4.349   4.410   3.646 -1.5764  0.7460  2.1442
11856SOL    HW237020   4.233   4.329   3.701 -1.4204 -1.9967 -1.2066
11857SOL     OW37021   5.776   5.345   3.421  0.3015 -0.1135 -0.0525
11857SOL    HW137022   5.727   5.424   3.444 -0.0372 -0.0124 -1.0926
11857SOL    HW237023   5.865   5.375   3.405 -0.1794  0.3612 -2.1086
11858SOL     OW37024   6.813   3.654   1.548  0.1377 -0.0439 -0.2439
11858SOL    HW137025   6.757   3.725   1.577  2.1427  0.9670  1.3946
11858SOL    HW237026   6.900   3.693   1.540  1.1439 -2.0984 -0.1221
11859SOL     OW37027   3.109   4.266   3.901 -0.0601  0.3715 -0.3604
11859SOL    HW137028   3.182   4.207   3.919 -1.9190 -2.5988 -1.8522
11859SOL    HW237029   3.095   4.311   3.985  2.0036 -0.6204  0.6078
11860SOL     OW37030   9.256   4.102   0.152 -0.3361 -0.1886  0.1982
11860SOL    HW137031   9.182   4.044   0.167  0.1008 -0.4741  1.3770
11860SOL    HW237032   9.279   4.134   0.239  0.1640  0.8450 -0.2962
11861SOL     OW37033   1.109   4.835   5.023  0.0990  0.2191 -0.1223
11861SOL    HW137034   1.111   4.739   5.032 -0.2041  0.1593 -0.6808
11861SOL    HW237035   1.028   4.853   4.976 -0.7208  0.8836  1.4925
11862SOL     OW37036   4.786   5.185   6.048 -0.0546  0.1855  0.1596
11862SOL    HW137037   4.702   5.160   6.086  0.2613 -2.2288 -0.5917
11862SOL    HW237038   4.828   5.237   6.117 -1.6662  0.4732  0.9892
11863SOL     OW37039   5.537   8.595   1.882 -0.5250  0.2372 -0.3900
11863SOL    HW137040   5.587   8.543   1.819 -1.7093 -1.4322  0.0120
11863SOL    HW237041   5.473   8.642   1.828 -0.3261  0.2524 -0.6165
11864SOL     OW37042   8.488   3.648   0.681 -0.0423 -0.5554 -0.1506
11864SOL    HW137043   8.452   3.559   0.675 -1.4024  0.0163 -1.1719
11864SOL    HW237044   8.496   3.665   0.775  2.2518 -2.4918  0.0914
11865SOL     OW37045   7.566   6.662   2.481 -0.0215  0.4524  0.5622
11865SOL    HW137046   7.621   6.712   2.421  0.4165 -1.6647 -0.9397
11865SOL    HW237047   7.627   6.623   2.543  0.0476 -0.5473 -0.0928
11866SOL     OW37048   3.280   7.307   1.134 -0.3927 -0.6841 -0.0127
11866SOL    HW137049   3.191   7.333   1.110 -1.0364 -2.8730 -0.2394
11866SOL    HW237050   3.309   7.374   1.197 -1.5132  1.0193 -1.2142
11867SOL     OW37051   9.252   6.648   7.868 -0.7599 -0.0192  0.4829
11867SOL    HW137052   9.252   6.612   7.779  1.6243 -0.8521  0.7320
11867SOL    HW237053   9.160   6.648   7.894 -1.2299 -3.2990 -0.6297
11868SOL     OW37054   2.637   7.475   8.345 -0.0658  0.2095  0.2050
11868SOL    HW137055   2.675   7.388   8.354  1.8410  1.1492  2.5465
11868SOL    HW237056   2.608   7.498   8.433  0.3800  2.2869 -0.1182
11869SOL     OW37057   0.715   4.087   8.226 -0.1783 -0.0462  0.4116
11869SOL    HW137058   0.766   4.078   8.146 -1.7861  0.3713 -0.7127
11869SOL    HW237059   0.723   4.002   8.270 -0.8398 -0.9710 -1.1835
11870SOL     OW37060   7.442   0.788   4.211  0.3755  0.2830 -0.2246
11870SOL    HW137061   7.401   0.874   4.200 -1.1943 -0.5309 -0.9442
11870SOL    HW237062   7.434   0.770   4.304 -1.3704 -0.0631 -0.4185
11871SOL     OW37063   5.018   2.919   3.112  0.2081  0.2304  0.1096
11871SOL    HW137064   5.104   2.889   3.082  0.2618 -1.0096  1.4275
11871SOL    HW237065   5.029   3.014   3.122  1.4133  0.1030  0.2080
11872SOL     OW37066   0.961   0.436   0.553  0.2929 -0.3033 -0.2705
11872SOL    HW137067   1.046   0.468   0.523  0.7273 -0.4389  0.7598
11872SOL    HW237068   0.898   0.497   0.516  0.8565 -0.0515 -0.8433
11873SOL     OW37069   9.009   0.283   6.278  0.1038  0.0299  0.3484
11873SOL    HW137070   9.099   0.306   6.300  0.3662  0.5306 -1.1027
11873SOL    HW237071   8.973   0.362   6.239 -0.2573 -0.8028 -1.0840
11874SOL     OW37072   0.045   5.515   8.007  0.4835  0.2807  0.2066
11874SOL    HW137073  -0.021   5.452   8.035  0.1400  0.4068 -0.2972
11874SOL    HW237074   0.117   5.462   7.972  1.0058  0.1159  1.4880
11875SOL     OW37075   9.078   8.168   7.649  0.8089  0.1931 -0.2724
11875SOL    HW137076   9.143   8.191   7.715  0.1103  1.3987  0.0442
11875SOL    HW237077   8.994   8.186   7.691  0.2849 -0.8867 -0.8277
11876SOL     OW37078   5.159   1.769   8.153  0.6805  0.3105  0.2791
11876SOL    HW137079   5.193   1.850   8.190 -1.1142  0.0695  2.7272
11876SOL    HW237080   5.175   1.703   8.220 -1.4676 -0.4703  0.1126
11877SOL     OW37081   6.690   7.251   2.377 -0.7061 -0.1371  0.2880
11877SOL    HW137082   6.761   7.294   2.328 -0.1356  0.0776  1.2758
11877SOL    HW237083   6.729   7.171   2.411 -1.3838 -0.7752 -0.4141
11878SOL     OW37084   7.552   6.337   2.584  0.0099  0.3042 -0.1410
11878SOL    HW137085   7.600   6.400   2.638  0.9649 -0.5721  0.0807
11878SOL    HW237086   7.594   6.341   2.499 -1.7259  1.9406 -0.9969
11879SOL     OW37087   4.205   3.059   1.142 -0.1966 -0.0160 -0.0198
11879SOL    HW137088   4.182   3.020   1.058  1.1771 -0.6291 -0.1261
11879SOL    HW237089   4.129   3.114   1.164 -1.3185 -1.1745 -0.8221
11880SOL     OW37090   8.249   1.167   8.213 -0.2920  0.1568  0.3628
11880SOL    HW137091   8.193   1.219   8.155 -0.2280 -0.9139 -0.7106
11880SOL    HW237092   8.280   1.095   8.157  0.5243 -0.3943  1.4917
11881SOL     OW37093   9.246   0.639   7.457  0.0278 -0.7166 -0.0080
11881SOL    HW137094   9.285   0.617   7.542 -0.7721 -1.9478  0.0627
11881SOL    HW237095   9.298   0.714   7.426  0.4061 -0.3090  1.4987
11882SOL     OW37096   5.459   7.193   8.980 -0.2638  0.4726  0.0706
11882SOL    HW137097   5.508   7.269   8.950 -0.6040  0.2149 -1.1921
11882SOL    HW237098   5.523   7.140   9.028  0.1950  1.1017  0.1581
11883SOL     OW37099   3.547   6.629   6.199 -0.3527  0.2310  0.0490
11883SOL    HW137100   3.466   6.583   6.222 -0.8046  1.5839  1.3188
11883SOL    HW237101   3.616   6.564   6.212 -1.1603 -0.7469 -0.4151
11884SOL     OW37102   3.423   4.337   5.703 -0.2740  0.2039 -0.3033
11884SOL    HW137103   3.341   4.382   5.721  0.1977  1.0369 -0.1464
11884SOL    HW237104   3.466   4.391   5.637  0.3430  0.0275 -0.0573
11885SOL     OW37105   1.936   2.208   2.696  0.3397  0.3373 -0.0927
11885SOL    HW137106   1.859   2.174   2.649  0.3256  1.4412 -0.9131
11885SOL    HW237107   2.004   2.143   2.680  0.1853  0.4317 -1.2377
11886SOL     OW37108   8.827   7.541   9.089 -0.2621 -0.0224  0.1080
11886SOL    HW137109   8.745   7.511   9.129 -0.6222 -1.0323 -1.2893
11886SOL    HW237110   8.799   7.598   9.017  0.2895  0.2368  0.0981
11887SOL     OW37111   8.601   6.781   2.387 -0.0827  0.4402 -0.0931
11887SOL    HW137112   8.563   6.702   2.425 -1.2300  1.1347  0.2761
11887SOL    HW237113   8.612   6.761   2.294  0.8823 -0.5881  0.2194
11888SOL     OW37114   0.677   2.050   7.391 -0.4333 -0.1828  0.3172
11888SOL    HW137115   0.700   1.987   7.459  2.1850  0.6489  0.3059
11888SOL    HW237116   0.741   2.033   7.321  0.2618  2.3303  0.2590
11889SOL     OW37117   7.816   5.006   0.491  0.4267  0.1991 -0.3204
11889SOL    HW137118   7.797   5.080   0.433 -1.0410 -0.4179 -0.6722
11889SOL    HW237119   7.865   4.945   0.436 -1.2937 -0.5602 -1.1214
11890SOL     OW37120   1.887   8.409   4.474 -0.7452 -0.4820  0.4631
11890SOL    HW137121   1.970   8.452   4.496  0.4493 -1.4685 -1.8484
11890SOL    HW237122   1.907   8.316   4.477 -0.9454 -0.7292 -2.7433
11891SOL     OW37123   8.424   4.392   7.633 -0.4536 -0.1507  0.5309
11891SOL    HW137124   8.370   4.433   7.566 -0.9090  1.7950  2.0151
11891SOL    HW237125   8.388   4.304   7.643 -1.6587  0.2257 -0.3615
11892SOL     OW37126   4.710   6.183   3.842  1.0570 -0.3106 -0.9711
11892SOL    HW137127   4.694   6.113   3.906 -1.6011 -0.7379 -1.9638
11892SOL    HW237128   4.705   6.264   3.893 -1.3849 -0.6215 -0.5763
11893SOL     OW37129   4.590   0.374   8.540  0.4392 -0.2211 -0.6197
11893SOL    HW137130   4.533   0.315   8.589 -0.3142  0.5669 -0.5095
11893SOL    HW237131   4.530   0.425   8.485  0.8810  1.4274  0.3355
11894SOL     OW37132   1.143   9.076   7.198  0.0539  0.2449 -0.6320
11894SOL    HW137133   1.126   9.169   7.186  0.0109  0.1947 -0.9738
11894SOL    HW237134   1.056   9.036   7.199  0.0321  0.2834  0.2091
11895SOL     OW37135   7.196   5.209   3.652  0.2756 -0.0692 -0.1619
11895SOL    HW137136   7.187   5.304   3.642 -0.8752 -0.2229 -0.6619
11895SOL    HW237137   7.264   5.199   3.719  0.7179  1.0946 -0.4044
11896SOL     OW37138   1.645   1.021   6.361 -0.1338  0.2283 -0.1975
11896SOL    HW137139   1.629   1.115   6.359 -0.2933  0.2799  1.4878
11896SOL    HW237140   1.715   1.010   6.427 -0.9992 -0.9121  0.5785
11897SOL     OW37141   0.552   7.721   6.312  0.1788  0.5009  0.3953
11897SOL    HW137142   0.642   7.753   6.317  0.5478 -0.6086  1.3653
11897SOL    HW237143   0.499   7.796   6.339  0.8578  0.9937  0.3880
11898SOL     OW37144   5.044   8.057   0.193 -0.4607  0.0159  0.0592
11898SOL    HW137145   4.988   8.002   0.246 -0.9753  0.1420 -0.3504
11898SOL    HW237146   4.985   8.120   0.151 -0.4021 -1.5073 -2.5014
11899SOL     OW37147   3.020   1.154   5.863 -0.0115 -0.6923 -0.0802
11899SOL    HW137148   3.107   1.163   5.901 -0.4258 -1.2905  1.0616
11899SOL    HW237149   3.010   1.060   5.847  0.3335 -0.4118 -2.1669
11900SOL     OW37150   2.328   4.089   4.699  0.4380 -0.0206  0.5561
11900SOL    HW137151   2.403   4.143   4.724  1.3430 -1.2972  0.6766
11900SOL    HW237152   2.366   4.019   4.646 -0.8232 -0.0890 -0.3075
11901SOL     OW37153   8.185   5.385   3.157 -0.2202 -0.2931 -0.1531
11901SOL    HW137154   8.201   5.460   3.214 -1.8716 -1.6257  2.2616
11901SOL    HW237155   8.194   5.420   3.069 -1.4499  2.9189  0.8232
11902SOL     OW37156   2.422   6.282   1.434  0.0776  0.3070  0.0829
11902SOL    HW137157   2.452   6.191   1.432  0.4628  0.4367 -0.0759
11902SOL    HW237158   2.338   6.278   1.480  0.0027 -0.1530 -0.0843
11903SOL     OW37159   0.361   2.377   2.059 -0.3051 -0.0613  0.1403
11903SOL    HW137160   0.280   2.350   2.103  0.7537 -5.1059 -0.3406
11903SOL    HW237161   0.430   2.341   2.115  1.3330 -0.3974 -2.0120
11904SOL     OW37162   4.472   2.985   1.899 -0.0159 -0.5955 -0.4130
11904SOL    HW137163   4.390   2.936   1.892  0.4820 -1.4271 -0.5195
11904SOL    HW237164   4.516   2.972   1.815  1.0651 -1.7132  0.2797
11905SOL     OW37165   1.120   6.309   2.668  0.2060  0.0300  0.3031
11905SOL    HW137166   1.194   6.361   2.636 -0.3675 -0.0216 -1.1898
11905SOL    HW237167   1.111   6.239   2.604 -0.7806 -0.2908  0.7816
11906SOL     OW37168   1.616   1.035   5.684 -0.7965  0.5029  0.2803
11906SOL    HW137169   1.678   1.105   5.661 -0.0620 -0.0091  0.6733
11906SOL    HW237170   1.532   1.067   5.652  0.0452  0.1434 -2.5198
11907SOL     OW37171   0.270   1.781   3.329  0.5036 -0.1925 -0.2514
11907SOL    HW137172   0.322   1.860   3.341  0.8914 -0.5679  0.7027
11907SOL    HW237173   0.183   1.812   3.305  0.6684  0.5207  0.0541
11908SOL     OW37174   1.927   4.819   2.276  0.1429 -0.4591 -0.2611
11908SOL    HW137175   1.915   4.879   2.349  0.0679 -2.3579  1.3792
11908SOL    HW237176   1.992   4.756   2.307  1.2334 -0.4803 -2.4201
11909SOL     OW37177   8.233   3.222   7.482  0.0060  0.4791 -0.3665
11909SOL    HW137178   8.176   3.207   7.407 -1.0707  0.8423  0.3535
11909SOL    HW237179   8.321   3.205   7.449 -0.3034  1.9344 -2.0617
11910SOL     OW37180   3.038   3.463   4.140 -0.0813  0.0251  0.1857
11910SOL    HW137181   3.016   3.420   4.057 -0.5580 -1.3139  0.9879
11910SOL    HW237182   2.954   3.489   4.177 -0.0802 -1.4571  1.3175
11911SOL     OW37183   5.281   4.193   8.406  0.5954  0.2922 -0.4235
11911SOL    HW137184   5.235   4.274   8.427  0.0650 -0.2452  0.6346
11911SOL    HW237185   5.332   4.213   8.328  0.4594  1.6267 -0.1932
11912SOL     OW37186   8.804   3.891   1.895  0.1456  0.5781 -0.3211
11912SOL    HW137187   8.752   3.830   1.843 -0.2623  0.3265  0.3643
11912SOL    HW237188   8.742   3.960   1.919  0.3115  0.6527 -0.1047
11913SOL     OW37189   6.848   3.566   5.756 -0.3635 -0.7560 -0.0394
11913SOL    HW137190   6.778   3.553   5.692  2.2264  0.1825 -3.2991
11913SOL    HW237191   6.882   3.654   5.738  0.1217 -0.1253  3.1758
11914SOL     OW37192   4.402   1.755   1.467 -0.4935  0.0662 -0.0483
11914SOL    HW137193   4.457   1.833   1.460  1.2620 -0.7488  2.9912
11914SOL    HW237194   4.420   1.706   1.387  2.4157  0.3837  0.3160
11915SOL     OW37195   4.209   7.363   0.541 -1.0521 -0.1409  0.3529
11915SOL    HW137196   4.265   7.385   0.467 -1.5627 -2.3253 -0.7790
11915SOL    HW237197   4.127   7.409   0.523  0.0652  2.6468  1.7548
11916SOL     OW37198   3.744   1.957   8.555 -0.8385  0.0433  0.0648
11916SOL    HW137199   3.755   1.990   8.644 -1.7368  1.0862 -0.1927
11916SOL    HW237200   3.753   1.862   8.563  1.4807  0.2599  0.8834
11917SOL     OW37201   0.847   1.366   6.661  0.5315 -0.4915  0.3636
11917SOL    HW137202   0.877   1.417   6.586  1.7717 -0.2078  1.0278
11917SOL    HW237203   0.829   1.279   6.625  0.4942 -0.1888 -0.3670
11918SOL     OW37204   1.565   7.595   5.958 -0.0578  0.0326 -0.0142
11918SOL    HW137205   1.511   7.648   5.899 -0.8189 -0.8027 -0.0968
11918SOL    HW237206   1.564   7.643   6.041  0.1996  0.7143 -0.3962
11919SOL     OW37207   7.025   0.660   7.480  0.5220  0.1225 -0.1058
11919SOL    HW137208   6.931   0.648   7.467  0.3944  0.3480  0.5250
11919SOL    HW237209   7.046   0.605   7.556  0.7203  0.7343  0.2930
11920SOL     OW37210   6.552   2.226   4.857 -0.3075  0.2448 -0.1104
11920SOL    HW137211   6.524   2.136   4.840  1.7299 -1.0379  2.5382
11920SOL    HW237212   6.633   2.235   4.808 -1.6254  1.5303 -2.1974
11921SOL     OW37213   3.408   1.768   5.352 -0.4338 -0.0407 -0.0281
11921SOL    HW137214   3.449   1.705   5.293  0.9737  0.9327 -0.1490
11921SOL    HW237215   3.344   1.814   5.299 -0.4420 -0.3883 -0.3176
11922SOL     OW37216   8.226   1.067   0.022 -0.0125  0.0816 -0.0933
11922SOL    HW137217   8.184   1.041   0.104  2.6967 -2.5414  0.6432
11922SOL    HW237218   8.198   1.000  -0.041  0.2771  0.3670 -0.5290
11923SOL     OW37219   3.054   1.172   5.286 -0.4758 -0.2849 -0.2919
11923SOL    HW137220   3.085   1.089   5.250 -1.4950  0.7836 -4.0757
11923SOL    HW237221   3.081   1.237   5.221 -3.7710  1.6817  0.1408
11924SOL     OW37222   7.594   1.141   8.999  0.1338 -0.0164  0.4965
11924SOL    HW137223   7.657   1.163   9.068  2.1891  1.9229 -1.8143
11924SOL    HW237224   7.647   1.116   8.924 -1.9146 -0.1641 -1.0082
11925SOL     OW37225   3.257   4.312   4.653 -0.2769 -0.3512  0.7896
11925SOL    HW137226   3.295   4.227   4.632  1.1081  0.3821  0.1827
11925SOL    HW237227   3.315   4.375   4.610  0.5270  1.0696  3.7309
11926SOL     OW37228   0.679   6.947   8.147 -0.2333  0.0361  0.5312
11926SOL    HW137229   0.642   6.946   8.059  1.3530  1.7659 -0.2409
11926SOL    HW237230   0.744   6.877   8.147 -1.8945 -1.5744  1.1825
11927SOL     OW37231   5.042   4.239   0.684 -0.5150  0.3809  0.2476
11927SOL    HW137232   5.036   4.328   0.648 -0.6182  0.4615  0.4661
11927SOL    HW237233   5.116   4.243   0.745  0.3318 -0.0169 -0.7127
11928SOL     OW37234   6.935   2.898   8.812  0.0331 -0.0309  0.4248
11928SOL    HW137235   7.029   2.918   8.817 -0.2388  1.0970  1.5901
11928SOL    HW237236   6.930   2.803   8.819  0.9928  0.0292  2.6878
11929SOL     OW37237   0.095   4.946   7.488  0.3098  0.2112  0.2620
11929SOL    HW137238   0.074   5.011   7.421  1.3277  0.5095  0.2185
11929SOL    HW237239   0.046   4.869   7.463 -0.4148  0.7630 -0.0442
11930SOL     OW37240   0.616   1.142   4.093  0.4380  0.3739 -0.0771
11930SOL    HW137241   0.581   1.227   4.121 -0.6006  0.0515 -0.3824
11930SOL    HW237242   0.552   1.078   4.124  0.3380 -0.1600 -1.3446
11931SOL     OW37243   0.624   6.624   7.469  0.5911 -0.0319 -0.2070
11931SOL    HW137244   0.715   6.651   7.484  0.2076  0.9181  0.4980
11931SOL    HW237245   0.605   6.562   7.539  0.0991  1.2649  0.8450
11932SOL     OW37246   8.984   0.689   6.340 -0.0336 -0.0989  0.3250
11932SOL    HW137247   8.897   0.722   6.317 -0.1568 -1.1612 -0.8474
11932SOL    HW237248   9.031   0.766   6.373 -1.1728  0.6388  0.3049
11933SOL     OW37249   9.195   6.203   8.203 -0.0007 -0.1630  0.3200
11933SOL    HW137250   9.173   6.189   8.295  0.6642  0.8763  0.6542
11933SOL    HW237251   9.291   6.200   8.200  0.0064  0.4082 -0.2380
11934SOL     OW37252   8.200   5.091   8.494 -0.3878  0.0689 -0.1515
11934SOL    HW137253   8.245   5.013   8.464 -3.0944 -1.4419 -0.6044
11934SOL    HW237254   8.232   5.105   8.583  0.6503 -1.1397 -0.3167
11935SOL     OW37255   0.630   2.584   7.266 -0.2934  0.3694 -0.5019
11935SOL    HW137256   0.541   2.620   7.260 -0.4795 -0.0512 -0.3039
11935SOL    HW237257   0.617   2.489   7.268  0.1974  0.2791 -1.1388
11936SOL     OW37258   3.942   4.808   7.829 -0.2642 -0.7986 -0.0605
11936SOL    HW137259   3.921   4.716   7.848  0.0071 -1.0331 -0.8201
11936SOL    HW237260   3.907   4.822   7.741 -0.6268 -0.0624  0.2039
11937SOL     OW37261   2.380   7.851   7.642  0.1212  0.2147 -0.2377
11937SOL    HW137262   2.326   7.873   7.566 -0.7048  2.5127  0.9194
11937SOL    HW237263   2.322   7.800   7.699  0.4213 -0.6362 -0.6816
11938SOL     OW37264   0.700   4.440   0.814 -0.4545  0.1484 -0.2950
11938SOL    HW137265   0.667   4.376   0.876  1.3755 -1.3963 -0.8082
11938SOL    HW237266   0.787   4.463   0.847 -0.3448  0.9958 -1.1031
11939SOL     OW37267   3.063   9.126   5.885 -0.7369  0.0477  0.3045
11939SOL    HW137268   2.986   9.179   5.865 -1.4737 -1.3548 -0.7804
11939SOL    HW237269   3.124   9.144   5.814 -1.0138 -0.5718 -0.1017
11940SOL     OW37270   8.178   5.773   6.700  0.2769  0.1962  0.2404
11940SOL    HW137271   8.202   5.801   6.788 -1.9605  0.5850  0.7815
11940SOL    HW237272   8.221   5.687   6.689 -1.4595 -1.1009  2.7501
11941SOL     OW37273   0.706   4.118   1.108 -0.2939  0.2598  0.1226
11941SOL    HW137274   0.650   4.041   1.098 -2.7951  2.1875 -1.8169
11941SOL    HW237275   0.680   4.156   1.192 -2.7101  1.6360 -1.1590
11942SOL     OW37276   1.386   1.495   0.352 -0.0585 -0.6619 -0.0979
11942SOL    HW137277   1.388   1.590   0.350  0.4056 -0.6664 -0.0239
11942SOL    HW237278   1.469   1.468   0.312  0.1666 -1.0170  0.5835
11943SOL     OW37279   4.611   2.524   0.011 -0.2601 -0.0492  0.3081
11943SOL    HW137280   4.695   2.530   0.056  0.6055 -1.5569 -0.9774
11943SOL    HW237281   4.607   2.603  -0.043  1.8548 -1.3364 -1.9446
11944SOL     OW37282   6.125   5.087   0.189  0.1525  0.3348  0.0403
11944SOL    HW137283   6.067   5.011   0.202  1.5781 -0.9701 -0.8206
11944SOL    HW237284   6.165   5.072   0.103  1.1979  1.5738  0.2798
11945SOL     OW37285   4.554   5.025   2.195 -0.3604 -0.6822  0.1009
11945SOL    HW137286   4.596   5.105   2.227  0.8304 -1.3743  0.3232
11945SOL    HW237287   4.562   4.964   2.267 -1.2254 -1.0310 -0.0882
11946SOL     OW37288   6.823   0.704   6.038  0.5911 -0.0170  0.3748
11946SOL    HW137289   6.764   0.636   6.008  0.1846 -0.3114  1.7829
11946SOL    HW237290   6.898   0.698   5.979  0.1236 -1.0154 -0.1395
11947SOL     OW37291   8.166   4.679   4.933  0.0964  0.7260 -0.1467
11947SOL    HW137292   8.081   4.678   4.976  0.2103 -1.4640  0.1325
11947SOL    HW237293   8.223   4.628   4.990  3.1407  6.0864  2.3821
11948SOL     OW37294   8.535   1.291   2.037 -0.2765 -0.5707  0.3398
11948SOL    HW137295   8.516   1.382   2.060 -1.1614 -0.3557 -1.1377
11948SOL    HW237296   8.514   1.242   2.117 -0.5209  0.4304  0.9106
11949SOL     OW37297   0.728   4.303   1.724  0.1301  0.6037 -0.1749
11949SOL    HW137298   0.816   4.267   1.711  0.9933  2.8799 -1.0685
11949SOL    HW237299   0.680   4.232   1.766  2.1357 -1.0212 -0.4447
11950SOL     OW37300   3.381   3.268   1.384  0.2225  0.1481 -0.2249
11950SOL    HW137301   3.420   3.309   1.462  1.1618 -1.6853  0.3293
11950SOL    HW237302   3.455   3.249   1.327  0.0494 -2.0876  0.2049
11951SOL     OW37303   7.961   7.170   6.450  0.0462 -0.6107  0.4335
11951SOL    HW137304   7.969   7.249   6.503 -0.3420  0.9791 -1.7805
11951SOL    HW237305   7.929   7.104   6.512  3.0460  0.1174  3.0040
11952SOL     OW37306   7.648   4.624   8.854  0.6967 -0.3964 -0.2877
11952SOL    HW137307   7.563   4.585   8.877  0.6031  0.5433  1.1574
11952SOL    HW237308   7.637   4.654   8.764  0.3020 -2.3516 -0.9298
11953SOL     OW37309   5.693   7.503   9.213 -0.7957 -0.0215 -0.2928
11953SOL    HW137310   5.611   7.485   9.259 -0.9363  0.2048 -0.4535
11953SOL    HW237311   5.761   7.489   9.279 -0.9817  0.0744 -0.0793
11954SOL     OW37312   6.517   9.276   1.667 -0.4265  0.4278 -0.0727
11954SOL    HW137313   6.471   9.298   1.747 -0.5597  2.1487 -0.5846
11954SOL    HW237314   6.458   9.304   1.597  0.8846  1.6189 -0.7430
11955SOL     OW37315   7.103   6.069   8.475 -0.1458  0.0601  0.2737
11955SOL    HW137316   7.020   6.024   8.460 -1.4988  2.9593 -2.1154
11955SOL    HW237317   7.133   6.093   8.387  1.3618  2.1652  1.2919
11956SOL     OW37318   5.675   2.982   6.497  0.2208  0.5383 -0.1562
11956SOL    HW137319   5.579   2.989   6.504  0.1334  0.4210 -1.1025
11956SOL    HW237320   5.701   2.937   6.577 -0.4809  0.8490  0.2636
11957SOL     OW37321   2.798   9.218   2.364 -0.5733  0.3866  0.1463
11957SOL    HW137322   2.766   9.293   2.414 -0.5057 -0.8559  2.1673
11957SOL    HW237323   2.863   9.256   2.303 -2.8251  2.3609 -1.2030
11958SOL     OW37324   4.867   6.589   6.753  0.0412  0.0499 -0.2402
11958SOL    HW137325   4.781   6.598   6.712 -0.2419 -1.1376  0.0709
11958SOL    HW237326   4.884   6.495   6.755  1.2399  0.2485 -0.0562
11959SOL     OW37327   7.333   6.531   4.625  0.0746  0.0481 -0.5719
11959SOL    HW137328   7.239   6.514   4.628  0.5797 -3.3302  2.2944
11959SOL    HW237329   7.365   6.474   4.555  0.1654 -0.0211 -0.4748
11960SOL     OW37330   2.979   2.147   4.447 -0.4833 -0.1375 -0.1766
11960SOL    HW137331   2.899   2.191   4.476 -0.4207 -0.1127 -0.0403
11960SOL    HW237332   3.012   2.104   4.525 -0.5678 -0.4675 -0.3224
11961SOL     OW37333   1.286   3.339   9.131  0.0571  0.1048 -0.0730
11961SOL    HW137334   1.306   3.394   9.056 -0.3583  0.3288 -0.0230
11961SOL    HW237335   1.263   3.400   9.201  3.3457  0.0990  1.1860
11962SOL     OW37336   0.114   0.958   3.379 -0.3835  0.5177 -0.0275
11962SOL    HW137337   0.199   0.965   3.335  0.8910  0.1574  2.2126
11962SOL    HW237338   0.092   1.049   3.403 -0.2035  0.5215  0.1271
11963SOL     OW37339   8.116   5.289   8.146 -0.0556  0.0832 -0.2911
11963SOL    HW137340   8.095   5.377   8.112  1.3388 -0.1208 -1.8384
11963SOL    HW237341   8.156   5.305   8.231  0.0961  0.9506 -0.5159
11964SOL     OW37342   5.822   8.008   3.319 -0.2101  0.5588 -0.1852
11964SOL    HW137343   5.830   7.937   3.254 -2.0020 -0.7027  0.8673
11964SOL    HW237344   5.879   7.982   3.391 -0.8116  0.1972  0.1698
11965SOL     OW37345   4.015   4.035   7.066  0.1175 -0.7680 -0.0225
11965SOL    HW137346   3.943   3.973   7.070 -1.0581  0.6127  3.0690
11965SOL    HW237347   4.093   3.985   7.091  0.0373 -1.8983 -1.8369
11966SOL     OW37348   8.851   7.181   1.942  0.5185 -0.5399  0.2792
11966SOL    HW137349   8.856   7.264   1.990 -1.5147  0.7416 -1.5265
11966SOL    HW237350   8.940   7.167   1.911  0.8110  1.2913  0.1551
11967SOL     OW37351   2.478   6.505   1.553 -0.0033 -0.1443  0.0022
11967SOL    HW137352   2.471   6.420   1.510  1.0154 -0.0113 -0.4555
11967SOL    HW237353   2.572   6.521   1.559 -0.0763 -0.2697  2.5326
11968SOL     OW37354   5.369   7.664   4.304  0.6822  0.3145  0.0806
11968SOL    HW137355   5.460   7.657   4.275  0.5138  0.2764 -0.4398
11968SOL    HW237356   5.318   7.666   4.224  0.0310 -1.9853  0.3506
11969SOL     OW37357   6.405   8.332   9.258  0.3142 -0.1642  0.2681
11969SOL    HW137358   6.475   8.373   9.207  1.3026 -1.5686  0.4529
11969SOL    HW237359   6.368   8.266   9.200 -1.1259  0.7751  0.0516
11970SOL     OW37360   1.373   3.566   1.724 -0.3036  0.0785  0.4304
11970SOL    HW137361   1.438   3.595   1.660 -0.8122  0.6724  0.1734
11970SOL    HW237362   1.420   3.565   1.807  0.6098 -1.5473 -0.0579
11971SOL     OW37363   2.058   3.778   2.866  0.3754  0.1028  0.1398
11971SOL    HW137364   2.009   3.723   2.927  0.8883 -0.1147  0.3666
11971SOL    HW237365   2.029   3.751   2.779 -2.8065  2.6235  0.2478
11972SOL     OW37366   3.072   6.686   4.248 -0.5494  0.0766 -0.2410
11972SOL    HW137367   3.044   6.734   4.170  0.2458 -0.3519 -0.8064
11972SOL    HW237368   3.073   6.594   4.220 -0.0442 -0.0600  0.2056
11973SOL     OW37369   2.576   8.634   1.611  0.3101  0.3843  0.1335
11973SOL    HW137370   2.498   8.689   1.623  0.6402  0.6523  1.1510
11973SOL    HW237371   2.568   8.602   1.522 -1.2806 -0.0726  0.3954
11974SOL     OW37372   0.958   2.736   8.397 -0.1458  0.2708 -0.0999
11974SOL    HW137373   0.968   2.790   8.319  1.4154  0.1765  0.0057
11974SOL    HW237374   0.930   2.797   8.466 -0.1630  0.6012 -0.3973
11975SOL     OW37375   7.241   3.083   6.148 -0.5800  0.3892 -0.6302
11975SOL    HW137376   7.153   3.120   6.142 -0.3180  0.9139 -1.4796
11975SOL    HW237377   7.253   3.037   6.065 -0.6116 -0.9872  0.1000
11976SOL     OW37378   1.642   7.904   0.246  0.0679 -0.0570 -0.4255
11976SOL    HW137379   1.611   7.950   0.168  0.1674  0.9161  0.0922
11976SOL    HW237380   1.732   7.880   0.225  0.0447  0.0643 -0.6680
11977SOL     OW37381   0.716   4.742   8.367  0.4474  0.1964  0.4213
11977SOL    HW137382   0.642   4.737   8.306  0.3636 -0.3809  0.5741
11977SOL    HW237383   0.676   4.760   8.452 -0.0821 -4.7859  1.5425
11978SOL     OW37384   4.479   3.834   3.787  0.4022  0.0064  0.4057
11978SOL    HW137385   4.552   3.773   3.788 -0.3861 -0.9807  1.9002
11978SOL    HW237386   4.402   3.779   3.800 -0.5257  1.1231 -0.1709
11979SOL     OW37387   3.338   8.055   7.739  0.1663  0.2058 -0.0139
11979SOL    HW137388   3.274   8.096   7.798  0.8310 -0.6682  1.3802
11979SOL    HW237389   3.297   7.974   7.711  0.2948  0.0834  0.1510
11980SOL     OW37390   4.826   9.272   0.623  0.1366 -0.5663 -0.2071
11980SOL    HW137391   4.801   9.313   0.705 -1.2303 -1.7746  0.0295
11980SOL    HW237392   4.743   9.255   0.578  0.7920 -0.9059 -1.3415
11981SOL     OW37393   3.319   7.932   0.257 -0.0505  0.3178  0.1631
11981SOL    HW137394   3.338   7.946   0.164  0.5961  1.3115  0.4394
11981SOL    HW237395   3.390   7.874   0.286  0.5509  1.1328  0.3530
11982SOL     OW37396   2.060   5.116   3.193 -0.3039 -0.0291 -0.0273
11982SOL    HW137397   2.100   5.192   3.235 -0.1293  0.9487 -1.8701
11982SOL    HW237398   2.103   5.041   3.234  1.9441  0.9356 -0.4739
11983SOL     OW37399   9.070   0.942   5.917 -0.2175 -0.1740 -0.1440
11983SOL    HW137400   9.020   0.924   5.997 -1.8477  0.3986 -0.9944
11983SOL    HW237401   9.076   1.037   5.914 -0.2294 -0.1915 -0.7307
11984SOL     OW37402   2.196   9.241   4.001  0.1252 -0.0303 -0.2344
11984SOL    HW137403   2.199   9.283   4.087  1.4231 -1.9355  0.7215
11984SOL    HW237404   2.109   9.262   3.967  0.5163  2.9593  0.3404
11985SOL     OW37405   2.056   0.208   3.474 -0.1579 -0.4322  0.0859
11985SOL    HW137406   2.093   0.120   3.479  0.1196 -0.2753  1.2121
11985SOL    HW237407   2.040   0.232   3.566 -1.7319  0.0661 -0.2840
11986SOL     OW37408   0.247   2.374   0.672  0.4591  0.7597  0.5243
11986SOL    HW137409   0.249   2.278   0.681  1.0758  0.8497  1.5709
11986SOL    HW237410   0.274   2.391   0.582  1.7642 -0.0071  0.7400
11987SOL     OW37411   2.192   7.015   2.458  0.1016  0.1690  0.6190
11987SOL    HW137412   2.160   6.936   2.414 -0.3164  0.7735 -0.1791
11987SOL    HW237413   2.283   7.023   2.429  0.0718  0.1107  0.5063
11988SOL     OW37414   3.501   8.621   7.583 -0.7176 -0.4661 -0.0378
11988SOL    HW137415   3.467   8.564   7.514  2.0729 -1.1078 -0.9863
11988SOL    HW237416   3.594   8.599   7.590 -0.1327  2.0442  1.5124
11989SOL     OW37417   3.631   4.983   8.586 -0.0519  0.2829  0.5984
11989SOL    HW137418   3.655   4.895   8.616  1.7235  0.8191  0.8578
11989SOL    HW237419   3.597   4.969   8.497  0.6966 -0.6148  0.4350
11990SOL     OW37420   4.364   5.898   2.007  0.6322 -0.0050  0.4558
11990SOL    HW137421   4.406   5.981   1.989 -0.0045  0.2598  0.1673
11990SOL    HW237422   4.294   5.891   1.942  1.8020 -1.6125 -0.7375
11991SOL     OW37423   6.064   1.671   5.377  0.4325  0.1427  0.5574
11991SOL    HW137424   6.108   1.589   5.357 -1.1625 -0.5289 -0.4093
11991SOL    HW237425   5.993   1.677   5.313  0.4388  2.2408  0.6503
11992SOL     OW37426   8.699   6.801   3.764 -0.0282  0.7225 -0.1109
11992SOL    HW137427   8.736   6.885   3.789 -0.3692  0.9687 -0.4218
11992SOL    HW237428   8.618   6.794   3.816 -0.8165  1.3008 -1.2086
11993SOL     OW37429   6.095   7.656   2.092 -0.4851 -0.2037  0.2187
11993SOL    HW137430   6.173   7.711   2.104 -1.1237  0.8065 -0.1351
11993SOL    HW237431   6.101   7.591   2.162  0.6417 -0.1082  0.2401
11994SOL     OW37432   7.458   6.984   5.690  0.3353 -0.2328  0.0539
11994SOL    HW137433   7.427   6.961   5.602  0.2820 -0.3430  0.1016
11994SOL    HW237434   7.383   7.028   5.731 -0.4363 -2.1946  0.8491
11995SOL     OW37435   4.900   7.205   0.812  0.9718 -0.6022 -0.4417
11995SOL    HW137436   4.941   7.135   0.862 -1.8133 -2.6465 -0.7728
11995SOL    HW237437   4.837   7.161   0.755 -0.8709  2.1624 -0.7770
11996SOL     OW37438   7.421   0.495   4.612  0.0808 -0.0134  0.3600
11996SOL    HW137439   7.403   0.479   4.705  0.9694 -1.4430  0.3188
11996SOL    HW237440   7.375   0.425   4.566 -1.6930  1.5940 -0.4495
11997SOL     OW37441   8.753   3.927   4.350  0.2960 -0.1999 -0.5354
11997SOL    HW137442   8.837   3.911   4.393  0.5037  0.7661 -0.5508
11997SOL    HW237443   8.750   4.022   4.338  0.6966 -0.4627 -3.5004
11998SOL     OW37444   6.688   7.770   6.482 -0.6821 -0.0931 -0.6708
11998SOL    HW137445   6.677   7.824   6.560 -1.7011  1.1468 -1.6220
11998SOL    HW237446   6.757   7.708   6.505 -0.1671  0.9758  0.8161
11999SOL     OW37447   7.442   8.172   5.283 -0.3331  1.0301 -0.3924
11999SOL    HW137448   7.502   8.124   5.340  1.2066  1.6723 -1.4151
11999SOL    HW237449   7.359   8.124   5.290 -0.0173  0.6780  1.7986
12000SOL     OW37450   2.713   6.650   7.885  0.0554  0.2597 -0.4162
12000SOL    HW137451   2.645   6.583   7.879  1.5427 -1.4400  0.9167
12000SOL    HW237452   2.684   6.707   7.956  0.4724 -1.0580  0.8535
12001SOL     OW37453   7.978   3.411   3.527  0.8456 -0.6675 -0.3580
12001SOL    HW137454   7.891   3.398   3.489  1.1065 -1.5574 -0.6706
12001SOL    HW237455   8.035   3.430   3.451  0.4539  2.9096  0.0485
12002SOL     OW37456   1.092   8.018   6.732 -0.2052 -0.2657  0.1490
12002SOL    HW137457   1.029   7.946   6.736  0.1377 -0.5912 -0.2866
12002SOL    HW237458   1.043   8.091   6.695 -0.2161 -0.6480 -0.6131
12003SOL     OW37459   1.623   3.732   0.032  0.6097 -0.2522 -0.0548
12003SOL    HW137460   1.622   3.644   0.069  0.2889 -1.3574 -2.5031
12003SOL    HW237461   1.699   3.733  -0.025  1.9909  1.9202  1.6602
12004SOL     OW37462   1.738   8.767   6.496  0.5726  0.0257  0.2744
12004SOL    HW137463   1.753   8.674   6.515 -2.7370 -0.7422 -0.3071
12004SOL    HW237464   1.704   8.769   6.407 -1.5143  1.5167  1.0294
12005SOL     OW37465   9.277   2.036   9.028  1.0076  0.1786  0.0890
12005SOL    HW137466   9.213   1.996   8.969  1.0284 -0.5873  0.5766
12005SOL    HW237467   9.225   2.093   9.085  0.6241 -1.0922  1.0455
12006SOL     OW37468   5.299   1.434   2.863  0.3377  0.2478  0.2733
12006SOL    HW137469   5.232   1.468   2.805  2.1574  1.4779 -1.2307
12006SOL    HW237470   5.251   1.388   2.932 -1.9629  0.2979 -1.2119
12007SOL     OW37471   1.276   2.939   7.642 -0.1616 -0.1347 -1.4089
12007SOL    HW137472   1.192   2.967   7.678 -0.3475 -0.2656 -1.7341
12007SOL    HW237473   1.331   3.017   7.645  0.3405 -0.4994  0.6066
12008SOL     OW37474   7.022   2.877   7.364 -0.1327  0.1162  0.4525
12008SOL    HW137475   6.954   2.820   7.328  0.6574 -1.1165  0.8197
12008SOL    HW237476   7.103   2.846   7.324  0.3371  0.9170  0.7588
12009SOL     OW37477   1.760   3.447   0.774  0.2233  0.7085  0.3353
12009SOL    HW137478   1.694   3.435   0.842  1.4293 -0.8951  1.3115
12009SOL    HW237479   1.732   3.390   0.702  0.5653 -0.0404  0.7843
12010SOL     OW37480   8.275   6.506   3.626  0.2770  0.2650  0.7922
12010SOL    HW137481   8.278   6.538   3.717  1.4220 -0.8212  1.1741
12010SOL    HW237482   8.260   6.585   3.574 -1.4696  0.7733  1.9834
12011SOL     OW37483   2.427   1.316   7.681  0.0390 -0.7298 -0.2527
12011SOL    HW137484   2.444   1.410   7.687  0.5275 -0.8817  1.2333
12011SOL    HW237485   2.496   1.276   7.734 -1.7316 -1.7398  1.4060
12012SOL     OW37486   1.067   5.098   7.752 -0.1800  0.1268 -0.4830
12012SOL    HW137487   1.135   5.166   7.751  0.4991 -0.4944  0.8911
12012SOL    HW237488   0.986   5.146   7.767  0.2683  0.6695  0.3224
12013SOL     OW37489   5.920   5.511   0.158  0.0326 -0.2576  0.1150
12013SOL    HW137490   5.930   5.421   0.125  0.5947  0.0285 -0.5187
12013SOL    HW237491   5.951   5.507   0.248  0.3154 -0.6449  0.0047
12014SOL     OW37492   0.750   4.432   9.230  0.0545 -0.1500  0.7644
12014SOL    HW137493   0.660   4.429   9.262 -1.2194  0.0840 -2.4843
12014SOL    HW237494   0.801   4.389   9.300 -2.9448 -2.9187  1.5084
12015SOL     OW37495   1.712   7.219   0.673 -0.2500 -0.1538 -0.1475
12015SOL    HW137496   1.784   7.178   0.626 -1.4261 -1.9821 -0.5004
12015SOL    HW237497   1.633   7.190   0.626 -1.2927  0.5216  1.1082
12016SOL     OW37498   5.270   6.606   1.020  0.1473  0.5717 -0.1897
12016SOL    HW137499   5.201   6.587   1.083  1.9434 -1.2584  1.3797
12016SOL    HW237500   5.324   6.673   1.062  0.0989  1.0264 -0.8250
12017SOL     OW37501   7.650   4.844   6.714 -0.2185 -0.3528  0.3266
12017SOL    HW137502   7.741   4.821   6.695 -0.1436 -0.6776  1.0651
12017SOL    HW237503   7.656   4.925   6.765 -0.3516 -0.3085  0.2735
12018SOL     OW37504   8.918   3.590   8.115 -0.2313  0.3750  0.5465
12018SOL    HW137505   8.920   3.597   8.020 -0.4305 -0.1600  0.5017
12018SOL    HW237506   8.826   3.575   8.137  0.0384 -1.2073  0.6910
12019SOL     OW37507   4.777   5.095   8.081  0.4343  0.0298  0.4222
12019SOL    HW137508   4.836   5.143   8.024 -0.9700 -1.7493 -2.8390
12019SOL    HW237509   4.834   5.039   8.134  1.7741  0.9191 -0.0385
12020SOL     OW37510   6.711   2.881   7.442 -0.5289  0.6402 -0.2639
12020SOL    HW137511   6.635   2.881   7.385 -1.0712  1.4033  0.4214
12020SOL    HW237512   6.764   2.954   7.411  0.0135  0.0037 -0.8475
12021SOL     OW37513   5.308   6.888   0.524  0.1694  0.0020  0.4234
12021SOL    HW137514   5.232   6.942   0.545  0.5971  0.8449 -0.1765
12021SOL    HW237515   5.331   6.847   0.608 -0.8900 -0.2085  0.6307
12022SOL     OW37516   6.971   1.029   7.508  0.1996 -0.0421  0.2776
12022SOL    HW137517   6.892   0.976   7.509 -0.7376  1.2978 -0.2518
12022SOL    HW237518   7.006   1.020   7.597  0.0955 -1.5318  0.1976
12023SOL     OW37519   5.821   7.832   3.618  0.0144 -0.4437  0.0326
12023SOL    HW137520   5.732   7.867   3.611  0.6875  1.8500  1.7605
12023SOL    HW237521   5.829   7.805   3.709  1.8431  1.8925  0.6590
12024SOL     OW37522   5.318   7.414   4.771 -0.8328  0.0208 -0.2831
12024SOL    HW137523   5.364   7.353   4.829  0.9694  0.0730 -1.5512
12024SOL    HW237524   5.281   7.359   4.702 -1.4315  0.1214 -0.0450
12025SOL     OW37525   1.940   3.406   9.085 -0.0279 -0.6245 -0.3228
12025SOL    HW137526   1.864   3.429   9.032  0.8232  1.6310 -0.6569
12025SOL    HW237527   1.974   3.489   9.117  1.5588 -1.6719  0.8730
12026SOL     OW37528   7.947   8.674   7.665  0.0702  0.1916 -0.1314
12026SOL    HW137529   7.947   8.578   7.659  0.0289  0.2035 -0.3409
12026SOL    HW237530   8.038   8.699   7.654 -0.0461  0.2314 -1.0674
12027SOL     OW37531   6.437   4.165   0.060  0.1411 -0.2070  0.3060
12027SOL    HW137532   6.345   4.191   0.055 -0.0908 -1.1099 -0.3650
12027SOL    HW237533   6.476   4.204  -0.019  0.5547  0.9732  1.0745
12028SOL     OW37534   0.994   0.048   3.398 -0.7085 -0.2999  0.1539
12028SOL    HW137535   1.079   0.023   3.434 -2.0523 -1.5260  2.8027
12028SOL    HW237536   1.011   0.128   3.349  2.2333 -1.4625 -0.9309
12029SOL     OW37537   0.738   8.295   0.238  0.4758 -0.0165 -0.6474
12029SOL    HW137538   0.732   8.390   0.248  0.6676  0.0646 -1.2041
12029SOL    HW237539   0.733   8.281   0.143  1.2004 -0.4991 -0.6248
12030SOL     OW37540   0.149   2.206   7.758  0.0197 -0.3598  0.3248
12030SOL    HW137541   0.212   2.146   7.796 -0.2144 -0.6124  0.3187
12030SOL    HW237542   0.080   2.214   7.825 -0.8462 -1.5106 -0.3870
12031SOL     OW37543   4.057   8.161   1.695 -0.3378  0.3675  0.1559
12031SOL    HW137544   4.127   8.200   1.642 -0.3318  2.4510  1.5740
12031SOL    HW237545   3.995   8.125   1.630  1.1010  0.1585 -1.1510
12032SOL     OW37546   6.101   0.709   8.853 -0.1266  0.4141 -0.5739
12032SOL    HW137547   6.189   0.711   8.889 -1.0299 -1.7943  2.0479
12032SOL    HW237548   6.073   0.801   8.855  1.9878  1.1311 -1.2989
12033SOL     OW37549   0.259   2.971   4.745 -0.0838  0.8353  0.1317
12033SOL    HW137550   0.327   2.973   4.678  0.7502  1.3825  0.9699
12033SOL    HW237551   0.221   3.058   4.744  2.0092  1.8876  2.3911
12034SOL     OW37552   3.711   6.317   4.244  0.7934 -0.4075  0.0519
12034SOL    HW137553   3.680   6.231   4.272  1.5654 -1.2273 -1.4649
12034SOL    HW237554   3.638   6.376   4.260  0.3502 -1.2797  1.3764
12035SOL     OW37555   7.504   2.581   5.808 -0.8484 -0.0735 -0.3488
12035SOL    HW137556   7.470   2.598   5.896 -2.1441 -0.3545 -0.7801
12035SOL    HW237557   7.474   2.655   5.756 -1.9177 -0.9563 -1.0221
12036SOL     OW37558   7.008   6.989   5.303  0.2576 -0.0541  0.2457
12036SOL    HW137559   7.007   6.941   5.387  0.6660 -1.6497 -0.6097
12036SOL    HW237560   6.919   6.979   5.269  0.6525 -1.3323 -0.4984
12037SOL     OW37561   7.084   6.291   9.199  0.3587 -0.1831  0.1671
12037SOL    HW137562   7.157   6.314   9.142  1.0488 -0.5023  0.9035
12037SOL    HW237563   7.029   6.234   9.145  1.7750 -1.7369  0.2520
12038SOL     OW37564   2.175   4.044   8.324 -0.1842  0.2529 -0.1888
12038SOL    HW137565   2.214   4.075   8.406 -1.1249  0.7505  0.0898
12038SOL    HW237566   2.241   3.986   8.286  1.7603  2.7850 -0.8738
12039SOL     OW37567   6.663   7.368   5.904 -0.3025 -0.4661 -0.5345
12039SOL    HW137568   6.724   7.310   5.948  1.0909 -1.8604 -3.9825
12039SOL    HW237569   6.579   7.322   5.909 -0.3705 -0.2557  1.0860
12040SOL     OW37570   3.906   5.966   1.847  0.4633  0.2804  0.0559
12040SOL    HW137571   3.907   5.998   1.937 -0.3482 -2.3950  1.1192
12040SOL    HW237572   3.870   6.039   1.796  2.1084  2.3062  1.6423
12041SOL     OW37573   2.131   8.092   4.924  0.3094 -0.5702  0.2463
12041SOL    HW137574   2.147   8.109   4.831 -1.8307  0.8530  0.0736
12041SOL    HW237575   2.109   7.998   4.928  0.0021 -0.5436 -0.7414
12042SOL     OW37576   7.110   5.848   7.671 -0.3589 -0.0651  0.6679
12042SOL    HW137577   7.160   5.768   7.657  0.8334  0.5786  1.0588
12042SOL    HW237578   7.166   5.918   7.638 -1.7694  0.5605 -0.5416
12043SOL     OW37579   1.395   3.756   1.045 -0.5755 -0.2336  0.4933
12043SOL    HW137580   1.425   3.700   0.974 -1.2117  0.6100 -0.4677
12043SOL    HW237581   1.473   3.806   1.070 -0.5353  0.0505 -0.1753
12044SOL     OW37582   4.688   9.211   1.934 -0.0477 -0.5814 -0.4666
12044SOL    HW137583   4.679   9.247   1.846 -1.0378 -2.0501 -0.9997
12044SOL    HW237584   4.778   9.231   1.959  0.1399  0.1677 -1.6673
12045SOL     OW37585   7.479   1.505   1.935 -0.1650  0.2170  0.2659
12045SOL    HW137586   7.420   1.476   1.866 -1.5063  1.2856  0.9127
12045SOL    HW237587   7.424   1.556   1.994  1.4057  1.1936  0.9564
12046SOL     OW37588   4.571   7.708   7.626 -0.5686  0.0427  0.4038
12046SOL    HW137589   4.610   7.744   7.706 -1.0132  0.4455  0.4426
12046SOL    HW237590   4.596   7.770   7.557  0.9967 -1.0253 -0.0411
12047SOL     OW37591   9.133   6.338   3.495  0.2212  0.0129  0.5734
12047SOL    HW137592   9.193   6.268   3.471  1.5361  1.2299  0.1515
12047SOL    HW237593   9.051   6.294   3.515  0.9490 -1.6144  0.1180
12048SOL     OW37594   7.171   1.798   5.631 -0.1939 -0.1242  0.4575
12048SOL    HW137595   7.159   1.893   5.631  1.5510  0.1357 -0.3909
12048SOL    HW237596   7.085   1.763   5.651 -0.8201  1.6445  1.0549
12049SOL     OW37597   3.552   6.091   4.337  0.3746 -0.1765  0.3366
12049SOL    HW137598   3.463   6.065   4.361 -0.1556  1.3632  0.1043
12049SOL    HW237599   3.605   6.013   4.354 -1.0535 -1.2041  0.2059
12050SOL     OW37600   5.577   8.337   4.176 -0.1265 -0.1953  0.2996
12050SOL    HW137601   5.552   8.246   4.161 -2.1122 -0.2097  2.9700
12050SOL    HW237602   5.590   8.343   4.271  0.2293  2.2257  0.1485
12051SOL     OW37603   7.018   6.792   5.520 -0.5592  0.0109 -0.1019
12051SOL    HW137604   6.924   6.783   5.536 -0.9349  0.5232 -1.9023
12051SOL    HW237605   7.056   6.712   5.558 -1.7178 -0.2626  0.5354
12052SOL     OW37606   7.341   7.918   4.658 -0.0006  0.4874  0.1366
12052SOL    HW137607   7.296   7.879   4.583 -0.8652  0.2256  0.7690
12052SOL    HW237608   7.429   7.938   4.626  0.6750 -2.4565 -0.0884
12053SOL     OW37609   8.295   3.638   6.430 -0.4166  0.2760 -0.4729
12053SOL    HW137610   8.379   3.670   6.396 -0.5778  2.2194  0.8036
12053SOL    HW237611   8.317   3.599   6.515 -0.8452  1.2582  0.1047
12054SOL     OW37612   8.080   5.294   2.314 -0.5887 -0.2191  0.1113
12054SOL    HW137613   8.102   5.357   2.245 -0.4972 -0.0217  0.3178
12054SOL    HW237614   8.131   5.216   2.293 -0.6525 -0.2007 -0.1118
12055SOL     OW37615   9.150   9.137   2.870 -0.4036  0.6300 -0.8366
12055SOL    HW137616   9.166   9.097   2.956 -1.2536 -0.5574 -1.2009
12055SOL    HW237617   9.119   9.065   2.815 -0.8460  1.5697 -1.8642
12056SOL     OW37618   0.718   2.243   1.303 -0.0322  0.4333 -0.4418
12056SOL    HW137619   0.802   2.275   1.336  1.3285 -2.7290 -0.4125
12056SOL    HW237620   0.721   2.262   1.209  1.5085 -0.9845 -0.7420
12057SOL     OW37621   8.484   0.956   6.296 -0.3759 -0.0506 -0.0217
12057SOL    HW137622   8.391   0.978   6.305  0.1782  2.0481  1.4775
12057SOL    HW237623   8.509   0.993   6.211 -1.0314 -1.2997 -0.7927
12058SOL     OW37624   7.092   1.887   8.527  0.2787  0.3282  0.4579
12058SOL    HW137625   7.072   1.949   8.597 -0.7964  1.0891 -0.4831
12058SOL    HW237626   7.052   1.805   8.555  0.5367  0.4126  1.0905
12059SOL     OW37627   6.326   7.395   6.706  0.1991 -0.5122 -0.2884
12059SOL    HW137628   6.361   7.315   6.744  0.4173  0.5760  2.0499
12059SOL    HW237629   6.232   7.379   6.697  0.5506 -1.8008 -2.1104
12060SOL     OW37630   3.061   8.690   5.060  0.0450 -0.2495 -0.4444
12060SOL    HW137631   2.976   8.653   5.035 -0.3146  0.8894 -0.9895
12060SOL    HW237632   3.123   8.654   4.996 -0.3592  0.3388 -1.1880
12061SOL     OW37633   3.272   7.375   2.161  0.1573  0.1615 -0.9769
12061SOL    HW137634   3.278   7.282   2.183 -0.9543 -0.4010 -2.8365
12061SOL    HW237635   3.229   7.414   2.237  0.6243 -0.8247 -0.1716
12062SOL     OW37636   8.362   0.153   0.228 -0.3888  0.5180  0.3031
12062SOL    HW137637   8.322   0.172   0.313  0.0043 -0.8381  0.8195
12062SOL    HW237638   8.334   0.063   0.208  0.9847  0.1725 -0.1490
12063SOL     OW37639   6.522   1.306   7.656  0.0387 -0.0056  0.2245
12063SOL    HW137640   6.510   1.294   7.750  1.2486  1.3383  0.5910
12063SOL    HW237641   6.503   1.398   7.641  1.8249  0.2991 -0.4697
12064SOL     OW37642   3.696   0.110   7.172  0.2508 -0.2872 -0.2137
12064SOL    HW137643   3.656   0.187   7.212 -0.5186 -1.9490  2.4750
12064SOL    HW237644   3.635   0.084   7.103 -0.0627  0.7910 -0.3578
12065SOL     OW37645   2.149   1.344   6.940  0.2411  0.0140 -0.5730
12065SOL    HW137646   2.182   1.370   7.026 -0.1239  0.2476 -0.4998
12065SOL    HW237647   2.107   1.424   6.905  1.4878  0.2962 -1.5107
12066SOL     OW37648   5.302   1.598   8.920 -0.2830  0.2600  0.3695
12066SOL    HW137649   5.339   1.668   8.973 -0.4723  0.6888 -0.0552
12066SOL    HW237650   5.351   1.600   8.838 -1.4193  1.0526 -0.3308
12067SOL     OW37651   5.017   4.046   1.055 -0.2911 -0.0374  0.0111
12067SOL    HW137652   5.058   4.113   1.000  0.9238  1.0872  2.1343
12067SOL    HW237653   4.925   4.073   1.059 -0.2800  0.1882 -0.9729
12068SOL     OW37654   0.261   1.430   6.024 -0.5734 -0.0300  0.6055
12068SOL    HW137655   0.285   1.361   5.962  2.0974  2.5258 -1.5107
12068SOL    HW237656   0.323   1.419   6.096 -0.8866 -0.4934  0.8060
12069SOL     OW37657   1.635   7.958   6.506 -0.5925  0.2020  0.4419
12069SOL    HW137658   1.556   7.915   6.540 -0.3834 -1.1146 -0.6711
12069SOL    HW237659   1.610   8.050   6.498 -1.3540  0.1689  1.9863
12070SOL     OW37660   3.189   8.817   0.414 -0.1776 -0.0594 -0.3196
12070SOL    HW137661   3.154   8.840   0.328 -0.9245  0.8487  0.2110
12070SOL    HW237662   3.277   8.856   0.415 -0.1882 -0.0251 -0.6452
12071SOL     OW37663   9.090   4.395   2.250 -0.6277  0.0669  0.2718
12071SOL    HW137664   9.103   4.300   2.258 -0.4751  0.0625 -0.0017
12071SOL    HW237665   8.995   4.406   2.250 -0.6826 -0.2145 -1.0178
12072SOL     OW37666   6.343   1.306   6.050 -0.5962 -0.2459 -0.2232
12072SOL    HW137667   6.262   1.328   6.004  1.3237  1.9561 -2.9005
12072SOL    HW237668   6.400   1.268   5.983  0.3402 -2.7047  1.7966
12073SOL     OW37669   1.241   6.137   5.094 -0.5323  0.5678 -0.3184
12073SOL    HW137670   1.238   6.206   5.160 -3.0568 -1.4653  1.9656
12073SOL    HW237671   1.149   6.115   5.080  0.1460 -1.6091 -1.7192
12074SOL     OW37672   0.290   7.487   7.464  0.2816  0.0334 -0.0753
12074SOL    HW137673   0.246   7.522   7.541 -1.4573  2.1903 -1.9069
12074SOL    HW237674   0.224   7.432   7.421  1.6104 -2.1378  0.5013
12075SOL     OW37675   1.779   1.394   1.984  0.5047  0.0605 -0.1385
12075SOL    HW137676   1.804   1.307   1.951 -0.2849  0.4985 -1.9978
12075SOL    HW237677   1.781   1.385   2.079  3.5046 -1.1209 -0.2088
12076SOL     OW37678   2.981   2.639   2.011 -0.1282 -0.8112  0.3975
12076SOL    HW137679   3.031   2.584   2.071  0.7478 -0.1895  0.2398
12076SOL    HW237680   3.030   2.720   2.005 -1.7086  0.2384  1.0648
12077SOL     OW37681   3.168   4.797   5.140  0.1596 -0.2501  0.3291
12077SOL    HW137682   3.137   4.792   5.050 -0.8944  0.1761  0.6542
12077SOL    HW237683   3.110   4.738   5.188  1.2816 -1.1674  0.5932
12078SOL     OW37684   2.866   3.516   5.019  0.7291  0.4039 -0.2588
12078SOL    HW137685   2.945   3.512   4.964  0.4455 -0.1242 -0.6415
12078SOL    HW237686   2.795   3.532   4.957  0.6479  1.9687  0.2012
12079SOL     OW37687   5.979   5.593   2.247  0.5231 -0.3990 -0.1649
12079SOL    HW137688   6.003   5.625   2.160  1.5943  0.2251  0.3380
12079SOL    HW237689   5.991   5.498   2.242  0.5861 -0.3677 -0.6921
12080SOL     OW37690   6.291   1.434   8.493 -0.2433  0.1431 -0.0514
12080SOL    HW137691   6.202   1.401   8.496 -0.3226  0.4326  0.9347
12080SOL    HW237692   6.303   1.480   8.576  1.2850 -1.0695  0.4538
12081SOL     OW37693   7.174   6.587   0.264  0.2892  0.1468 -0.0727
12081SOL    HW137694   7.091   6.550   0.236  0.2375 -0.9801  1.4779
12081SOL    HW237695   7.238   6.551   0.203  0.0771 -1.6926  0.7172
12082SOL     OW37696   4.254   0.824   5.161 -0.3390  0.0405 -0.6644
12082SOL    HW137697   4.228   0.748   5.213  1.0458  0.8084  1.2818
12082SOL    HW237698   4.348   0.814   5.150 -0.1354  1.4318 -0.3798
12083SOL     OW37699   2.657   8.601   3.398 -0.1093 -0.0121 -0.1176
12083SOL    HW137700   2.625   8.585   3.309  1.7144  0.6485 -0.9295
12083SOL    HW237701   2.684   8.515   3.429  2.8680  0.2245 -1.7253
12084SOL     OW37702   5.491   7.079   0.603  0.0327 -0.1951 -0.1482
12084SOL    HW137703   5.432   7.141   0.646 -0.1940 -2.0578  2.4670
12084SOL    HW237704   5.435   7.005   0.579  0.2003  0.6447 -3.6848
12085SOL     OW37705   3.678   7.903   3.858 -0.0696  0.2064 -0.4944
12085SOL    HW137706   3.625   7.827   3.882  1.4607 -1.0076 -0.7618
12085SOL    HW237707   3.677   7.958   3.936 -0.9768 -0.2119 -0.1969
12086SOL     OW37708   6.858   3.647   3.017  0.5814  0.1875 -0.3725
12086SOL    HW137709   6.926   3.582   3.031  0.5862  0.6043  1.9527
12086SOL    HW237710   6.777   3.597   3.012  0.8677 -0.1873 -1.6595
12087SOL     OW37711   2.916   7.874   8.599  0.2122 -0.0125 -0.2681
12087SOL    HW137712   2.965   7.946   8.639  0.4766 -0.5283  0.3718
12087SOL    HW237713   2.947   7.796   8.646  0.2250 -0.5895 -1.2206
12088SOL     OW37714   1.679   5.686   1.902 -0.8869  0.0009  0.1262
12088SOL    HW137715   1.603   5.705   1.958 -0.7060 -0.6317  0.5978
12088SOL    HW237716   1.657   5.726   1.818 -1.5742  0.1574  0.3681
12089SOL     OW37717   5.158   0.244   6.017  0.3457 -0.8043 -0.0800
12089SOL    HW137718   5.081   0.231   5.961 -1.2174 -1.2919  2.0548
12089SOL    HW237719   5.212   0.167   6.002 -0.1506 -1.0316 -0.7550
12090SOL     OW37720   7.811   3.822   5.983 -0.3043  0.3474  0.5440
12090SOL    HW137721   7.798   3.728   5.996  1.0333  0.3189  1.8806
12090SOL    HW237722   7.727   3.861   6.008 -1.6910 -0.5869 -2.2557
12091SOL     OW37723   5.524   7.518   8.066  0.3802  0.1385 -0.2703
12091SOL    HW137724   5.519   7.612   8.047 -1.3004 -0.1240 -1.3031
12091SOL    HW237725   5.441   7.498   8.108  1.5197 -0.5435  1.8194
12092SOL     OW37726   8.698   2.750   4.188 -0.3302  0.3811 -0.2751
12092SOL    HW137727   8.623   2.802   4.161 -2.0184 -1.4368  0.6578
12092SOL    HW237728   8.706   2.683   4.120 -0.2731 -0.0999  0.1968
12093SOL     OW37729   5.032   1.279   2.993 -0.0797  0.2157 -0.5286
12093SOL    HW137730   4.962   1.229   2.952 -1.2668  0.7010  0.8390
12093SOL    HW237731   5.002   1.370   2.992  0.2047  0.3430  0.6715
12094SOL     OW37732   5.154   2.072   8.214 -0.1238 -0.1653  0.1053
12094SOL    HW137733   5.199   2.132   8.274  1.2111  1.6905 -2.5081
12094SOL    HW237734   5.083   2.034   8.266  0.6728  1.5940  2.6931
12095SOL     OW37735   0.188   9.207   4.093 -0.3630 -0.1444  0.4531
12095SOL    HW137736   0.227   9.119   4.095  0.8473  0.3613  0.1203
12095SOL    HW237737   0.259   9.265   4.119 -0.2826  1.0010 -2.0181
12096SOL     OW37738   3.432   1.340   2.561 -0.1181 -0.1793 -0.0350
12096SOL    HW137739   3.492   1.330   2.487  0.2156 -1.5122  0.3939
12096SOL    HW237740   3.482   1.390   2.626  1.3861 -2.9853  1.1481
12097SOL     OW37741   6.487   8.364   5.443  0.0917 -0.1494  0.3929
12097SOL    HW137742   6.494   8.277   5.404  0.8742 -0.7776  1.8518
12097SOL    HW237743   6.412   8.404   5.399 -1.7402 -2.4078  1.2171
12098SOL     OW37744   3.444   0.325   0.290 -0.2186 -0.3553  0.2762
12098SOL    HW137745   3.392   0.272   0.230 -0.6906  1.2676 -0.8235
12098SOL    HW237746   3.381   0.384   0.331  0.6264  1.3913 -0.8025
12099SOL     OW37747   2.704   7.847   1.295  0.1348  1.1019 -0.0493
12099SOL    HW137748   2.787   7.885   1.321  0.6185  0.5682 -0.7627
12099SOL    HW237749   2.721   7.753   1.290 -0.7545  0.8861  0.6803
12100SOL     OW37750   1.104   7.768   6.569 -0.3545  0.6029  0.3939
12100SOL    HW137751   1.039   7.699   6.585  0.2349 -0.4329 -1.3682
12100SOL    HW237752   1.053   7.840   6.531 -0.5099 -0.2654 -1.1311
12101SOL     OW37753   7.676   3.321   7.449  0.5182 -0.3653 -0.0196
12101SOL    HW137754   7.755   3.269   7.469  0.8746  0.3025  0.3425
12101SOL    HW237755   7.604   3.259   7.460  1.0532 -1.2903 -1.4469
12102SOL     OW37756   4.995   4.202   4.817  0.0535 -0.4698 -0.2301
12102SOL    HW137757   4.951   4.117   4.814 -0.8440  0.0047 -1.9726
12102SOL    HW237758   4.925   4.266   4.824  0.7549  0.1635  1.7867
12103SOL     OW37759   1.098   2.390   2.034  0.3067 -0.6662  0.2172
12103SOL    HW137760   1.017   2.365   1.990  0.6141  0.7052 -1.1922
12103SOL    HW237761   1.074   2.395   2.127 -1.7604  1.5427 -0.3337
12104SOL     OW37762   1.889   5.516   3.058  0.1158 -0.1239  0.1804
12104SOL    HW137763   1.966   5.488   3.108 -0.3851 -0.0734  1.0002
12104SOL    HW237764   1.861   5.597   3.101 -1.0277 -0.7141  0.5760
12105SOL     OW37765   6.017   4.519   3.871 -0.1077  0.0929  0.5834
12105SOL    HW137766   6.073   4.476   3.936  2.1341  0.9201 -0.6559
12105SOL    HW237767   6.000   4.451   3.806 -0.0928 -0.0347  0.7134
12106SOL     OW37768   7.018   2.245   1.668  0.9904  0.0038  0.0107
12106SOL    HW137769   6.926   2.227   1.686  1.4837 -0.2447  2.5934
12106SOL    HW237770   7.017   2.290   1.583 -1.3725 -1.0151 -0.5725
12107SOL     OW37771   4.815   0.558   7.789 -0.2868 -0.4399 -0.1124
12107SOL    HW137772   4.858   0.600   7.715  0.7614 -0.6463  0.3548
12107SOL    HW237773   4.748   0.620   7.818 -0.0164  0.0786 -0.5933
12108SOL     OW37774   8.972   2.308   5.866  0.1733  0.1784 -0.0596
12108SOL    HW137775   9.009   2.229   5.905 -1.0522 -0.1617  0.4654
12108SOL    HW237776   8.877   2.295   5.871 -0.1904  2.8742  2.5903
12109SOL     OW37777   6.975   5.156   4.047  0.5197  0.5440  0.2520
12109SOL    HW137778   6.885   5.126   4.050  0.8306 -0.5776 -0.7731
12109SOL    HW237779   7.014   5.110   3.972  2.4671 -0.5803  1.8342
12110SOL     OW37780   1.091   7.660   7.843  0.0134  0.2919  0.3023
12110SOL    HW137781   1.113   7.685   7.753  0.2955  1.1267  0.5997
12110SOL    HW237782   1.164   7.605   7.871  1.0750  1.9101  0.8024
12111SOL     OW37783   6.068   5.191   4.414  0.6199 -0.1229 -0.3479
12111SOL    HW137784   6.037   5.190   4.324 -1.5030 -0.3483  0.3169
12111SOL    HW237785   6.141   5.129   4.415 -1.3975 -2.7345 -1.3058
12112SOL     OW37786   2.388   5.515   0.235  0.3287 -0.4289 -0.3551
12112SOL    HW137787   2.447   5.590   0.230 -1.3844  0.9558 -0.7154
12112SOL    HW237788   2.445   5.439   0.227  2.0430  0.8468 -0.7806
12113SOL     OW37789   2.229   6.352   2.622  0.2228 -0.1500  0.3380
12113SOL    HW137790   2.292   6.280   2.633 -0.3310 -1.0391 -1.8340
12113SOL    HW237791   2.277   6.419   2.574 -0.6138 -1.1928 -2.1301
12114SOL     OW37792   8.629   3.157   3.599 -0.0040 -0.4522 -0.0032
12114SOL    HW137793   8.687   3.146   3.674  1.5350  1.1000 -0.9052
12114SOL    HW237794   8.565   3.223   3.627  0.2375 -0.2744  0.1252
12115SOL     OW37795   4.164   0.220   7.670  0.0329 -0.6458  0.3640
12115SOL    HW137796   4.144   0.227   7.577  0.1602  1.9589  0.4609
12115SOL    HW237797   4.114   0.291   7.711  0.0411 -1.6663  2.2926
12116SOL     OW37798   8.241   0.868   2.486  0.5050 -0.2716 -0.1905
12116SOL    HW137799   8.336   0.875   2.496  0.6350 -2.4697  0.5906
12116SOL    HW237800   8.208   0.953   2.517  2.1113 -0.0960  1.2236
12117SOL     OW37801   2.994   5.049   4.897 -0.1987  0.4733  0.0022
12117SOL    HW137802   2.956   5.077   4.814 -1.6286  0.0870  0.4827
12117SOL    HW237803   2.960   5.111   4.961  0.8895  0.7657  0.3160
12118SOL     OW37804   6.607   8.440   7.476  0.1166  0.1140  0.3585
12118SOL    HW137805   6.617   8.498   7.552  2.6468  0.8539 -0.4679
12118SOL    HW237806   6.534   8.479   7.427  0.9716  1.9398  0.4436
12119SOL     OW37807   4.547   4.918   3.421 -0.2016  0.0833 -0.1789
12119SOL    HW137808   4.642   4.908   3.413 -0.0834  0.0969  1.0719
12119SOL    HW237809   4.518   4.837   3.463 -0.6868  0.2963 -0.0981
12120SOL     OW37810   3.181   7.568   7.703 -0.1445  0.2586  0.3563
12120SOL    HW137811   3.115   7.536   7.765  0.1923 -1.7463 -0.2394
12120SOL    HW237812   3.189   7.498   7.638  2.5454  0.4186  0.3855
12121SOL     OW37813   4.648   1.364   1.500  0.0071 -0.1029 -0.4873
12121SOL    HW137814   4.616   1.381   1.412 -0.1380  1.5455 -0.1524
12121SOL    HW237815   4.577   1.395   1.557  0.9289  0.7601  0.2200
12122SOL     OW37816   2.311   8.267   7.445  0.7005 -0.1965  0.1637
12122SOL    HW137817   2.370   8.313   7.385 -1.4521  1.7924 -0.5618
12122SOL    HW237818   2.232   8.252   7.394 -0.1344 -1.1116  1.6588
12123SOL     OW37819   6.772   2.423   8.925  0.1533  0.6403 -0.0916
12123SOL    HW137820   6.683   2.438   8.955 -0.0930  1.2619 -1.0879
12123SOL    HW237821   6.827   2.474   8.985 -0.0956 -0.1896  0.8674
12124SOL     OW37822   3.582   9.036   3.429  0.1203  0.0976  0.1009
12124SOL    HW137823   3.591   8.983   3.350 -0.4798 -1.9036  1.2729
12124SOL    HW237824   3.598   8.974   3.501 -1.9512  1.1708  1.6066
12125SOL     OW37825   5.067   4.717   0.837  0.8264  0.1703 -0.7279
12125SOL    HW137826   5.026   4.729   0.752  1.0449 -0.3576 -0.9128
12125SOL    HW237827   5.159   4.700   0.817  0.9609  0.4476 -0.3632
12126SOL     OW37828   3.757   6.982   5.530 -0.3992 -0.4301  0.2958
12126SOL    HW137829   3.772   6.976   5.624 -1.2805 -0.0036  0.4710
12126SOL    HW237830   3.719   7.069   5.518  1.1163  0.1496 -0.6498
12127SOL     OW37831   3.134   0.134   0.853  0.0040  0.6664 -0.4699
12127SOL    HW137832   3.225   0.162   0.842  0.5490 -1.0445 -0.6331
12127SOL    HW237833   3.116   0.081   0.775 -1.3892  1.5660 -0.7956
12128SOL     OW37834   4.475   6.185   2.547  0.0724 -0.3985 -0.0714
12128SOL    HW137835   4.399   6.189   2.605  0.1482  0.4606 -0.0144
12128SOL    HW237836   4.541   6.241   2.590  0.9263 -1.5296  0.1439
12129SOL     OW37837   5.274   7.788   1.011  0.1462 -0.1171 -0.3928
12129SOL    HW137838   5.244   7.860   0.956 -0.0112  0.4964  0.4763
12129SOL    HW237839   5.194   7.742   1.036  0.2516 -0.6452 -1.0004
12130SOL     OW37840   5.727   8.165   4.429 -0.4608 -0.2560  0.0269
12130SOL    HW137841   5.819   8.144   4.413 -0.2823 -1.4657  2.2717
12130SOL    HW237842   5.678   8.094   4.387 -0.2703 -0.7048  0.5693
12131SOL     OW37843   1.180   7.589   7.596  0.3470 -0.0509 -0.3361
12131SOL    HW137844   1.251   7.536   7.561  0.1312 -0.0675 -0.7536
12131SOL    HW237845   1.101   7.537   7.579  0.2633 -0.2175  0.4784
12132SOL     OW37846   8.745   7.988   4.471  0.4506 -0.6527 -0.1263
12132SOL    HW137847   8.694   8.062   4.438  0.8914 -1.5635 -3.1014
12132SOL    HW237848   8.815   8.028   4.522 -0.9555  0.7951  0.7616
12133SOL     OW37849   3.492   2.411   2.692 -0.1753 -0.2507  0.4485
12133SOL    HW137850   3.455   2.340   2.744 -1.7117  1.1215  1.3575
12133SOL    HW237851   3.426   2.428   2.624  0.9860 -0.8336 -0.8638
12134SOL     OW37852   0.373   2.031   7.076 -0.0137  0.4602  0.2123
12134SOL    HW137853   0.395   2.059   7.166 -3.8278  1.6433  0.9503
12134SOL    HW237854   0.402   1.940   7.072  0.4910  0.4315  2.5759
12135SOL     OW37855   1.425   0.583   1.472 -0.1063 -0.2679 -0.4721
12135SOL    HW137856   1.399   0.566   1.382  0.8455 -1.3810 -0.5716
12135SOL    HW237857   1.463   0.500   1.502  1.2178  0.5809  0.3499
12136SOL     OW37858   8.349   0.036   9.122  0.4834 -0.0776 -0.0198
12136SOL    HW137859   8.292   0.075   9.189 -0.7678 -1.0077 -0.4979
12136SOL    HW237860   8.403   0.109   9.091 -0.2720  0.7916  0.6334
12137SOL     OW37861   3.384   0.915   3.027 -0.4185 -0.2453  0.5479
12137SOL    HW137862   3.417   0.893   2.941  0.7343 -1.4944  1.2669
12137SOL    HW237863   3.309   0.857   3.039  0.2659 -1.0903  0.9025
12138SOL     OW37864   9.098   3.515   2.326 -0.3280 -0.0204 -0.0722
12138SOL    HW137865   9.084   3.504   2.420 -0.6324  0.9188 -0.0017
12138SOL    HW237866   9.164   3.583   2.319  1.0585 -1.3615 -0.5154
12139SOL     OW37867   4.700   6.729   6.029  0.3787  0.6619  0.1247
12139SOL    HW137868   4.607   6.730   6.051 -0.4003 -2.3718 -2.3295
12139SOL    HW237869   4.740   6.673   6.096 -0.2501 -0.7986 -0.6716
12140SOL     OW37870   6.627   2.792   3.135  0.1746  0.4612 -0.1301
12140SOL    HW137871   6.641   2.755   3.222  0.5918  0.6548 -0.1125
12140SOL    HW237872   6.571   2.729   3.091  2.5020 -1.2997 -0.8120
12141SOL     OW37873   8.004   7.818   1.945  0.3886  0.5510 -0.4603
12141SOL    HW137874   7.990   7.750   1.879  0.9677  0.8031 -0.8520
12141SOL    HW237875   8.060   7.776   2.011  0.1743  0.4361 -0.3505
12142SOL     OW37876   1.801   9.075   4.434  0.1307  0.5890 -0.1391
12142SOL    HW137877   1.736   9.104   4.497 -1.9489 -3.5798 -0.0048
12142SOL    HW237878   1.875   9.047   4.487 -0.7667 -0.9273  0.3724
12143SOL     OW37879   8.118   1.301   2.265 -0.6142 -0.2094 -0.1658
12143SOL    HW137880   8.141   1.210   2.281  1.3615  0.2188 -0.3737
12143SOL    HW237881   8.023   1.300   2.256 -0.8077 -1.9986  1.4122
12144SOL     OW37882   4.994   4.807   1.334 -0.0625  0.0866 -0.6361
12144SOL    HW137883   5.003   4.862   1.257 -1.6500  1.2081 -0.0694
12144SOL    HW237884   4.959   4.865   1.402 -1.1441 -1.4501  0.1943
12145SOL     OW37885   9.235   8.700   8.539  0.1887 -0.2565 -0.2306
12145SOL    HW137886   9.234   8.630   8.472  0.9765 -0.6275  0.1275
12145SOL    HW237887   9.235   8.781   8.488 -2.3103 -0.4502 -0.6474
12146SOL     OW37888   3.862   0.475   7.991 -0.1875  0.0604  0.0715
12146SOL    HW137889   3.892   0.394   8.032  0.3267 -0.4967 -1.3286
12146SOL    HW237890   3.774   0.489   8.025 -0.9276 -1.9771 -0.8560
12147SOL     OW37891   4.038   0.775   3.011 -0.6627  0.5784  0.1188
12147SOL    HW137892   4.125   0.776   3.050 -0.0282  1.2843 -1.2696
12147SOL    HW237893   3.980   0.805   3.081  0.3384  1.0829  0.7449
12148SOL     OW37894   7.514   2.125   8.648 -0.1050  0.5243  0.1682
12148SOL    HW137895   7.460   2.046   8.643  0.2552  0.2905 -0.0065
12148SOL    HW237896   7.516   2.147   8.741 -0.9343  0.8321  0.1203
12149SOL     OW37897   0.415   4.026   7.796  0.1906  0.0151 -0.3032
12149SOL    HW137898   0.381   4.024   7.706  3.8831 -1.0043 -1.8464
12149SOL    HW237899   0.422   3.933   7.820 -0.0986  0.2736  0.8034
12150SOL     OW37900   1.062   2.062   6.423  0.1204  0.8394 -0.2451
12150SOL    HW137901   1.004   2.003   6.373  1.5734 -1.4353  0.5881
12150SOL    HW237902   1.116   2.105   6.356 -1.0051  1.3034 -0.8801
12151SOL     OW37903   8.578   8.574   2.661  0.0711  0.2640 -0.0063
12151SOL    HW137904   8.515   8.605   2.595  1.4890  0.4030 -1.3514
12151SOL    HW237905   8.540   8.493   2.693 -0.6029  0.1111 -1.1238
12152SOL     OW37906   3.450   2.413   7.186  0.1667  0.4662  0.2049
12152SOL    HW137907   3.410   2.491   7.224 -0.6943 -0.5875  1.5749
12152SOL    HW237908   3.456   2.431   7.093  1.2932  2.7187  0.6326
12153SOL     OW37909   7.573   4.259   2.692  0.3146  0.1981 -0.8714
12153SOL    HW137910   7.543   4.344   2.659 -1.1478 -0.4284 -1.2425
12153SOL    HW237911   7.577   4.271   2.787  1.7815  1.1657 -1.0263
12154SOL     OW37912   6.474   0.006   4.119  0.0021  0.0762 -0.5446
12154SOL    HW137913   6.518  -0.079   4.130  2.2374  1.0286 -1.4633
12154SOL    HW237914   6.543   0.071   4.134 -0.8016  1.6700 -3.0845
12155SOL     OW37915   2.785   1.131   5.455  0.1551  0.2577  0.1274
12155SOL    HW137916   2.861   1.075   5.441  1.3341  1.5979  0.9552
12155SOL    HW237917   2.821   1.215   5.481 -1.5483  1.6506 -1.7179
12156SOL     OW37918   0.057   6.132   6.486  0.1111 -0.0014 -0.4363
12156SOL    HW137919   0.017   6.064   6.431  0.3807 -0.0139 -0.6227
12156SOL    HW237920   0.071   6.089   6.571 -0.8147  0.1855 -0.1881
12157SOL     OW37921   4.111   5.597   8.937 -0.1295  0.2198 -0.2648
12157SOL    HW137922   4.144   5.507   8.936 -0.4332  0.1054 -1.0917
12157SOL    HW237923   4.018   5.589   8.916 -0.9042  0.4883  2.6327
12158SOL     OW37924   5.341   7.469   8.300 -0.1270  0.6029  0.6196
12158SOL    HW137925   5.282   7.447   8.228 -0.6134  2.1912  0.4966
12158SOL    HW237926   5.334   7.395   8.360 -2.0744  0.6199  0.4883
12159SOL     OW37927   2.929   3.709   4.019 -0.0309  1.0255 -0.2037
12159SOL    HW137928   2.946   3.796   4.057  4.0024  0.6403 -0.6893
12159SOL    HW237929   2.881   3.663   4.087  0.5354  2.6674  1.4174
12160SOL     OW37930   7.493   8.625   2.537 -0.0851  0.2325 -0.1428
12160SOL    HW137931   7.521   8.567   2.609  0.0066 -0.0207 -0.3792
12160SOL    HW237932   7.574   8.643   2.489  0.4029  2.6278  1.3732
12161SOL     OW37933   8.866   9.150   6.052  0.1243  0.6280  0.5150
12161SOL    HW137934   8.818   9.231   6.068 -2.4053 -0.9526  1.5132
12161SOL    HW237935   8.809   9.080   6.085  1.8375 -1.6550 -0.9670
12162SOL     OW37936   3.144   1.360   0.194 -0.4067  0.0082  0.0420
12162SOL    HW137937   3.122   1.329   0.106 -0.2524 -0.2335  0.0861
12162SOL    HW237938   3.134   1.455   0.190  1.1842  0.1740 -0.6994
12163SOL     OW37939   3.644   7.139   7.014 -0.4228 -0.1503  0.6948
12163SOL    HW137940   3.591   7.137   7.093  0.0527  2.7525  1.2120
12163SOL    HW237941   3.587   7.101   6.946 -1.5139 -1.0116  2.0367
12164SOL     OW37942   6.136   2.711   8.650 -0.1085 -0.6670 -0.4308
12164SOL    HW137943   6.123   2.803   8.672 -0.2824 -0.9116  0.5828
12164SOL    HW237944   6.223   2.707   8.611  0.5540 -0.2718  0.9318
12165SOL     OW37945   0.917   7.178   5.487 -0.2217 -0.2705 -0.5699
12165SOL    HW137946   0.847   7.120   5.457 -0.4859 -1.0387  1.3983
12165SOL    HW237947   0.995   7.146   5.441 -0.8943 -0.2762 -1.7470
12166SOL     OW37948   1.615   7.545   4.533 -0.2674 -0.6612  0.0224
12166SOL    HW137949   1.631   7.486   4.608 -0.0712  0.0414  0.5441
12166SOL    HW237950   1.544   7.502   4.484 -0.3539 -1.1693  0.5714
12167SOL     OW37951   6.107   1.691   5.965  0.0174 -0.1086  0.0457
12167SOL    HW137952   6.096   1.599   5.939  1.0660  0.0503 -1.0614
12167SOL    HW237953   6.034   1.736   5.922 -0.5215 -0.4257  0.6214
12168SOL     OW37954   3.625   3.298   5.272 -0.5249 -0.6273  0.4726
12168SOL    HW137955   3.607   3.387   5.304 -0.3736 -0.7521  0.9096
12168SOL    HW237956   3.554   3.245   5.309  0.1755 -0.9427  1.3925
12169SOL     OW37957   3.075   7.147   3.911 -0.1100  0.4446 -0.2837
12169SOL    HW137958   3.055   7.076   3.972 -0.9576  1.3579  0.5410
12169SOL    HW237959   3.052   7.112   3.825 -1.1881 -0.0326  0.1851
12170SOL     OW37960   6.385   1.527   8.174  0.1083 -0.0925 -0.2109
12170SOL    HW137961   6.322   1.599   8.164  0.1865 -0.1792 -1.6640
12170SOL    HW237962   6.347   1.455   8.123  1.0531 -0.3646 -0.5579
12171SOL     OW37963   1.836   2.363   0.513  0.3855  0.1555  0.0028
12171SOL    HW137964   1.920   2.401   0.536  0.8919 -0.9103 -0.0324
12171SOL    HW237965   1.771   2.422   0.551  1.0876  1.9014 -1.3554
12172SOL     OW37966   0.124   7.365   3.196 -0.0740  0.1742  0.1063
12172SOL    HW137967   0.052   7.411   3.240 -0.6657 -0.2510 -0.4090
12172SOL    HW237968   0.081   7.300   3.141  0.6077  1.1107 -1.6132
12173SOL     OW37969   3.992   8.186   4.565  0.4091  0.2499  0.1158
12173SOL    HW137970   3.925   8.230   4.617 -0.5179  0.3849 -1.1731
12173SOL    HW237971   4.041   8.134   4.630 -0.4904  0.6751  1.1787
12174SOL     OW37972   1.136   2.379   1.553 -0.2775  0.0798 -0.1613
12174SOL    HW137973   1.150   2.458   1.604 -0.3335 -0.6580  1.0418
12174SOL    HW237974   1.198   2.316   1.590  0.2466 -0.2404 -1.5531
12175SOL     OW37975   6.383   5.620   3.452  0.1838  0.4206  0.7377
12175SOL    HW137976   6.322   5.597   3.382  0.8026  1.6814 -0.2588
12175SOL    HW237977   6.469   5.593   3.418  0.6219  1.9940  0.5202
12176SOL     OW37978   5.530   4.953   5.197  0.1894 -0.3274  0.1972
12176SOL    HW137979   5.558   4.882   5.139  1.1448  0.7171 -0.6680
12176SOL    HW237980   5.594   4.953   5.268  0.8532  0.3846 -0.3979
12177SOL     OW37981   5.089   4.963   0.191 -1.0902  0.5363 -0.5539
12177SOL    HW137982   5.073   5.022   0.118 -0.1703  0.2668 -0.9859
12177SOL    HW237983   5.175   4.989   0.225 -1.4969  0.6550  0.4357
12178SOL     OW37984   6.175   6.589   6.706 -0.2500  0.9815 -0.7068
12178SOL    HW137985   6.134   6.669   6.739 -0.8866 -0.1171  1.3625
12178SOL    HW237986   6.112   6.556   6.641 -0.8981  1.1858 -0.1988
12179SOL     OW37987   2.179   5.105   1.356  0.5122  0.0776  0.3772
12179SOL    HW137988   2.214   5.102   1.445  2.1337 -1.9617 -0.2549
12179SOL    HW237989   2.128   5.024   1.348  0.7096  0.0483 -0.6644
12180SOL     OW37990   7.614   8.573   5.703 -0.2509 -0.2301  0.6147
12180SOL    HW137991   7.582   8.528   5.781 -1.4995 -1.6084 -0.6274
12180SOL    HW237992   7.538   8.578   5.646  1.4042 -2.8115 -2.1173
12181SOL     OW37993   2.871   7.581   6.811  0.1197 -0.3854  0.3405
12181SOL    HW137994   2.871   7.670   6.846 -0.9921 -0.9563  1.8828
12181SOL    HW237995   2.928   7.531   6.870  1.6197 -0.5348 -1.1262
12182SOL     OW37996   1.651   8.530   2.161  0.3346 -0.4468  0.0215
12182SOL    HW137997   1.718   8.580   2.206  0.4717  0.0434 -0.7023
12182SOL    HW237998   1.568   8.569   2.191  0.2930 -1.8025  1.7990
12183SOL     OW37999   2.959   0.527   7.303  0.3636  0.9945  0.1567
12183SOL    HW138000   2.899   0.595   7.331 -0.1251  0.1310  1.2821
12183SOL    HW238001   2.903   0.460   7.263  0.7535  0.9261 -0.2832
12184SOL     OW38002   7.794   4.066   0.776 -0.6022 -0.3140 -0.0310
12184SOL    HW138003   7.857   4.025   0.834 -0.1818 -0.2446 -0.4376
12184SOL    HW238004   7.780   4.003   0.706 -2.2075 -1.0183  0.8780
12185SOL     OW38005   8.281   8.168   0.751  0.1011 -0.7546 -0.0879
12185SOL    HW138006   8.200   8.118   0.757  0.4046 -1.5078 -1.7835
12185SOL    HW238007   8.349   8.107   0.780  0.0705 -0.0550  1.5445
12186SOL     OW38008   5.361   0.008   0.312  0.1001 -0.1598 -0.4574
12186SOL    HW138009   5.422   0.001   0.386 -1.3037  0.7270  0.8420
12186SOL    HW238010   5.328   0.098   0.317 -0.4256 -0.2470 -1.8651
12187SOL     OW38011   1.828   7.111   1.853 -0.3941  0.1719  0.1660
12187SOL    HW138012   1.866   7.031   1.891  0.1105 -0.5136 -1.7084
12187SOL    HW238013   1.888   7.136   1.783  0.4828  3.3157  1.8302
12188SOL     OW38014   0.365   7.575   7.102 -0.3499 -0.3252  0.3454
12188SOL    HW138015   0.320   7.607   7.180 -1.5982 -0.6998 -0.1885
12188SOL    HW238016   0.316   7.613   7.029 -0.0100 -1.0336 -0.2674
12189SOL     OW38017   3.983   5.517   8.637  0.1754  0.1885  0.2489
12189SOL    HW138018   4.014   5.604   8.610 -0.6235  0.3620 -0.1361
12189SOL    HW238019   3.896   5.510   8.599  0.7890 -1.3704 -0.9552
12190SOL     OW38020   3.755   6.152   8.304 -0.2851  0.1413 -0.1472
12190SOL    HW138021   3.666   6.117   8.306 -0.5703  0.6977 -1.5136
12190SOL    HW238022   3.809   6.079   8.273 -0.1379 -0.3818  1.2637
12191SOL     OW38023   7.254   3.481   4.892 -0.3102 -0.0046  0.1475
12191SOL    HW138024   7.330   3.425   4.908 -1.1168 -0.9318  0.8894
12191SOL    HW238025   7.238   3.474   4.798  0.9094  0.7448 -0.1377
12192SOL     OW38026   0.599   1.251   5.973  0.0974 -0.3875 -0.4102
12192SOL    HW138027   0.673   1.312   5.978  0.5710 -1.0222  0.4220
12192SOL    HW238028   0.633   1.168   6.006 -0.7409 -0.9295 -0.8626
12193SOL     OW38029   1.834   2.318   0.107  0.5455 -0.4607 -0.2842
12193SOL    HW138030   1.907   2.271   0.149  0.9448  0.2063 -0.2250
12193SOL    HW238031   1.848   2.410   0.129  0.5439 -0.1334 -1.5589
12194SOL     OW38032   7.078   6.747   7.037  0.2403  0.6278  0.2201
12194SOL    HW138033   7.089   6.713   7.126 -0.0758  0.2184  0.1103
12194SOL    HW238034   7.092   6.841   7.045  0.6767  0.5333  0.6192
12195SOL     OW38035   3.737   1.800   6.700  0.2075 -0.2102  0.8498
12195SOL    HW138036   3.673   1.814   6.770  0.1485  2.4883  0.3879
12195SOL    HW238037   3.686   1.807   6.619  1.0266  2.2607  0.4704
12196SOL     OW38038   7.437   5.783   0.246 -0.2580 -0.4304 -0.5706
12196SOL    HW138039   7.481   5.761   0.164 -0.3305 -0.2266 -0.6639
12196SOL    HW238040   7.440   5.879   0.250 -2.4327 -0.2800 -1.5312
12197SOL     OW38041   6.201   6.256   4.784 -0.1655 -0.2624  0.6472
12197SOL    HW138042   6.149   6.256   4.865 -1.5353  1.1279 -0.1880
12197SOL    HW238043   6.288   6.226   4.812 -0.9167 -0.9378  2.4068
12198SOL     OW38044   2.594   6.837   8.028 -0.3515  0.0461  0.1460
12198SOL    HW138045   2.594   6.904   8.096 -1.1589 -0.6955  0.9227
12198SOL    HW238046   2.501   6.821   8.011 -0.1702 -0.6881 -0.1900
12199SOL     OW38047   2.217   5.341   6.256 -0.7477 -0.3013 -0.1065
12199SOL    HW138048   2.134   5.380   6.283 -1.5137 -2.4420  0.8914
12199SOL    HW238049   2.193   5.254   6.224  1.2611 -1.6909  1.8748
12200SOL     OW38050   3.906   0.555   6.943 -0.4206  0.3160 -0.3418
12200SOL    HW138051   3.963   0.575   7.018 -1.0302  1.0901 -0.0721
12200SOL    HW238052   3.965   0.555   6.868  0.1323 -0.0551  0.0806
12201SOL     OW38053   0.794   5.940   0.651  0.5230 -0.7351  0.1787
12201SOL    HW138054   0.712   5.974   0.688  0.1798  0.2881 -1.4229
12201SOL    HW238055   0.772   5.916   0.561  1.5875 -2.1363  0.2625
12202SOL     OW38056   2.965   8.980   0.459 -0.1442 -0.0047 -0.5502
12202SOL    HW138057   3.013   8.907   0.497 -1.2522 -0.9569 -0.9354
12202SOL    HW238058   2.968   8.965   0.365 -0.7255  0.2095 -0.6095
12203SOL     OW38059   1.391   3.296   2.005 -0.3635 -0.3830  0.3457
12203SOL    HW138060   1.453   3.369   2.000  1.3268 -1.7668 -0.0869
12203SOL    HW238061   1.320   3.321   1.945  0.3795  0.7059 -0.1221
12204SOL     OW38062   0.399   1.656   3.925 -0.8355 -0.0748  0.5918
12204SOL    HW138063   0.426   1.688   4.012  2.8479 -1.5663  0.2074
12204SOL    HW238064   0.388   1.562   3.937  0.0249 -0.3461 -0.5699
12205SOL     OW38065   3.053   0.973   2.429 -0.1569 -0.4204 -0.1596
12205SOL    HW138066   3.148   0.981   2.415 -0.3483 -1.2198 -2.2180
12205SOL    HW238067   3.028   1.058   2.465  1.4817 -0.5691  1.5168
12206SOL     OW38068   7.330   2.633   2.462 -0.3880 -0.0293 -0.3356
12206SOL    HW138069   7.326   2.681   2.544  0.1277  0.5307 -0.6331
12206SOL    HW238070   7.424   2.626   2.442 -0.5036 -0.2302 -0.8388
12207SOL     OW38071   5.002   5.886   7.642  0.1259 -0.3858 -0.0961
12207SOL    HW138072   4.915   5.925   7.646 -0.2873 -1.2644 -0.2322
12207SOL    HW238073   4.995   5.820   7.573  0.9010 -0.4508 -0.1145
12208SOL     OW38074   8.974   2.982   5.543 -0.1982  0.3854 -0.1351
12208SOL    HW138075   8.926   2.907   5.579  0.8864 -0.2467  0.0180
12208SOL    HW238076   8.968   3.049   5.611  0.4674 -0.2441  0.5597
12209SOL     OW38077   1.232   0.638   6.602 -0.2487 -0.2587 -0.0130
12209SOL    HW138078   1.284   0.561   6.622 -0.2284 -0.7565 -1.8460
12209SOL    HW238079   1.212   0.631   6.509 -2.7887  0.4162  0.3932
12210SOL     OW38080   7.034   1.325   9.151  0.0844  0.0547 -0.6403
12210SOL    HW138081   7.084   1.269   9.211  0.5126  3.1195  2.1323
12210SOL    HW238082   7.096   1.390   9.121 -1.0896  0.9921 -1.1219
12211SOL     OW38083   4.676   5.179   8.321  0.1290 -0.0465  0.6064
12211SOL    HW138084   4.674   5.273   8.303 -1.5504 -0.0967  0.3980
12211SOL    HW238085   4.675   5.139   8.234  0.0596 -0.2561  0.7034
12212SOL     OW38086   0.337   5.994   8.615  0.2015 -0.3494 -0.2698
12212SOL    HW138087   0.398   5.921   8.626 -1.5980 -1.9678 -0.5106
12212SOL    HW238088   0.361   6.033   8.531  1.3861 -0.4595  0.0024
12213SOL     OW38089   6.981   0.075   6.871 -0.2975  0.0700 -0.0927
12213SOL    HW138090   6.985   0.102   6.962  1.8395 -0.0010 -0.1103
12213SOL    HW238091   7.071   0.086   6.838 -0.9564 -0.0835 -2.1282
12214SOL     OW38092   0.129   6.484   6.182 -0.3237 -0.2064 -0.0834
12214SOL    HW138093   0.097   6.566   6.219 -0.1769  0.4906 -1.4393
12214SOL    HW238094   0.185   6.448   6.251 -0.7150  0.6258  0.6978
12215SOL     OW38095   3.966   2.493   6.685 -0.0832  0.0171  0.2609
12215SOL    HW138096   3.930   2.405   6.678  0.0363 -0.0053 -0.0635
12215SOL    HW238097   4.025   2.502   6.610 -1.4107  0.9874 -0.7192
12216SOL     OW38098   5.399   5.106   6.906  0.0476 -0.6661  0.2475
12216SOL    HW138099   5.489   5.128   6.882  0.1481 -2.3663 -1.1476
12216SOL    HW238100   5.372   5.176   6.964  1.9362  0.4203 -0.0995
12217SOL     OW38101   4.787   4.194   7.338  0.0124  0.1163 -0.3316
12217SOL    HW138102   4.708   4.187   7.392  0.0469 -0.5581 -0.3483
12217SOL    HW238103   4.843   4.256   7.384 -0.4058  0.3657 -0.1594
12218SOL     OW38104   8.483   8.639   0.863  0.4256 -0.3059  0.0764
12218SOL    HW138105   8.527   8.698   0.924  1.2502 -0.3817 -0.4231
12218SOL    HW238106   8.392   8.667   0.864  0.6463  0.4338  0.4778
12219SOL     OW38107   2.606   9.155   8.141  0.7569  0.0625  0.1935
12219SOL    HW138108   2.594   9.239   8.185  1.4913 -0.3767  1.2579
12219SOL    HW238109   2.634   9.095   8.210  0.0727 -1.1141 -0.5143
12220SOL     OW38110   2.930   2.948   2.198 -0.0527  0.0215  0.0698
12220SOL    HW138111   2.964   2.906   2.119  0.3869 -0.0946  0.3154
12220SOL    HW238112   2.981   3.028   2.207 -1.7576  1.3054 -1.1103
12221SOL     OW38113   1.299   1.491   8.337 -0.0157  0.0886  0.2248
12221SOL    HW138114   1.232   1.426   8.315 -0.1165 -0.1890  1.3122
12221SOL    HW238115   1.316   1.537   8.254 -0.7467 -0.5749 -0.3047
12222SOL     OW38116   8.143   8.056   7.958  0.4033  0.0182 -0.7565
12222SOL    HW138117   8.163   8.033   8.049 -0.6913 -1.0141 -0.7420
12222SOL    HW238118   8.132   7.971   7.914  1.0740  0.5019 -1.8905
12223SOL     OW38119   2.277   8.846   0.443  0.4619  0.1049  0.1789
12223SOL    HW138120   2.370   8.832   0.460  0.6614 -3.0024 -2.4739
12223SOL    HW238121   2.233   8.813   0.521  1.5245  0.3733  0.9193
12224SOL     OW38122   1.395   1.937   8.445  0.2771  0.0669  0.1172
12224SOL    HW138123   1.432   1.933   8.533  0.8201 -0.1836 -0.1223
12224SOL    HW238124   1.346   1.855   8.436 -0.9155  0.6892  0.6771
12225SOL     OW38125   8.439   5.356   1.639 -0.2547  0.1325 -0.3757
12225SOL    HW138126   8.532   5.337   1.631  0.3934  2.3845  1.0095
12225SOL    HW238127   8.421   5.420   1.570 -0.0820  1.8126  1.0860
12226SOL     OW38128   7.531   4.625   5.976 -0.1049  0.6005  0.0053
12226SOL    HW138129   7.568   4.712   5.991  1.7186 -0.1692  0.3065
12226SOL    HW238130   7.608   4.568   5.968 -1.2526 -1.0479  0.2482
12227SOL     OW38131   0.911   4.257   5.409  0.0888 -0.4618 -0.1498
12227SOL    HW138132   0.932   4.174   5.367  0.8765 -0.3310 -0.0328
12227SOL    HW238133   0.995   4.303   5.414 -0.0880 -0.2484  1.0772
12228SOL     OW38134   3.615   5.650   1.951 -0.6346  0.6860 -0.6058
12228SOL    HW138135   3.552   5.579   1.957 -0.8357  0.8116 -1.1922
12228SOL    HW238136   3.562   5.728   1.934 -0.3187  0.7714 -1.2307
12229SOL     OW38137   3.793   1.403   4.144  0.0098 -0.0126 -0.2574
12229SOL    HW138138   3.813   1.460   4.069  2.1653  3.0654  2.4055
12229SOL    HW238139   3.716   1.442   4.184  0.2318 -0.2308  0.3974
12230SOL     OW38140   7.766   5.949   0.413  0.1935 -0.5053 -0.1561
12230SOL    HW138141   7.694   6.008   0.432 -0.4131 -1.0605 -0.6598
12230SOL    HW238142   7.842   5.987   0.456 -0.4422 -0.0032  0.5216
12231SOL     OW38143   4.258   0.083   6.489 -0.4663  0.2767  0.4233
12231SOL    HW138144   4.313   0.010   6.514 -0.5260  0.2256  0.4060
12231SOL    HW238145   4.273   0.094   6.395 -0.9675 -0.1457  0.2912
12232SOL     OW38146   1.683   1.405   0.761 -0.5986 -0.2077  0.4352
12232SOL    HW138147   1.624   1.474   0.732 -1.0783 -1.2211 -1.1878
12232SOL    HW238148   1.763   1.450   0.787 -0.4855  0.9238 -1.6442
12233SOL     OW38149   8.987   3.577   5.674  0.4717  0.7888 -0.3037
12233SOL    HW138150   8.940   3.657   5.650 -0.9326  0.5580  1.4954
12233SOL    HW238151   8.960   3.559   5.764  1.1907 -1.4117 -0.4724
12234SOL     OW38152   6.181   3.408   3.855 -0.3402 -0.0826 -0.2236
12234SOL    HW138153   6.129   3.488   3.855 -0.3149 -0.0658 -0.1544
12234SOL    HW238154   6.164   3.368   3.940 -0.9533 -0.5430 -0.5496
12235SOL     OW38155   0.888   5.883   5.486  0.1458  0.0680 -0.2497
12235SOL    HW138156   0.854   5.936   5.414 -2.7563 -0.9013  0.2791
12235SOL    HW238157   0.822   5.892   5.555  0.6278 -2.4894  0.6447
12236SOL     OW38158   3.048   4.819   6.769  0.1594 -0.0673 -0.0062
12236SOL    HW138159   2.967   4.829   6.719 -1.2476 -0.6680  2.0055
12236SOL    HW238160   3.108   4.883   6.731  0.0094 -1.9466 -3.8386
12237SOL     OW38161   4.033   3.339   5.312 -0.3003 -0.0269  0.1896
12237SOL    HW138162   4.110   3.350   5.368 -1.2823  3.0707  1.1543
12237SOL    HW238163   3.963   3.312   5.371 -0.6631  0.2881 -0.0861
12238SOL     OW38164   7.337   2.859   3.352  0.1573 -0.2728  0.2250
12238SOL    HW138165   7.378   2.867   3.266  1.5054 -0.3419  0.8437
12238SOL    HW238166   7.255   2.907   3.344 -0.4174 -1.4411 -1.5086
12239SOL     OW38167   3.169   3.640   2.680  0.0598 -0.3704 -0.1427
12239SOL    HW138168   3.219   3.714   2.716  0.0749 -1.1378  1.4941
12239SOL    HW238169   3.084   3.646   2.722 -0.4484 -0.4491 -1.1346
12240SOL     OW38170   0.515   9.042   4.675 -0.2070  0.0749 -0.4124
12240SOL    HW138171   0.531   8.997   4.759  0.9082  0.1511 -0.5693
12240SOL    HW238172   0.549   9.130   4.688 -2.9136  1.1351  0.0885
12241SOL     OW38173   7.554   8.060   9.062 -0.3904 -0.7858 -0.8354
12241SOL    HW138174   7.641   8.096   9.042 -0.8507  1.6665  1.1056
12241SOL    HW238175   7.499   8.089   8.990 -0.4478  1.4386  0.0098
12242SOL     OW38176   1.810   7.338   0.359 -0.1635 -0.3727 -0.2625
12242SOL    HW138177   1.846   7.317   0.445  0.2343  1.2689  0.0071
12242SOL    HW238178   1.764   7.258   0.332  2.0369 -1.8864  0.2176
12243SOL     OW38179   1.557   8.640   0.722  0.4096 -0.2778  0.2256
12243SOL    HW138180   1.631   8.635   0.782  0.3069  0.7578  0.4561
12243SOL    HW238181   1.529   8.732   0.726 -0.8271 -0.6316  0.0779
12244SOL     OW38182   4.739   8.658   6.521  0.1441 -0.1374  0.6930
12244SOL    HW138183   4.757   8.571   6.557  1.8309 -0.0376  0.1937
12244SOL    HW238184   4.773   8.719   6.586  0.5721  0.1036  0.2474
12245SOL     OW38185   3.281   3.337   4.188  0.0447  0.0536  0.1563
12245SOL    HW138186   3.198   3.383   4.184 -0.1211 -0.1993  0.5865
12245SOL    HW238187   3.261   3.249   4.156  0.6830  0.6885 -2.1456
12246SOL     OW38188   9.257   8.192   6.207  0.1901 -0.3245  0.2422
12246SOL    HW138189   9.187   8.148   6.159  0.7855 -0.4461 -0.5415
12246SOL    HW238190   9.299   8.122   6.257  0.0785 -0.3462  0.3053
12247SOL     OW38191   9.130   1.830   4.001  0.1778  0.1764 -0.8317
12247SOL    HW138192   9.223   1.847   3.988  0.6548 -1.0262  0.7270
12247SOL    HW238193   9.127   1.756   4.061 -1.7980  0.9985  0.1685
12248SOL     OW38194   8.810   4.545   8.941  0.1758  0.0845  0.0957
12248SOL    HW138195   8.744   4.527   9.008 -0.4891  2.1231  0.0517
12248SOL    HW238196   8.788   4.487   8.869 -0.7915 -0.1870  0.5916
12249SOL     OW38197   8.837   8.862   6.603  0.0976 -0.2986 -0.1711
12249SOL    HW138198   8.919   8.813   6.598  0.5777  0.5276 -0.5435
12249SOL    HW238199   8.840   8.924   6.530 -0.7089 -0.0318  0.0006
12250SOL     OW38200   1.093   1.578   9.081  0.0771  0.0220  0.8696
12250SOL    HW138201   1.134   1.659   9.110 -0.0541  1.3166 -2.2055
12250SOL    HW238202   1.025   1.605   9.020  0.3071 -2.4049 -0.5995
12251SOL     OW38203   2.878   3.405   6.557 -0.0298 -0.3034 -0.1691
12251SOL    HW138204   2.807   3.352   6.522  0.9097 -1.1638 -0.8302
12251SOL    HW238205   2.928   3.345   6.612  0.2241  0.2717  0.2344
12252SOL     OW38206   0.826   3.521   8.535 -0.3829  0.3504 -0.4731
12252SOL    HW138207   0.804   3.521   8.628 -0.6978 -1.1782 -0.5300
12252SOL    HW238208   0.876   3.602   8.522 -0.5042  0.6745  0.9730
12253SOL     OW38209   1.568   7.690   0.386  0.4595 -0.0395  0.0679
12253SOL    HW138210   1.532   7.732   0.465 -0.1556 -1.5450  0.6291
12253SOL    HW238211   1.599   7.763   0.333 -0.2454  1.1055  1.1483
12254SOL     OW38212   4.651   0.084   5.033  0.2212  0.4661  0.3188
12254SOL    HW138213   4.565   0.069   5.072  0.6828  0.1019  1.2144
12254SOL    HW238214   4.702   0.128   5.100  1.5133 -1.5547  0.7736
12255SOL     OW38215   2.135   7.042   4.812 -0.3931 -0.2734  0.5493
12255SOL    HW138216   2.117   6.978   4.881  0.6778 -0.5382  0.6036
12255SOL    HW238217   2.224   7.074   4.831  0.6204 -1.5619 -1.6117
12256SOL     OW38218   0.980   1.639   1.923  0.1283  0.8742 -0.0101
12256SOL    HW138219   1.025   1.697   1.985  0.6685  0.9515 -0.4671
12256SOL    HW238220   1.034   1.641   1.844  0.5716 -0.8469  0.2154
12257SOL     OW38221   4.552   0.733   3.311  0.0371 -0.0706 -0.5104
12257SOL    HW138222   4.524   0.644   3.291  0.9394 -0.8164  1.2842
12257SOL    HW238223   4.552   0.737   3.407  1.2361  1.4574 -0.5342
12258SOL     OW38224   5.124   7.696   6.023  0.1635 -0.0921  0.4599
12258SOL    HW138225   5.059   7.724   5.959  0.5010 -0.7397 -0.1776
12258SOL    HW238226   5.109   7.752   6.099  0.7457  1.7466 -0.7141
12259SOL     OW38227   8.941   3.472   2.865 -0.4907 -0.4138 -0.1411
12259SOL    HW138228   8.877   3.414   2.905 -0.1239 -0.4004  0.4734
12259SOL    HW238229   8.906   3.560   2.879  0.5350 -0.2613  1.8693
12260SOL     OW38230   7.811   8.894   5.206 -0.3959  0.4690 -0.2810
12260SOL    HW138231   7.798   8.895   5.111  0.8574 -1.6019 -0.5473
12260SOL    HW238232   7.733   8.935   5.242 -1.2356  0.6287 -2.1844
12261SOL     OW38233   6.007   3.550   2.183  0.0419  0.2006  0.0911
12261SOL    HW138234   6.053   3.630   2.157 -0.3407  0.0321 -1.1510
12261SOL    HW238235   5.980   3.567   2.274  2.5481  0.2661  0.8998
12262SOL     OW38236   1.467   3.024   3.193 -0.7551  0.1418  0.4028
12262SOL    HW138237   1.515   3.002   3.113 -0.2792 -3.1132  1.4590
12262SOL    HW238238   1.387   2.972   3.188 -0.1651 -1.0635  2.5576
12263SOL     OW38239   1.983   0.059   4.604  0.3951 -0.0237 -0.4088
12263SOL    HW138240   2.015  -0.029   4.623  0.7147  0.4432  1.3696
12263SOL    HW238241   1.906   0.044   4.548  0.3261 -1.4317  0.0176
12264SOL     OW38242   8.431   5.606   3.898 -0.2953  0.5362  0.2067
12264SOL    HW138243   8.488   5.545   3.852 -1.0890 -0.8814  1.0399
12264SOL    HW238244   8.360   5.624   3.836 -0.7295 -0.4200  0.4067
12265SOL     OW38245   7.628   2.558   7.995  0.4530  0.2339  0.4873
12265SOL    HW138246   7.565   2.524   8.058  2.2480  1.2839  3.0445
12265SOL    HW238247   7.713   2.529   8.029  1.5213  1.1668 -1.2693
12266SOL     OW38248   3.276   1.258   4.506 -0.0016 -0.2519  0.0116
12266SOL    HW138249   3.256   1.218   4.421 -2.6919  1.4962 -0.3094
12266SOL    HW238250   3.345   1.321   4.487 -0.7085  0.2560 -0.9592
12267SOL     OW38251   6.574   2.516   3.589 -0.0762  0.1872  0.1500
12267SOL    HW138252   6.628   2.582   3.632  1.4332 -1.8156  1.5357
12267SOL    HW238253   6.636   2.460   3.542 -1.0774 -1.2620  0.4621
12268SOL     OW38254   5.354   1.999   7.589  0.2114 -0.4376 -0.2059
12268SOL    HW138255   5.314   2.079   7.556  0.5753 -0.7876 -1.5643
12268SOL    HW238256   5.287   1.961   7.646 -0.6345 -0.0282 -0.8905
12269SOL     OW38257   2.048   0.604   9.194  0.6186 -0.1209 -0.1621
12269SOL    HW138258   2.032   0.690   9.234 -0.4485 -0.5288  0.3063
12269SOL    HW238259   1.964   0.558   9.200  0.7320 -0.6127 -1.8716
12270SOL     OW38260   2.361   9.116   3.154  0.3356  0.0361 -0.4380
12270SOL    HW138261   2.429   9.175   3.121  0.3677  1.3944  1.8452
12270SOL    HW238262   2.401   9.029   3.151  2.7677  0.9436  2.0457
12271SOL     OW38263   7.965   2.587   1.258  0.5377  0.0681  0.4952
12271SOL    HW138264   8.002   2.558   1.342  0.2700  0.1906  0.6582
12271SOL    HW238265   7.962   2.683   1.265  0.4444  0.0746  0.3765
12272SOL     OW38266   5.456   8.197   6.761 -0.0197 -0.0925 -0.5062
12272SOL    HW138267   5.434   8.105   6.743 -1.8064 -0.0626  1.1579
12272SOL    HW238268   5.439   8.207   6.855  3.5102  1.0802  0.1408
12273SOL     OW38269   2.820   5.993   1.499 -0.1547 -0.4749 -0.1029
12273SOL    HW138270   2.754   5.941   1.544  0.5584 -0.7882  0.6027
12273SOL    HW238271   2.858   5.932   1.435 -1.5959  0.1447 -1.6136
12274SOL     OW38272   7.741   5.788   3.077 -0.6497 -0.2180 -0.2778
12274SOL    HW138273   7.813   5.851   3.076 -0.6085 -0.1779  1.7481
12274SOL    HW238274   7.767   5.722   3.013  1.5346 -0.5432  0.8304
12275SOL     OW38275   7.186   6.304   4.887 -0.1294 -0.5791 -0.1516
12275SOL    HW138276   7.175   6.399   4.889  0.1557 -0.4391  4.3234
12275SOL    HW238277   7.278   6.291   4.866  0.2136  0.2353  0.7969
12276SOL     OW38278   8.832   3.887   0.896 -0.0766  0.0121 -0.4276
12276SOL    HW138279   8.892   3.839   0.954  0.0601 -0.2437 -0.7821
12276SOL    HW238280   8.819   3.971   0.941 -1.0271 -0.6762  0.6507
12277SOL     OW38281   1.513   8.268   1.352 -0.0074  1.1349  0.4326
12277SOL    HW138282   1.449   8.308   1.293 -0.4532 -0.3503 -0.1413
12277SOL    HW238283   1.597   8.303   1.324 -0.4667  2.5407  0.7164
12278SOL     OW38284   5.177   5.001   4.798  0.0896 -0.1268  0.0177
12278SOL    HW138285   5.253   5.018   4.853  0.1595  2.3439 -0.7490
12278SOL    HW238286   5.103   5.033   4.849 -0.0670  0.3272 -0.4852
12279SOL     OW38287   8.515   8.817   5.638  0.3533  0.9226 -0.4820
12279SOL    HW138288   8.554   8.805   5.725 -1.7419  0.6406  0.4842
12279SOL    HW238289   8.561   8.754   5.582 -0.3391 -1.1720  1.1518
12280SOL     OW38290   2.962   2.734   3.495  0.0718  0.4847 -0.2806
12280SOL    HW138291   3.034   2.793   3.519  0.0765  0.9252 -1.3429
12280SOL    HW238292   2.997   2.646   3.511  0.2593  0.7291  0.7754
12281SOL     OW38293   7.905   8.958   0.917 -0.3708 -0.3740  0.2026
12281SOL    HW138294   7.949   8.911   0.988  0.1886 -0.4397 -0.1831
12281SOL    HW238295   7.964   8.949   0.842 -0.5403  0.4399 -0.0322
12282SOL     OW38296   1.706   7.428   6.157  0.3402 -0.5447  0.0388
12282SOL    HW138297   1.786   7.390   6.192  0.3685  1.2459  2.1547
12282SOL    HW238298   1.735   7.487   6.088  0.5946 -1.7239 -0.8808
12283SOL     OW38299   5.007   3.197   3.139 -0.4013  0.1007 -0.0054
12283SOL    HW138300   5.102   3.204   3.149 -0.6324  1.7085  1.6216
12283SOL    HW238301   4.982   3.275   3.090 -0.8010 -0.8621 -1.3855
12284SOL     OW38302   8.473   1.312   4.492 -0.3108  0.0282 -0.1747
12284SOL    HW138303   8.507   1.231   4.454 -0.6024 -0.0376 -0.2922
12284SOL    HW238304   8.428   1.356   4.420 -0.7437 -0.0325  0.0561
12285SOL     OW38305   7.948   8.093   4.634 -0.1560  0.2040 -0.5903
12285SOL    HW138306   7.933   8.165   4.573  0.1763  1.0972  0.3516
12285SOL    HW238307   7.877   8.101   4.697  0.4353  0.3239  0.0732
12286SOL     OW38308   3.704   6.114   5.807  0.6720  0.4183 -0.1776
12286SOL    HW138309   3.774   6.049   5.808 -0.3953 -0.8321  2.0054
12286SOL    HW238310   3.634   6.074   5.754  0.1582 -0.1035  0.8601
12287SOL     OW38311   2.355   4.879   9.266  0.6964 -0.2725  0.3328
12287SOL    HW138312   2.313   4.880   9.352  0.3983 -2.4640  0.2610
12287SOL    HW238313   2.448   4.869   9.286  0.8350  0.9275  0.3985
12288SOL     OW38314   5.993   0.077   2.061  0.0880 -0.1862  0.0407
12288SOL    HW138315   6.027   0.097   2.148  0.8881 -0.4248 -0.2101
12288SOL    HW238316   5.901   0.054   2.076 -0.0953  0.8776  0.6786
12289SOL     OW38317   6.883   4.500   6.695 -0.0016  0.1114  0.0081
12289SOL    HW138318   6.904   4.593   6.708  1.5553 -0.5033  2.6578
12289SOL    HW238319   6.803   4.486   6.746 -0.4557  0.0533 -0.7076
12290SOL     OW38320   1.773   6.326   6.742  0.4466 -0.1659 -0.8065
12290SOL    HW138321   1.783   6.258   6.676  0.1886 -0.4706 -0.5355
12290SOL    HW238322   1.823   6.294   6.817 -0.5255 -0.5484 -0.3127
12291SOL     OW38323   3.842   2.858   5.849  0.5715 -0.9546 -0.7790
12291SOL    HW138324   3.824   2.778   5.801 -0.4621 -0.7899 -0.6896
12291SOL    HW238325   3.783   2.923   5.810  0.6153 -0.5116 -0.1237
12292SOL     OW38326   6.546   5.361   6.706  0.2008  0.1293  0.0760
12292SOL    HW138327   6.584   5.362   6.794  1.0727 -0.1196 -0.2823
12292SOL    HW238328   6.574   5.277   6.669 -1.4999 -0.4848  0.1185
12293SOL     OW38329   1.802   4.971   3.571 -0.1369  0.1134  0.0260
12293SOL    HW138330   1.869   4.903   3.560 -0.8923 -1.0015  1.8792
12293SOL    HW238331   1.764   4.953   3.656 -1.3567  2.0352 -0.0678
12294SOL     OW38332   0.258   4.921   3.818 -0.4560  0.5678 -0.3669
12294SOL    HW138333   0.250   4.844   3.761  1.1988 -1.3675  1.7843
12294SOL    HW238334   0.284   4.992   3.760 -3.4595 -0.0304 -2.6751
12295SOL     OW38335   0.971   1.615   8.782 -0.0498 -0.0761 -0.0040
12295SOL    HW138336   0.907   1.543   8.785 -0.4325  0.2107 -1.0716
12295SOL    HW238337   0.934   1.678   8.721  0.1684  1.1684  1.1040
12296SOL     OW38338   6.643   2.303   7.130  0.1229 -0.2108  0.4841
12296SOL    HW138339   6.644   2.235   7.062  1.8998  0.4260 -0.1828
12296SOL    HW238340   6.674   2.258   7.209  0.6103 -0.3571  0.2160
12297SOL     OW38341   8.128   5.055   5.205  0.0015 -0.1567  0.0911
12297SOL    HW138342   8.042   5.044   5.164  0.3364 -0.2734 -0.5800
12297SOL    HW238343   8.179   4.979   5.176  0.8895  0.8030 -0.9247
12298SOL     OW38344   3.013   2.837   7.008 -0.2611  0.5515  0.6215
12298SOL    HW138345   3.086   2.774   7.012 -0.7084 -0.0869 -0.8625
12298SOL    HW238346   2.935   2.783   7.017 -0.7351  0.6165 -2.2525
12299SOL     OW38347   8.411   1.059   3.671 -0.7346 -0.3734 -0.7042
12299SOL    HW138348   8.473   0.987   3.658  0.0329  0.2259 -0.3911
12299SOL    HW238349   8.386   1.086   3.583 -2.1480 -1.9466 -0.8532
12300SOL     OW38350   7.349   6.045   7.632  0.4456  0.1185 -0.0737
12300SOL    HW138351   7.381   6.076   7.548 -1.2245  0.3670 -0.6662
12300SOL    HW238352   7.328   6.125   7.680 -0.9069 -0.0038 -0.3983
12301SOL     OW38353   2.009   6.147   1.881  0.4529 -0.2489  0.0437
12301SOL    HW138354   2.028   6.076   1.819 -0.2387 -0.5896  0.2233
12301SOL    HW238355   2.068   6.218   1.854 -0.9352  0.2134 -2.0517
12302SOL     OW38356   7.195   8.609   0.859  0.4100 -0.0625  0.0016
12302SOL    HW138357   7.249   8.631   0.935 -0.8020  0.4115  0.7465
12302SOL    HW238358   7.106   8.633   0.885  0.0272  0.5226 -1.7205
12303SOL     OW38359   6.974   1.664   8.669  0.1813 -0.0761  0.4027
12303SOL    HW138360   7.062   1.675   8.705  0.1878 -1.4539  0.8638
12303SOL    HW238361   6.939   1.587   8.714 -0.9562 -0.0272 -0.3601
12304SOL     OW38362   4.623   8.918   2.248 -0.0417 -0.4103 -0.4534
12304SOL    HW138363   4.631   9.008   2.280 -1.0780 -0.4550 -0.0177
12304SOL    HW238364   4.650   8.864   2.322 -2.6653 -0.5201  0.5233
12305SOL     OW38365   3.859   0.648   1.188  0.2006 -0.5620  0.0364
12305SOL    HW138366   3.881   0.719   1.128  0.4583 -0.1083  0.6512
12305SOL    HW238367   3.850   0.570   1.132  0.3690 -0.1380 -0.5865
12306SOL     OW38368   3.710   4.607   3.634  0.4546  0.4140 -0.2823
12306SOL    HW138369   3.740   4.696   3.613  0.0860  0.4438 -0.6947
12306SOL    HW238370   3.618   4.606   3.607  0.7056 -0.3808 -1.1749
12307SOL     OW38371   4.578   5.547   5.677  0.0531 -0.4980 -0.0219
12307SOL    HW138372   4.610   5.479   5.737  0.3110 -0.8487 -0.5386
12307SOL    HW238373   4.579   5.627   5.728 -1.0780 -1.0247  0.8650
12308SOL     OW38374   1.347   2.644   5.520  0.5427  0.2213  0.4938
12308SOL    HW138375   1.387   2.651   5.433  0.3090  0.5206  0.4091
12308SOL    HW238376   1.266   2.694   5.513  0.8884  0.8832  1.1023
12309SOL     OW38377   0.390   6.254   3.372  0.2333  0.5112 -0.7977
12309SOL    HW138378   0.448   6.324   3.342  3.1794 -1.1120  0.6740
12309SOL    HW238379   0.441   6.174   3.361 -1.5562 -0.9982  1.0598
12310SOL     OW38380   1.776   8.937   2.316  0.0968  0.3615 -0.1875
12310SOL    HW138381   1.811   8.847   2.316 -2.0180 -0.5208 -1.1673
12310SOL    HW238382   1.848   8.990   2.350  2.4477 -1.3096 -2.1925
12311SOL     OW38383   9.148   9.058   4.239  0.3423 -0.7546  0.3545
12311SOL    HW138384   9.159   9.042   4.145  1.7939 -0.6590  0.4855
12311SOL    HW238385   9.122   8.974   4.275 -1.5718 -0.4822 -0.3061
12312SOL     OW38386   6.808   7.509   1.556  0.0713 -0.2879  0.3161
12312SOL    HW138387   6.797   7.494   1.462  0.3895 -1.0361  0.3914
12312SOL    HW238388   6.775   7.598   1.570  2.0592  0.6870 -0.8574
12313SOL     OW38389   3.879   2.155   8.995  0.4296 -0.2017 -0.0685
12313SOL    HW138390   3.970   2.136   9.014  0.5369  0.3957  0.0335
12313SOL    HW238391   3.846   2.075   8.954  0.5762 -0.9921  1.2901
12314SOL     OW38392   2.432   2.889   2.584  0.6137 -0.4978 -0.0152
12314SOL    HW138393   2.396   2.949   2.650  0.1161 -0.2680 -0.4889
12314SOL    HW238394   2.356   2.861   2.533  0.8332 -1.5365  0.1969
12315SOL     OW38395   7.664   5.965   1.778 -0.2103 -0.2257 -0.0778
12315SOL    HW138396   7.757   5.969   1.754  0.1361 -1.6386  0.8879
12315SOL    HW238397   7.645   6.051   1.815  0.1680  0.7655 -2.0374
12316SOL     OW38398   5.071   7.497   3.774 -0.2373 -0.0499 -0.0945
12316SOL    HW138399   4.993   7.553   3.778 -1.5620 -1.5761 -2.3787
12316SOL    HW238400   5.037   7.408   3.774  1.3603 -0.7661 -2.4557
12317SOL     OW38401   5.841   3.007   7.595 -0.8243  0.1940 -0.2023
12317SOL    HW138402   5.856   2.969   7.682 -0.1736 -0.6027 -0.6508
12317SOL    HW238403   5.840   3.102   7.611  1.1700  0.1627  0.4282
12318SOL     OW38404   3.584   1.776   7.530  0.0626  0.8278  0.0634
12318SOL    HW138405   3.599   1.816   7.444 -0.2078 -2.9447 -1.9773
12318SOL    HW238406   3.494   1.744   7.526  0.5772 -0.9018  1.0107
12319SOL     OW38407   3.901   7.027   4.013  0.1252 -0.3933 -0.4665
12319SOL    HW138408   3.867   7.114   3.994  0.6574 -0.0479  0.1502
12319SOL    HW238409   3.994   7.040   4.030  0.0897 -0.9844  0.2423
12320SOL     OW38410   3.296   1.278   3.934 -0.2988  0.0305 -0.3697
12320SOL    HW138411   3.349   1.199   3.938  0.6284  0.5700 -1.4062
12320SOL    HW238412   3.274   1.287   3.841 -1.3509  0.3779 -0.0952
12321SOL     OW38413   4.072   3.461   0.014 -0.2286 -0.3986  0.1509
12321SOL    HW138414   4.110   3.392   0.069  2.4854  0.5566 -0.3730
12321SOL    HW238415   4.113   3.542   0.045 -0.2000  0.4286 -1.8974
12322SOL     OW38416   2.448   8.079   2.757  0.3096  0.3256 -0.7869
12322SOL    HW138417   2.491   8.133   2.824  0.5424  1.8206 -2.0843
12322SOL    HW238418   2.520   8.030   2.717  0.1448 -0.7207  0.1529
12323SOL     OW38419   1.843   8.003   8.274  0.1151  0.2406  0.2725
12323SOL    HW138420   1.821   7.921   8.318 -0.1985 -0.6300 -1.4527
12323SOL    HW238421   1.924   7.984   8.227  0.5405  1.2142  0.5825
12324SOL     OW38422   1.449   4.778   2.191 -0.0639 -0.3205  0.2141
12324SOL    HW138423   1.444   4.850   2.254 -0.6775 -1.1697  1.1625
12324SOL    HW238424   1.529   4.732   2.214  0.9430  0.6827 -1.1210
12325SOL     OW38425   0.129   4.806   0.653  0.2944  0.3409 -0.1015
12325SOL    HW138426   0.096   4.718   0.636  1.2474 -0.0736  0.1635
12325SOL    HW238427   0.216   4.807   0.615  0.2572  1.2000 -0.1776
12326SOL     OW38428   3.644   5.516   2.612  0.4810  0.0977 -0.4122
12326SOL    HW138429   3.664   5.576   2.541  0.3101  0.4328 -0.1769
12326SOL    HW238430   3.695   5.437   2.592 -0.6063 -0.3312 -1.6457
12327SOL     OW38431   2.538   4.172   7.938  0.0587  0.1852  0.5599
12327SOL    HW138432   2.537   4.082   7.972  4.3536  0.0349  0.9278
12327SOL    HW238433   2.475   4.219   7.993 -2.0799 -2.4547  0.5645
12328SOL     OW38434   6.347   0.032   8.332  0.2119 -0.1937  0.0329
12328SOL    HW138435   6.316  -0.058   8.317  0.3213 -0.3141  0.4872
12328SOL    HW238436   6.431   0.020   8.377  0.6611  0.1344 -0.7017
12329SOL     OW38437   5.579   4.529   5.933 -0.0770 -0.6275  0.0948
12329SOL    HW138438   5.545   4.450   5.891 -1.4596  0.1924 -0.3708
12329SOL    HW238439   5.521   4.543   6.007  1.5452 -1.3071  1.5831
12330SOL     OW38440   5.319   5.334   6.488  0.4123  0.7840  0.2138
12330SOL    HW138441   5.252   5.384   6.440  0.0153 -1.9162 -2.3732
12330SOL    HW238442   5.400   5.353   6.441  0.7030  0.8711  0.7478
12331SOL     OW38443   7.063   0.992   8.461 -0.3548 -0.3166 -0.3123
12331SOL    HW138444   7.075   1.008   8.555 -1.2002 -0.9100 -0.0954
12331SOL    HW238445   7.141   1.031   8.420 -0.2488  0.4489  0.5796
12332SOL     OW38446   1.943   2.038   3.279  0.2872  0.4146 -0.0104
12332SOL    HW138447   1.907   2.127   3.286  1.0279  0.6968  0.3316
12332SOL    HW238448   1.940   2.018   3.186  1.9782  1.6062 -0.3586
12333SOL     OW38449   3.277   5.134   7.219  0.1706 -0.7985 -0.0373
12333SOL    HW138450   3.253   5.041   7.227 -1.4498 -0.5203 -1.0568
12333SOL    HW238451   3.209   5.180   7.268  0.7529 -0.1259  0.1449
12334SOL     OW38452   5.032   0.488   3.584  0.1426  0.3654 -0.2357
12334SOL    HW138453   5.012   0.560   3.523 -1.9405  0.0848  0.0727
12334SOL    HW238454   5.106   0.443   3.543 -0.0489  1.2599 -1.6523
12335SOL     OW38455   3.830   6.752   2.551 -0.5259 -0.1559  0.1430
12335SOL    HW138456   3.785   6.670   2.530 -1.5339  0.3068  0.4489
12335SOL    HW238457   3.826   6.803   2.471  1.4268 -0.9546 -0.5353
12336SOL     OW38458   6.224   1.641   7.848 -0.1786  0.1092 -0.1401
12336SOL    HW138459   6.211   1.734   7.865 -0.9622  0.3535 -1.8058
12336SOL    HW238460   6.147   1.598   7.885  0.1969  0.1124  0.6534
12337SOL     OW38461   3.464   2.948   4.304 -0.5037 -0.2677 -0.1654
12337SOL    HW138462   3.433   2.859   4.316 -0.1702 -0.4538 -0.6737
12337SOL    HW238463   3.548   2.951   4.350 -0.2594 -0.3671 -0.6052
12338SOL     OW38464   7.427   0.291   6.092 -0.2861  0.0149  0.4151
12338SOL    HW138465   7.518   0.287   6.063 -0.7095  0.6837 -1.0996
12338SOL    HW238466   7.421   0.372   6.142 -0.3662  0.7459 -0.7433
12339SOL     OW38467   8.115   8.005   4.817  0.4393  0.0628 -0.2991
12339SOL    HW138468   8.092   7.917   4.848  1.6362 -0.2448 -0.2358
12339SOL    HW238469   8.041   8.030   4.761  0.0009 -0.9148 -0.1864
12340SOL     OW38470   8.471   1.792   5.331  0.2253  0.1854  1.1033
12340SOL    HW138471   8.396   1.829   5.285  0.7585 -0.0114  0.0474
12340SOL    HW238472   8.455   1.812   5.424  0.1796  2.5296  0.6543
12341SOL     OW38473   7.187   8.157   1.492  0.5858  0.1996 -0.1499
12341SOL    HW138474   7.098   8.146   1.459 -0.1977  2.0281  1.1755
12341SOL    HW238475   7.182   8.234   1.549  3.0938  0.5547 -0.2945
12342SOL     OW38476   0.777   6.420   8.350  0.1281 -0.5002 -0.4418
12342SOL    HW138477   0.844   6.352   8.347  1.0343  0.2388  1.2830
12342SOL    HW238478   0.755   6.436   8.259  3.0789 -0.0634 -1.1912
12343SOL     OW38479   3.497   2.321   4.963  0.4440  0.4652  0.6780
12343SOL    HW138480   3.403   2.310   4.948  0.4668 -2.3379  2.0175
12343SOL    HW238481   3.509   2.416   4.970 -2.2153  0.9247  0.1913
12344SOL     OW38482   2.797   5.946   8.146  0.0091  0.0259 -0.6590
12344SOL    HW138483   2.777   6.000   8.222  0.6829 -0.5619 -0.0513
12344SOL    HW238484   2.801   5.856   8.180 -0.7333 -0.3809 -1.5787
12345SOL     OW38485   5.261   5.983   5.688  0.0333 -0.1829  0.3978
12345SOL    HW138486   5.257   5.999   5.594 -2.0050  0.3718  0.5213
12345SOL    HW238487   5.329   6.043   5.720  1.5669 -1.2046 -0.8345
12346SOL     OW38488   0.886   7.309   4.169  0.2827  0.5458  0.3381
12346SOL    HW138489   0.928   7.232   4.207  1.6841  1.1087  0.0123
12346SOL    HW238490   0.793   7.288   4.168  0.6617 -1.2811 -0.0701
12347SOL     OW38491   4.857   0.335   8.488  0.6360 -0.0831  0.1607
12347SOL    HW138492   4.763   0.333   8.505  0.6814  0.7173  0.5571
12347SOL    HW238493   4.884   0.424   8.510  0.8543  0.9159 -3.5140
12348SOL     OW38494   3.622   8.575   3.202  0.3014  0.5765 -0.2429
12348SOL    HW138495   3.574   8.515   3.259  0.9565  0.4711  0.2112
12348SOL    HW238496   3.591   8.662   3.227 -0.4930  0.4466 -0.7551
12349SOL     OW38497   1.798   4.862   7.268  0.1973  0.2186  0.6381
12349SOL    HW138498   1.774   4.865   7.175 -0.8749  0.6609  0.9153
12349SOL    HW238499   1.893   4.872   7.268  0.1862  0.5018 -0.4001
12350SOL     OW38500   1.418   4.463   8.187  0.2714  0.1903  0.5192
12350SOL    HW138501   1.376   4.423   8.111  0.0410  0.5523  0.4581
12350SOL    HW238502   1.458   4.389   8.233  0.7440  0.0155 -0.1573
12351SOL     OW38503   1.823   4.743   8.362 -0.2891 -0.0618  0.0621
12351SOL    HW138504   1.729   4.746   8.343  0.1428 -1.8392 -2.9226
12351SOL    HW238505   1.832   4.674   8.427 -0.9642 -0.8321 -0.6312
12352SOL     OW38506   7.881   1.544   8.159 -0.1493 -0.2980 -0.3124
12352SOL    HW138507   7.821   1.535   8.233  0.5137 -0.4383  0.2282
12352SOL    HW238508   7.851   1.479   8.096 -1.3352  0.5146 -0.6115
12353SOL     OW38509   7.083   6.365   8.151  0.1572 -0.0696  0.2044
12353SOL    HW138510   7.151   6.299   8.165 -0.3362 -0.5954  0.1311
12353SOL    HW238511   7.095   6.428   8.222  2.3903  1.2706 -1.2366
12354SOL     OW38512   7.832   3.215   4.249  0.6445  0.0653  0.8197
12354SOL    HW138513   7.855   3.140   4.194  1.5493  0.0222  1.2413
12354SOL    HW238514   7.786   3.176   4.324  1.6024 -0.1414  1.3141
12355SOL     OW38515   5.193   8.054   7.891  0.2022  0.3345 -0.7226
12355SOL    HW138516   5.150   8.015   7.968  1.9690 -0.7571 -0.2358
12355SOL    HW238517   5.259   8.113   7.928  1.5398 -0.7198 -1.3531
12356SOL     OW38518   5.078   8.686   8.331 -0.2031  0.3988  0.1178
12356SOL    HW138519   5.171   8.670   8.315 -0.3500  1.2239 -1.7863
12356SOL    HW238520   5.058   8.766   8.281 -1.4721  1.4733  2.1907
12357SOL     OW38521   1.943   6.669   2.929  0.3670 -0.2595  0.0234
12357SOL    HW138522   1.967   6.582   2.961  0.3175 -0.9573 -1.7473
12357SOL    HW238523   1.953   6.664   2.834  1.1163  1.9136 -0.0711
12358SOL     OW38524   2.725   3.839   7.466  0.0198 -0.4254 -0.1847
12358SOL    HW138525   2.719   3.754   7.509 -1.2249 -0.1225  0.3023
12358SOL    HW238526   2.795   3.829   7.402  0.2757 -1.6345  0.2541
12359SOL     OW38527   2.664   2.546   5.220  0.4078  0.9060  0.4809
12359SOL    HW138528   2.739   2.576   5.271 -0.4613  2.1947  1.0708
12359SOL    HW238529   2.597   2.527   5.286  0.2933 -0.5488 -0.0148
12360SOL     OW38530   4.618   2.711   6.663  0.0295  0.0508 -0.1905
12360SOL    HW138531   4.613   2.633   6.607 -2.3081  0.7216 -1.0507
12360SOL    HW238532   4.579   2.781   6.611  0.5763  1.4221  1.1731
12361SOL     OW38533   8.955   2.793   7.304  0.4078 -0.1429  0.2451
12361SOL    HW138534   8.994   2.759   7.223  0.5008 -0.2949  0.3521
12361SOL    HW238535   9.019   2.772   7.372  1.1184  1.5069  0.1188
12362SOL     OW38536   0.039   2.605   1.594  0.1013  0.7162  0.3179
12362SOL    HW138537   0.004   2.635   1.678  0.8147 -0.6851  1.1516
12362SOL    HW238538   0.119   2.656   1.582  1.7784 -1.2888  2.1525
12363SOL     OW38539   7.941   4.370   7.028  0.4852 -0.0894  0.3655
12363SOL    HW138540   8.017   4.312   7.024 -0.1020 -0.8878  0.6798
12363SOL    HW238541   7.934   4.394   7.121  1.1545  1.0904  0.1414
12364SOL     OW38542   3.188   8.659   1.504 -0.1128  0.0923  0.0488
12364SOL    HW138543   3.220   8.572   1.478  0.0293  0.2671 -0.3592
12364SOL    HW238544   3.092   8.652   1.495 -0.0366  0.3130 -1.0523
12365SOL     OW38545   8.832   0.763   5.395  0.3115  0.1398  0.2513
12365SOL    HW138546   8.875   0.697   5.341 -1.0556 -2.9471  2.5942
12365SOL    HW238547   8.904   0.803   5.446  1.0728 -0.1873 -0.5502
12366SOL     OW38548   6.490   8.152   8.766  0.0557  0.0340 -0.3272
12366SOL    HW138549   6.461   8.228   8.816  1.0548 -0.1108  0.4999
12366SOL    HW238550   6.580   8.174   8.739  0.4204 -0.9258  0.0876
12367SOL     OW38551   4.888   3.832   2.915  0.1892 -0.0018  0.0525
12367SOL    HW138552   4.874   3.847   2.821  1.1890 -0.4301 -0.1732
12367SOL    HW238553   4.980   3.808   2.922  0.0676 -0.1875  1.1260
12368SOL     OW38554   0.306   4.832   5.401 -0.2974 -0.9350  0.1373
12368SOL    HW138555   0.382   4.781   5.428  0.6212  0.5493  0.5078
12368SOL    HW238556   0.320   4.918   5.442  0.1556  0.8724 -3.3814
12369SOL     OW38557   1.573   0.806   1.164 -0.2670  0.4102  0.2357
12369SOL    HW138558   1.579   0.864   1.240 -1.1310  1.8157 -0.7221
12369SOL    HW238559   1.516   0.853   1.102 -2.5575 -2.2726  0.1251
12370SOL     OW38560   2.233   1.458   0.851  0.6550 -0.2700  0.4768
12370SOL    HW138561   2.159   1.514   0.872  0.5092  0.8079 -2.4734
12370SOL    HW238562   2.199   1.369   0.860 -0.6923  0.1921  0.2328
12371SOL     OW38563   5.034   9.047   0.332  0.0543 -0.5297  0.1683
12371SOL    HW138564   5.040   9.106   0.407  0.4187 -0.9649  0.4843
12371SOL    HW238565   5.124   9.018   0.316 -0.0387 -0.5431 -0.3551
12372SOL     OW38566   4.642   0.711   1.253  0.3601 -0.1675  0.1108
12372SOL    HW138567   4.669   0.715   1.345  1.3740 -0.1989 -0.1742
12372SOL    HW238568   4.715   0.749   1.205 -0.7565  1.1791 -0.5841
12373SOL     OW38569   9.282   5.600   8.381 -0.1520 -0.6252 -0.2963
12373SOL    HW138570   9.192   5.617   8.410  0.2350 -0.3660  0.7777
12373SOL    HW238571   9.314   5.532   8.440  0.4592 -0.4923 -0.4666
12374SOL     OW38572   0.252   0.849   4.592  0.0474 -0.0930  0.5200
12374SOL    HW138573   0.195   0.838   4.516  0.6173 -1.7341  0.3008
12374SOL    HW238574   0.335   0.880   4.556  0.3926 -1.0996  0.4335
12375SOL     OW38575   9.093   5.496   5.762  0.3189 -0.6861  0.5809
12375SOL    HW138576   9.167   5.449   5.800  0.7286  0.4686  1.3055
12375SOL    HW238577   9.130   5.544   5.688 -0.3683 -2.4914 -0.9939
12376SOL     OW38578   5.246   0.721   3.725  0.0304  0.1593  0.0110
12376SOL    HW138579   5.173   0.769   3.684 -0.3213 -0.5477 -0.2075
12376SOL    HW238580   5.205   0.670   3.795  0.4007  0.1731  0.2393
12377SOL     OW38581   4.998   4.340   6.987  0.3712 -0.1372 -0.2373
12377SOL    HW138582   4.965   4.428   6.967 -1.0075 -0.4712  0.4515
12377SOL    HW238583   5.012   4.300   6.901  2.7568  1.3380 -0.6018
12378SOL     OW38584   6.403   5.559   4.797 -0.2617  0.3929  0.8260
12378SOL    HW138585   6.467   5.590   4.733  0.0185 -0.4047  0.7064
12378SOL    HW238586   6.455   5.542   4.876  0.3667 -3.4135 -0.2094
12379SOL     OW38587   1.523   4.068   5.438  0.3622 -0.2596 -0.4619
12379SOL    HW138588   1.541   4.160   5.456  0.4823 -0.3776  0.0499
12379SOL    HW238589   1.610   4.030   5.419  0.3937 -0.3935 -0.0604
12380SOL     OW38590   6.081   6.191   5.004 -0.0325  0.2435 -0.0671
12380SOL    HW138591   6.024   6.118   5.029 -0.2101  0.5223  0.3595
12380SOL    HW238592   6.094   6.240   5.086 -0.7453  1.2629 -0.5293
12381SOL     OW38593   1.894   5.366   6.506 -0.1431 -0.6292 -0.6002
12381SOL    HW138594   1.819   5.424   6.507  0.2175 -0.0446 -2.5122
12381SOL    HW238595   1.968   5.421   6.531 -0.3552 -1.3365  1.8618
12382SOL     OW38596   0.789   5.662   8.784 -0.0034  0.2729 -0.1439
12382SOL    HW138597   0.707   5.677   8.831  1.1393 -0.0803  2.0571
12382SOL    HW238598   0.774   5.701   8.698 -2.5768 -0.0297  0.0751
12383SOL     OW38599   2.598   3.351   3.662  0.9946  0.3198  0.4720
12383SOL    HW138600   2.675   3.358   3.605 -0.5501  1.5064 -1.6037
12383SOL    HW238601   2.568   3.442   3.673 -0.8868 -0.2076  0.0465
12384SOL     OW38602   5.936   2.306   6.967 -0.0177  0.5662  0.0251
12384SOL    HW138603   5.883   2.376   7.005 -1.2492 -0.4683  0.3140
12384SOL    HW238604   6.000   2.285   7.034  0.4993  1.5338 -0.1460
12385SOL     OW38605   1.901   1.783   8.937 -0.1232  0.0674 -0.1538
12385SOL    HW138606   1.900   1.720   9.009  1.6368  0.0931 -0.0766
12385SOL    HW238607   1.812   1.779   8.902 -0.1718 -2.2474  0.0345
12386SOL     OW38608   0.700   7.751   5.202  0.0515 -0.5141 -0.0924
12386SOL    HW138609   0.709   7.842   5.231 -1.4026 -0.2191 -0.4812
12386SOL    HW238610   0.618   7.750   5.152  0.9194 -1.6651 -1.5767
12387SOL     OW38611   8.005   2.398   9.067 -0.2058 -0.7064  0.3630
12387SOL    HW138612   8.035   2.439   8.986 -2.9568  0.7844 -0.0200
12387SOL    HW238613   8.085   2.381   9.117  1.7919 -3.2823 -3.2882
12388SOL     OW38614   3.984   4.681   1.820  0.0342 -0.0923  0.1195
12388SOL    HW138615   3.908   4.728   1.786  0.3299 -1.5204 -2.8185
12388SOL    HW238616   3.947   4.610   1.873 -0.8051 -1.0925 -1.7118
12389SOL     OW38617   1.661   4.878   2.475 -0.4873  0.3320  0.1460
12389SOL    HW138618   1.602   4.902   2.404 -0.2231 -1.4358 -0.7218
12389SOL    HW238619   1.728   4.945   2.474 -0.1802  0.0512 -1.6838
12390SOL     OW38620   2.363   3.129   7.594 -0.1803 -0.5811 -0.2153
12390SOL    HW138621   2.383   3.121   7.688  1.5022 -0.0096 -0.4899
12390SOL    HW238622   2.406   3.210   7.567  0.1743 -1.2287 -1.6841
12391SOL     OW38623   5.785   2.881   0.451 -0.0136  0.2095 -0.0237
12391SOL    HW138624   5.751   2.888   0.362 -0.8388 -1.5424  0.0957
12391SOL    HW238625   5.740   2.950   0.500  0.7971  1.4926 -1.0376
12392SOL     OW38626   5.274   6.352   0.796 -0.1196 -0.0882  0.1197
12392SOL    HW138627   5.256   6.370   0.888  0.2969 -1.4282  0.4825
12392SOL    HW238628   5.195   6.309   0.764 -0.0156 -0.2127  0.0298
12393SOL     OW38629   0.229   3.641   4.982  0.1421 -0.3731  0.5424
12393SOL    HW138630   0.291   3.701   4.942 -0.7335  1.4660  1.8266
12393SOL    HW238631   0.275   3.557   4.985  1.9016  0.5303 -0.0592
12394SOL     OW38632   3.016   6.812   2.464  0.2945 -0.3586 -0.7117
12394SOL    HW138633   3.060   6.742   2.512  1.2889  0.9949  0.4543
12394SOL    HW238634   2.950   6.845   2.525  0.5847  0.4242 -0.8039
12395SOL     OW38635   5.197   6.715   4.394  0.1609  0.2470 -0.0454
12395SOL    HW138636   5.195   6.809   4.416 -0.4583  0.4215 -0.7894
12395SOL    HW238637   5.225   6.672   4.475 -0.5722  0.9921  0.6269
12396SOL     OW38638   5.371   2.422   4.225  0.8201 -0.0198 -0.5355
12396SOL    HW138639   5.400   2.337   4.192 -0.0608  0.0105 -1.4531
12396SOL    HW238640   5.411   2.485   4.165  0.0213  0.0975 -0.9615
12397SOL     OW38641   1.782   9.183   8.606 -0.2351  0.1507 -0.1093
12397SOL    HW138642   1.728   9.108   8.583  1.3334 -1.6351  1.5695
12397SOL    HW238643   1.872   9.149   8.602  0.7166  2.6018 -1.4688
12398SOL     OW38644   7.839   0.300   0.701 -0.2285  0.4903 -0.1779
12398SOL    HW138645   7.898   0.240   0.747 -1.5011 -0.5819  0.1089
12398SOL    HW238646   7.803   0.248   0.629 -0.3695  1.3265 -0.7322
12399SOL     OW38647   4.020   4.248   8.944  0.1416  0.1619 -0.1713
12399SOL    HW138648   4.096   4.197   8.914  0.3694  2.1531 -3.5749
12399SOL    HW238649   3.997   4.302   8.868 -3.3967  1.2091  1.4530
12400SOL     OW38650   1.915   8.743   4.726 -0.0674  0.0017 -0.0239
12400SOL    HW138651   1.847   8.779   4.669 -0.3911 -0.5573  0.0014
12400SOL    HW238652   1.902   8.788   4.809  0.2420  0.6322 -0.3148
12401SOL     OW38653   1.988   2.152   0.260 -0.1924  0.5331 -0.0001
12401SOL    HW138654   1.905   2.117   0.290  1.3002 -1.3016  2.3969
12401SOL    HW238655   2.023   2.084   0.202 -0.5714  1.5403 -1.4438
12402SOL     OW38656   4.214   5.353   8.873 -0.1376  0.0592  0.1199
12402SOL    HW138657   4.241   5.381   8.785  1.7851 -0.5140  0.4653
12402SOL    HW238658   4.168   5.271   8.859 -0.7617  0.4949 -0.4284
12403SOL     OW38659   4.417   4.058   2.031  0.2699 -0.4503  0.8375
12403SOL    HW138660   4.453   3.969   2.028  0.4996 -0.3739  1.2084
12403SOL    HW238661   4.325   4.048   2.007  0.3891 -0.7335  0.4912
12404SOL     OW38662   5.748   1.191   9.264  0.1238 -0.3792 -0.6318
12404SOL    HW138663   5.769   1.100   9.242  1.4392 -0.3766  0.4427
12404SOL    HW238664   5.808   1.242   9.209 -0.2430 -0.1845 -0.8489
12405SOL     OW38665   7.277   7.071   2.992 -0.2571  0.2431 -0.1666
12405SOL    HW138666   7.248   7.144   3.048 -1.1863  0.9009 -1.4596
12405SOL    HW238667   7.317   7.114   2.917 -2.1236 -0.4918 -1.6675
12406SOL     OW38668   7.027   3.909   7.091  0.3142 -0.5910  0.1255
12406SOL    HW138669   7.014   4.000   7.067  0.9842 -0.2927  0.8768
12406SOL    HW238670   7.121   3.894   7.080  0.2986 -1.0239  0.5731
12407SOL     OW38671   2.102   3.400   5.394 -0.1350  0.7091 -0.1363
12407SOL    HW138672   2.182   3.372   5.350 -0.4203  0.1876 -0.3411
12407SOL    HW238673   2.047   3.436   5.324 -0.1963  0.7847 -0.0494
12408SOL     OW38674   0.321   3.998   1.727  0.0418  0.4328  0.3754
12408SOL    HW138675   0.413   4.024   1.726 -0.1795  1.8507  3.4540
12408SOL    HW238676   0.275   4.072   1.688  0.0749  0.5104  0.4837
12409SOL     OW38677   7.507   4.239   9.095 -0.1164  0.0881  0.3348
12409SOL    HW138678   7.472   4.319   9.135  1.0204  0.4716  0.6125
12409SOL    HW238679   7.589   4.267   9.054  0.5560 -1.0371  0.8718
12410SOL     OW38680   3.336   7.659   8.819 -0.0095  0.4985 -0.4432
12410SOL    HW138681   3.366   7.624   8.735 -0.2243  0.2601 -0.4197
12410SOL    HW238682   3.417   7.676   8.868  0.1218  0.7879 -0.7553
12411SOL     OW38683   2.468   2.214   5.107  0.4650 -0.2661 -0.3203
12411SOL    HW138684   2.436   2.167   5.030  0.6946  0.9757 -1.1991
12411SOL    HW238685   2.466   2.306   5.081  1.2443  0.1114  0.9074
12412SOL     OW38686   7.554   0.324   1.450 -0.2810  0.0549  0.1075
12412SOL    HW138687   7.636   0.358   1.488  0.4155 -1.3257 -0.1168
12412SOL    HW238688   7.576   0.307   1.358 -0.8739 -0.2118  0.0123
12413SOL     OW38689   3.477   3.338   8.978 -0.0798  0.3920 -0.2513
12413SOL    HW138690   3.413   3.287   8.928  0.2553 -1.1325  0.7898
12413SOL    HW238691   3.551   3.278   8.990  1.4574  2.0055 -1.1617
12414SOL     OW38692   4.465   4.983   6.594 -0.0338  0.2082 -0.2040
12414SOL    HW138693   4.500   4.938   6.671  1.7484  1.6855 -0.1018
12414SOL    HW238694   4.515   4.949   6.521  0.3618  0.9818 -0.3032
12415SOL     OW38695   8.107   1.591   2.911 -0.8220  0.6884 -0.4363
12415SOL    HW138696   8.041   1.559   2.973 -0.6550  0.0839 -0.5625
12415SOL    HW238697   8.133   1.513   2.862  0.9727  0.6171  0.5305
12416SOL     OW38698   8.520   5.376   4.708 -0.6119  0.2935 -0.4205
12416SOL    HW138699   8.464   5.299   4.702 -1.6803  1.0553 -0.4221
12416SOL    HW238700   8.465   5.449   4.680  0.1636  1.1619  0.2431
12417SOL     OW38701   3.884   6.730   0.366  0.3005  0.2096 -0.2960
12417SOL    HW138702   3.869   6.781   0.445  0.7235  0.4486 -0.3702
12417SOL    HW238703   3.948   6.780   0.316  1.8194 -1.0942  0.2765
12418SOL     OW38704   7.895   5.791   8.747  0.2145  0.0080 -0.3186
12418SOL    HW138705   7.898   5.696   8.762 -2.2432 -0.2274 -0.8165
12418SOL    HW238706   7.830   5.801   8.678 -1.6134  2.2198  1.5621
12419SOL     OW38707   9.102   0.030   5.880  0.0243  1.0282  0.0256
12419SOL    HW138708   9.166   0.085   5.835  2.7006 -0.3080  1.9508
12419SOL    HW238709   9.057  -0.016   5.809  1.2054  1.9615 -1.4055
12420SOL     OW38710   6.005   3.694   0.257  0.2024  0.4020 -0.2710
12420SOL    HW138711   6.075   3.662   0.199 -1.1415  1.1856 -2.4503
12420SOL    HW238712   6.038   3.778   0.289  0.5620  0.4466 -0.7361
12421SOL     OW38713   6.586   5.910   3.574  0.1851  0.9745  0.6547
12421SOL    HW138714   6.544   5.848   3.632 -1.1296  0.2954 -0.9571
12421SOL    HW238715   6.519   5.977   3.557  0.3369  0.8639 -0.4861
12422SOL     OW38716   0.841   1.536   4.171  0.3052 -0.2772  0.7073
12422SOL    HW138717   0.877   1.451   4.147  1.4636  0.4063 -0.0461
12422SOL    HW238718   0.836   1.533   4.267  1.2018 -0.8538  0.7479
12423SOL     OW38719   1.197   4.916   6.550 -0.0172  0.1366  0.8188
12423SOL    HW138720   1.190   4.979   6.622  2.5268  1.7830 -0.2210
12423SOL    HW238721   1.284   4.877   6.561  1.2158  1.6718 -2.1696
12424SOL     OW38722   2.470   8.253   5.833 -0.2621  0.0274  0.5176
12424SOL    HW138723   2.434   8.166   5.848 -0.5009  0.1043  0.3962
12424SOL    HW238724   2.413   8.292   5.767 -1.0414  0.8127  1.6182
12425SOL     OW38725   1.404   3.732   4.482  0.3827  0.0715  0.1010
12425SOL    HW138726   1.396   3.715   4.576 -1.4445 -1.4774 -0.2791
12425SOL    HW238727   1.341   3.674   4.441  0.4904  1.3437 -2.0591
12426SOL     OW38728   3.571   4.706   5.633 -0.3406  0.4452 -0.3542
12426SOL    HW138729   3.554   4.661   5.716 -2.0262  1.7409  0.0620
12426SOL    HW238730   3.558   4.638   5.566  0.7506 -0.5433  0.3989
12427SOL     OW38731   1.585   1.691   6.815  0.2958 -0.6532 -0.2291
12427SOL    HW138732   1.641   1.613   6.813 -1.6143 -2.0921 -0.8871
12427SOL    HW238733   1.576   1.717   6.723 -0.3677 -0.6562 -0.1712
12428SOL     OW38734   7.751   7.540   2.901 -0.2767  0.0230  0.9085
12428SOL    HW138735   7.743   7.581   2.815 -2.0785 -0.2561  0.9105
12428SOL    HW238736   7.820   7.474   2.889 -1.3626 -0.8926 -0.6952
12429SOL     OW38737   7.195   1.517   7.930 -0.0519 -0.0338 -0.5550
12429SOL    HW138738   7.132   1.556   7.991  1.8491  0.0796  1.5021
12429SOL    HW238739   7.192   1.573   7.853 -1.2885  0.9274  0.1522
12430SOL     OW38740   5.043   7.651   6.704  0.6183  0.1000  0.1186
12430SOL    HW138741   5.105   7.651   6.777  0.9868  0.3276 -0.1938
12430SOL    HW238742   5.095   7.625   6.628 -0.3006 -2.9033  0.3726
12431SOL     OW38743   2.584   8.896   5.027 -0.2216 -0.0269 -0.2950
12431SOL    HW138744   2.529   8.825   4.993 -1.1936  1.1035 -1.1306
12431SOL    HW238745   2.629   8.930   4.950  1.1806 -0.5050  0.2843
12432SOL     OW38746   3.545   7.727   4.815 -0.3733  0.1643  0.0990
12432SOL    HW138747   3.506   7.660   4.759 -1.5520  0.0555  0.9975
12432SOL    HW238748   3.487   7.730   4.891 -0.4896  2.3810 -0.0315
12433SOL     OW38749   0.018   6.774   2.547 -0.0311  0.2091  0.2315
12433SOL    HW138750   0.033   6.864   2.576  2.8123 -0.7212  2.1154
12433SOL    HW238751  -0.055   6.743   2.600  0.1482  0.8895  0.8847
12434SOL     OW38752   4.352   4.620   0.194 -0.4171  0.2552 -0.2612
12434SOL    HW138753   4.268   4.617   0.241  0.1611 -1.7382  0.7795
12434SOL    HW238754   4.403   4.686   0.241 -1.0386  0.7698 -0.2819
12435SOL     OW38755   8.907   1.361   5.556  0.3506 -0.2486  0.0235
12435SOL    HW138756   8.877   1.295   5.494  1.9036  0.6343 -1.7572
12435SOL    HW238757   8.977   1.318   5.605 -1.5238 -1.2695  1.9647
12436SOL     OW38758   4.572   5.066   3.644  0.2763  0.0582  0.3763
12436SOL    HW138759   4.557   5.016   3.565 -0.3054 -1.0164  1.1443
12436SOL    HW238760   4.661   5.101   3.635  0.7010 -1.1378 -0.1586
12437SOL     OW38761   2.037   3.628   7.328  0.2236  0.1643  0.5809
12437SOL    HW138762   2.038   3.616   7.233  2.1255 -0.0374  0.5879
12437SOL    HW238763   2.101   3.698   7.344 -2.0459  2.1890  1.5374
12438SOL     OW38764   2.465   6.595   4.138 -0.3293 -0.0600 -0.3739
12438SOL    HW138765   2.492   6.649   4.213  1.4590 -0.5443 -0.6208
12438SOL    HW238766   2.433   6.657   4.073 -0.2177  0.5179  0.1199
12439SOL     OW38767   6.810   5.861   3.790 -0.1493  0.4399  0.3995
12439SOL    HW138768   6.786   5.858   3.697  1.4240 -0.4224 -0.0241
12439SOL    HW238769   6.751   5.925   3.828 -1.4583  0.1404 -1.0115
12440SOL     OW38770   4.071   1.583   8.489 -0.3203 -0.3903 -0.6149
12440SOL    HW138771   3.981   1.572   8.518  0.7473 -1.9012  2.6565
12440SOL    HW238772   4.123   1.535   8.554  2.7934 -0.3495 -2.8451
12441SOL     OW38773   0.081   7.676   2.085  0.0031  0.3910 -0.3561
12441SOL    HW138774  -0.006   7.682   2.045  0.4370  0.1969 -1.3478
12441SOL    HW238775   0.137   7.640   2.016  1.1843  1.8805 -0.2172
12442SOL     OW38776   4.106   2.922   7.319  0.1757 -0.2368 -0.4014
12442SOL    HW138777   4.148   2.927   7.233 -0.2487 -0.4913 -0.6251
12442SOL    HW238778   4.014   2.944   7.303 -0.6011 -3.1780 -0.5436
12443SOL     OW38779   1.186   5.358   8.045  0.4678 -0.8283 -0.4313
12443SOL    HW138780   1.192   5.407   8.127 -0.7571 -1.0717 -0.1796
12443SOL    HW238781   1.093   5.338   8.036  0.7112 -1.5611 -1.4385
12444SOL     OW38782   6.244   0.947   2.192 -0.3089 -0.0497 -0.4401
12444SOL    HW138783   6.214   0.868   2.238  1.0298  0.7093  1.9358
12444SOL    HW238784   6.311   0.916   2.132  1.9714 -0.5917  2.1899
12445SOL     OW38785   0.589   5.281   7.849  0.4082  0.6881  0.0770
12445SOL    HW138786   0.563   5.321   7.765  1.7692 -1.2275 -1.3545
12445SOL    HW238787   0.520   5.217   7.867  2.7056 -3.0075 -2.7163
12446SOL     OW38788   3.138   7.966   3.522  0.8712 -0.5588 -0.1212
12446SOL    HW138789   3.218   8.014   3.498 -0.4569  1.0249 -1.6026
12446SOL    HW238790   3.158   7.875   3.503  2.2862 -0.1874 -0.5545
12447SOL     OW38791   2.337   7.338   1.155  0.3118  0.1473 -0.6175
12447SOL    HW138792   2.266   7.402   1.165 -0.4936 -0.6381 -1.1516
12447SOL    HW238793   2.397   7.378   1.092  0.9607  1.3242  0.6946
12448SOL     OW38794   1.400   7.051   5.776  0.3951 -0.5810  0.2218
12448SOL    HW138795   1.468   7.063   5.843  0.3969 -0.0967  0.1411
12448SOL    HW238796   1.358   6.969   5.799  1.1108 -0.9652  0.1811
12449SOL     OW38797   7.285   7.894   0.159 -0.3178 -0.3267 -0.1847
12449SOL    HW138798   7.261   7.982   0.129 -2.5420 -1.2310 -1.3562
12449SOL    HW238799   7.201   7.853   0.180  0.7119 -2.0059  0.8509
12450SOL     OW38800   8.665   2.374   8.133  0.1355  0.5345  0.9312
12450SOL    HW138801   8.613   2.300   8.103  0.3905  1.0386 -0.8624
12450SOL    HW238802   8.745   2.370   8.080  0.3073  1.8697  1.0511
12451SOL     OW38803   1.490   5.311   2.825 -0.3611 -0.5239 -0.0867
12451SOL    HW138804   1.417   5.256   2.855  1.2621 -1.9275  1.4962
12451SOL    HW238805   1.535   5.258   2.760 -0.7621  0.3827 -1.1412
12452SOL     OW38806   3.487   7.105   7.225  0.7731 -0.3362 -0.0564
12452SOL    HW138807   3.534   7.095   7.308  0.8779  0.2041 -0.0416
12452SOL    HW238808   3.412   7.046   7.232  1.1096 -0.7398  0.1755
12453SOL     OW38809   8.270   2.807   2.997  0.0722  0.5140  0.4366
12453SOL    HW138810   8.208   2.868   3.038 -1.1785 -0.9765  0.8504
12453SOL    HW238811   8.275   2.733   3.057  1.6833  0.2464  0.0249
12454SOL     OW38812   5.556   5.068   5.604 -0.1992  0.3643 -0.0482
12454SOL    HW138813   5.613   5.015   5.660 -0.2601 -1.7606 -1.8774
12454SOL    HW238814   5.615   5.134   5.566  0.0982  0.9910  1.4522
12455SOL     OW38815   1.121   8.488   7.252 -0.2008  0.3340  0.2162
12455SOL    HW138816   1.188   8.501   7.319  0.2102 -0.5061 -0.0101
12455SOL    HW238817   1.043   8.462   7.300  0.1389 -0.4309  0.3753
12456SOL     OW38818   7.880   3.195   5.756  0.3894  0.2398  0.2658
12456SOL    HW138819   7.806   3.218   5.700 -1.2207 -1.1270  1.6908
12456SOL    HW238820   7.933   3.274   5.759 -0.1534  0.7731 -2.0670
12457SOL     OW38821   8.361   8.326   3.210  0.6333  0.1576 -0.1565
12457SOL    HW138822   8.333   8.269   3.282 -1.3348  0.1051 -0.9012
12457SOL    HW238823   8.328   8.283   3.131  0.5946  1.4441 -0.8663
12458SOL     OW38824   0.904   3.265   7.931 -0.4394  0.4028 -0.4617
12458SOL    HW138825   0.924   3.211   8.008  0.0799 -1.3511 -1.7598
12458SOL    HW238826   0.974   3.331   7.929  0.1325 -0.1708  0.0023
12459SOL     OW38827   3.625   1.304   0.071  0.1963 -0.7596 -0.3177
12459SOL    HW138828   3.621   1.317   0.166  0.9082  0.2681 -0.4123
12459SOL    HW238829   3.593   1.215   0.058 -2.4284 -0.0528  0.6531
12460SOL     OW38830   5.838   2.889   4.356  0.2472  0.2537  0.0724
12460SOL    HW138831   5.876   2.836   4.426 -0.7655  0.1158  0.5356
12460SOL    HW238832   5.778   2.829   4.310  1.2844  0.1888 -1.2648
12461SOL     OW38833   0.318   6.598   0.095 -0.2128  0.2579  0.2015
12461SOL    HW138834   0.296   6.662   0.162  0.6901  0.9273 -0.1130
12461SOL    HW238835   0.249   6.606   0.029 -1.4677 -0.8610  1.3145
12462SOL     OW38836   4.072   4.377   2.018 -0.3675 -0.1117  0.0215
12462SOL    HW138837   3.984   4.416   2.012 -0.7276 -0.4194  2.4525
12462SOL    HW238838   4.105   4.406   2.103  1.1142 -1.5879 -0.0069
12463SOL     OW38839   3.862   2.253   0.657 -0.2250 -0.0038 -0.1170
12463SOL    HW138840   3.877   2.319   0.724  0.0184  0.3992 -0.5574
12463SOL    HW238841   3.808   2.297   0.592 -0.2030 -0.2915 -0.3336
12464SOL     OW38842   8.255   8.003   6.721  0.0111 -0.1946 -0.1007
12464SOL    HW138843   8.162   7.983   6.715 -0.5854  2.4771 -1.0145
12464SOL    HW238844   8.259   8.078   6.780  1.5950 -0.2742 -0.0711
12465SOL     OW38845   7.217   6.279   5.931  0.1575 -0.4475  0.4575
12465SOL    HW138846   7.125   6.254   5.937  0.4029 -1.2797  0.9487
12465SOL    HW238847   7.255   6.216   5.869  0.5150 -0.4642  0.6915
12466SOL     OW38848   0.902   6.181   8.314 -0.3882 -0.0367 -0.0813
12466SOL    HW138849   0.910   6.096   8.272 -1.5145  0.3642 -1.1851
12466SOL    HW238850   0.895   6.161   8.408  3.9116 -0.8610  0.2746
12467SOL     OW38851   0.687   6.066   7.747  0.2568 -0.1507  0.4811
12467SOL    HW138852   0.592   6.074   7.753  0.2897  2.1429 -0.7807
12467SOL    HW238853   0.718   6.083   7.836 -0.5004 -0.7901  0.8743
12468SOL     OW38854   0.466   5.386   5.224  0.4199 -0.4480 -0.3336
12468SOL    HW138855   0.521   5.464   5.209 -0.4865  0.4167  0.6984
12468SOL    HW238856   0.502   5.346   5.303  1.2342 -1.4326 -1.1686
12469SOL     OW38857   7.171   7.457   3.686 -0.3734 -0.2540  0.0708
12469SOL    HW138858   7.084   7.424   3.707 -0.5264  1.1036  1.8643
12469SOL    HW238859   7.176   7.541   3.733  1.7683 -0.1368 -0.2866
12470SOL     OW38860   6.410   7.583   7.510 -0.7743  0.2744 -0.1425
12470SOL    HW138861   6.494   7.549   7.479 -0.9007 -0.3892  0.2289
12470SOL    HW238862   6.422   7.594   7.604 -1.5423 -1.2205  0.1683
12471SOL     OW38863   6.381   0.595   3.987  0.4625  0.0004 -0.5206
12471SOL    HW138864   6.395   0.673   4.040 -1.0824  1.0679 -1.5997
12471SOL    HW238865   6.350   0.628   3.903 -0.7724 -1.7738 -0.8240
12472SOL     OW38866   6.744   4.460   5.993  0.1379  0.0318 -0.1262
12472SOL    HW138867   6.817   4.519   6.014  0.5354 -0.5117  0.0264
12472SOL    HW238868   6.784   4.374   5.986 -0.6689 -0.4444  0.9901
12473SOL     OW38869   6.307   3.604   8.158  0.1084  0.3825 -0.0476
12473SOL    HW138870   6.386   3.589   8.209 -1.4109  0.4055  2.5003
12473SOL    HW238871   6.313   3.696   8.130  1.4195  0.0889 -0.7877
12474SOL     OW38872   6.151   8.176   1.568 -0.2265  0.4527  0.1788
12474SOL    HW138873   6.206   8.252   1.546 -0.2955  0.0613 -1.4633
12474SOL    HW238874   6.062   8.209   1.565 -0.3391  0.0795 -1.7515
12475SOL     OW38875   6.270   7.436   5.904  0.2381 -0.1071 -0.4674
12475SOL    HW138876   6.291   7.389   5.823  1.1908 -1.4602  0.5012
12475SOL    HW238877   6.354   7.472   5.933 -0.1044  0.4194 -0.1075
12476SOL     OW38878   8.502   5.795   5.975 -0.1858 -0.3839 -0.0579
12476SOL    HW138879   8.487   5.888   5.956 -3.4071 -1.1997 -2.4172
12476SOL    HW238880   8.521   5.757   5.889 -3.5544 -2.4989 -0.0419
12477SOL     OW38881   8.647   0.741   3.910 -0.0352  0.2854  0.6292
12477SOL    HW138882   8.696   0.820   3.932 -0.4564  0.3361  1.4123
12477SOL    HW238883   8.581   0.770   3.848  1.7896 -0.0337 -1.5779
12478SOL     OW38884   3.863   5.573   2.315 -0.1533  0.1022  0.1722
12478SOL    HW138885   3.879   5.591   2.222  2.6369  0.6258  0.6511
12478SOL    HW238886   3.787   5.627   2.336 -0.8641 -0.0310 -1.7793
12479SOL     OW38887   0.385   7.576   8.053  0.2052 -0.3464  0.8755
12479SOL    HW138888   0.303   7.534   8.027  0.4929 -1.1388  1.1991
12479SOL    HW238889   0.449   7.504   8.053  0.8856  0.2545  0.6625
12480SOL     OW38890   8.882   6.500   1.827  0.5589 -0.0849  0.3043
12480SOL    HW138891   8.836   6.435   1.774  1.7641  0.1509 -1.0674
12480SOL    HW238892   8.927   6.556   1.764  0.2061  1.6250  1.4751
12481SOL     OW38893   8.122   7.019   8.757 -0.9529  0.3092  0.0743
12481SOL    HW138894   8.154   7.093   8.808  0.7726  0.7369 -1.5150
12481SOL    HW238895   8.186   6.949   8.772 -0.6744  0.2872 -1.0652
12482SOL     OW38896   3.680   6.051   0.604 -0.3624  0.2016 -0.5241
12482SOL    HW138897   3.658   5.966   0.641  1.1788  0.1621  0.3818
12482SOL    HW238898   3.597   6.100   0.604 -1.1423 -1.0873 -0.5464
12483SOL     OW38899   0.066   0.452   4.508  0.1707  0.1827 -0.2848
12483SOL    HW138900   0.106   0.412   4.585  0.6579  0.0657 -0.5928
12483SOL    HW238901   0.064   0.546   4.529 -1.4751 -0.0220  0.6645
12484SOL     OW38902   6.373   1.587   6.006 -0.1445  0.2020  0.1394
12484SOL    HW138903   6.282   1.616   6.016  0.2353  0.8940  2.1181
12484SOL    HW238904   6.370   1.493   6.026 -0.4730  0.1181 -0.2701
12485SOL     OW38905   1.362   0.103   3.996  0.1559 -0.4313  0.0571
12485SOL    HW138906   1.288   0.154   4.029 -0.4484 -1.9306  1.1513
12485SOL    HW238907   1.325   0.048   3.928 -0.0752 -2.0879  1.4485
12486SOL     OW38908   6.768   8.411   0.104  0.2376 -0.6792 -0.6867
12486SOL    HW138909   6.850   8.392   0.060  0.2892 -0.4270 -0.7030
12486SOL    HW238910   6.707   8.434   0.034  0.7333  1.2505 -0.5473
12487SOL     OW38911   4.901   2.974   1.934 -0.0320 -0.3870 -0.1812
12487SOL    HW138912   4.866   2.982   2.022  1.1753 -2.4328  0.5544
12487SOL    HW238913   4.966   3.044   1.927  0.6207 -0.8328  0.9917
12488SOL     OW38914   5.717   6.805   5.035 -0.2370  0.0359 -0.0213
12488SOL    HW138915   5.658   6.880   5.037  0.5310  0.6557  1.4871
12488SOL    HW238916   5.669   6.735   5.078 -0.3498  0.1424  0.0272
12489SOL     OW38917   2.852   7.077   0.971 -0.1480 -0.4426 -0.5454
12489SOL    HW138918   2.884   7.117   0.890  0.6001 -1.4921 -0.7834
12489SOL    HW238919   2.912   7.110   1.039 -1.3948  1.2640 -0.2105
12490SOL     OW38920   6.799   1.921   7.414 -0.3434 -1.2081  0.6739
12490SOL    HW138921   6.831   1.864   7.485  0.8695 -0.1322  1.0288
12490SOL    HW238922   6.832   1.880   7.334  0.0443 -1.3114  0.8838
12491SOL     OW38923   1.936   2.538   2.945 -0.1041  0.2185  0.2489
12491SOL    HW138924   1.885   2.587   3.010 -0.6277 -0.5718  0.4555
12491SOL    HW238925   1.900   2.567   2.861 -0.0168  0.6095  0.3429
12492SOL     OW38926   6.115   1.646   0.976  0.0771 -0.5360  0.4270
12492SOL    HW138927   6.105   1.707   1.049 -0.8574  0.5037 -0.5304
12492SOL    HW238928   6.053   1.677   0.910  1.9473 -0.5071 -1.4383
12493SOL     OW38929   5.062   5.347   6.685  0.1292  0.2672  0.0466
12493SOL    HW138930   5.052   5.278   6.751 -1.1005 -0.5859 -0.9731
12493SOL    HW238931   5.129   5.405   6.721  1.6949 -1.7845  0.6472
12494SOL     OW38932   7.706   4.720   7.074  0.4178 -0.2387  0.0801
12494SOL    HW138933   7.724   4.784   7.005 -1.1585  0.6076  0.3900
12494SOL    HW238934   7.689   4.773   7.152  2.3969 -1.1923  1.2141
12495SOL     OW38935   3.552   0.563   9.192 -0.2746  0.0457  0.1390
12495SOL    HW138936   3.503   0.481   9.192 -2.3088  1.1594 -0.6305
12495SOL    HW238937   3.574   0.579   9.283  0.3145 -1.4161  0.2733
12496SOL     OW38938   5.348   0.473   1.067 -0.5602 -0.5798 -0.3922
12496SOL    HW138939   5.295   0.401   1.100  0.7261 -0.9992  0.8652
12496SOL    HW238940   5.326   0.547   1.123  0.9119 -1.0373  0.8598
12497SOL     OW38941   1.153   1.256   5.115  0.3594 -0.0497 -0.5257
12497SOL    HW138942   1.094   1.222   5.048  1.2054  0.4971 -1.5717
12497SOL    HW238943   1.106   1.329   5.154 -1.6669 -2.5013  2.0385
12498SOL     OW38944   8.406   7.773   7.688 -0.0517  0.0785  0.1020
12498SOL    HW138945   8.501   7.785   7.685  0.1317 -0.7925  1.6581
12498SOL    HW238946   8.377   7.789   7.598  1.7419 -0.9832 -0.7088
12499SOL     OW38947   8.563   3.807   7.608 -0.1034 -0.3127  0.3984
12499SOL    HW138948   8.509   3.775   7.680 -0.3696  2.3223  1.4767
12499SOL    HW238949   8.509   3.795   7.529 -0.6317 -1.3312  0.8995
12500SOL     OW38950   8.468   2.670   6.252  0.3485  0.0988 -0.5682
12500SOL    HW138951   8.504   2.623   6.327 -1.9736 -1.3424 -0.2447
12500SOL    HW238952   8.417   2.741   6.290 -0.6021 -0.4669 -0.7306
12501SOL     OW38953   7.835   2.312   8.727  0.0730  0.1520  0.3228
12501SOL    HW138954   7.756   2.281   8.771  0.7609 -1.5475  0.4296
12501SOL    HW238955   7.804   2.380   8.667 -0.9640  2.3741  3.1405
12502SOL     OW38956   4.294   1.638   4.292  0.1131 -0.2030 -0.2913
12502SOL    HW138957   4.368   1.583   4.318  1.8223  1.3835 -1.5670
12502SOL    HW238958   4.288   1.628   4.197 -0.4310  0.7220 -0.3680
12503SOL     OW38959   1.796   7.128   9.042  0.2454  0.4966 -0.1505
12503SOL    HW138960   1.882   7.155   9.072  0.0113  0.9607  0.1162
12503SOL    HW238961   1.811   7.047   8.994  0.8338  0.6073 -0.1513
12504SOL     OW38962   5.091   8.707   6.951  0.1942 -0.0796  0.2726
12504SOL    HW138963   5.181   8.738   6.960  0.7242 -1.7231  0.9451
12504SOL    HW238964   5.044   8.749   7.023  0.3205  1.0190 -0.2556
12505SOL     OW38965   3.900   8.090   7.459 -0.3505 -0.1049  0.2361
12505SOL    HW138966   3.946   8.120   7.538 -0.7799 -1.6127  1.1005
12505SOL    HW238967   3.836   8.026   7.492 -1.8580  0.6290 -1.1243
12506SOL     OW38968   8.483   4.118   5.993 -0.1482  0.3094 -0.0794
12506SOL    HW138969   8.518   4.031   6.011 -2.0478 -0.8047 -1.4200
12506SOL    HW238970   8.552   4.163   5.944  0.9026 -0.3505  0.7401
12507SOL     OW38971   2.040   1.145   1.829  0.1533  0.5774  0.1948
12507SOL    HW138972   1.952   1.181   1.838 -0.6261 -0.8390 -1.1823
12507SOL    HW238973   2.071   1.133   1.919 -1.0172  1.1603  0.6960
12508SOL     OW38974   8.851   4.145   4.717  0.5382 -0.6230  0.4553
12508SOL    HW138975   8.800   4.153   4.798  0.6464 -2.2652  0.7057
12508SOL    HW238976   8.934   4.188   4.737  0.0243  0.2890  0.7095
12509SOL     OW38977   2.264   0.570   5.407 -0.3579  0.1512 -0.4221
12509SOL    HW138978   2.359   0.560   5.410 -0.2181  0.9228 -1.6972
12509SOL    HW238979   2.248   0.633   5.337 -1.8933 -0.9618 -1.1404
12510SOL     OW38980   4.432   6.348   2.140 -0.3913 -0.4214  0.1959
12510SOL    HW138981   4.512   6.324   2.187 -1.6312 -1.1682  2.0743
12510SOL    HW238982   4.447   6.438   2.111  0.9754 -0.4169  0.8563
12511SOL     OW38983   8.296   4.090   3.535 -0.2441  0.5968 -0.5394
12511SOL    HW138984   8.214   4.122   3.496  1.0773  4.0232 -0.8575
12511SOL    HW238985   8.289   4.112   3.628 -0.3814 -0.8337 -0.1837
12512SOL     OW38986   2.521   0.640   8.819  1.0659 -0.1071  0.2152
12512SOL    HW138987   2.522   0.687   8.902  1.1759 -1.0177  0.7327
12512SOL    HW238988   2.432   0.605   8.812  1.3715 -0.9583  0.4818
12513SOL     OW38989   1.948   5.312   5.577  0.2584  0.2499  0.4711
12513SOL    HW138990   1.908   5.233   5.613  0.7887  0.6782  2.0880
12513SOL    HW238991   1.881   5.350   5.521 -1.2270  0.3720  2.2540
12514SOL     OW38992   2.468   7.530   5.883  0.4468  0.4662  0.0122
12514SOL    HW138993   2.503   7.553   5.969  0.2308  1.4399 -0.1527
12514SOL    HW238994   2.444   7.437   5.891 -0.2510  0.7351  1.2222
12515SOL     OW38995   4.945   5.469   3.383  0.4349  0.6877  0.0787
12515SOL    HW138996   4.876   5.515   3.431 -1.5795 -0.8556 -1.1676
12515SOL    HW238997   4.943   5.505   3.295 -0.1794 -0.6828 -0.5085
12516SOL     OW38998   3.016   3.335   8.077 -0.2404  0.7162 -0.4103
12516SOL    HW138999   2.937   3.285   8.054  0.0163  0.3538 -0.5124
12516SOL    HW239000   3.080   3.268   8.102  0.7193  0.8479 -2.3432
12517SOL     OW39001   4.062   4.108   1.993 -0.1198 -0.3627  0.0717
12517SOL    HW139002   3.987   4.124   1.937  0.4748  0.5863 -0.4929
12517SOL    HW239003   4.098   4.195   2.010  0.6111 -0.7672  0.6631
12518SOL     OW39004   7.061   2.372   8.583 -0.0960 -0.4011  0.0347
12518SOL    HW139005   7.057   2.352   8.489  1.7024  1.4175 -0.5064
12518SOL    HW239006   6.996   2.442   8.595 -0.0920 -0.4066  0.0872
12519SOL     OW39007   1.525   0.985   8.566  0.1224 -0.0606 -0.2530
12519SOL    HW139008   1.481   1.019   8.644  0.8432  0.4059 -0.0364
12519SOL    HW239009   1.535   0.891   8.583 -0.7591 -0.1718 -0.3023
12520SOL     OW39010   1.932   3.586   4.657  0.4390  0.0496  0.0551
12520SOL    HW139011   1.865   3.654   4.667  2.0935  1.8065 -0.2417
12520SOL    HW239012   1.887   3.505   4.682 -1.1875  1.4290  2.0353
12521SOL     OW39013   1.228   6.225   0.675 -0.2721  0.7870  0.8612
12521SOL    HW139014   1.205   6.154   0.734  3.8121 -2.4559 -0.9434
12521SOL    HW239015   1.282   6.284   0.727  3.2123 -1.9828  0.7225
12522SOL     OW39016   6.882   7.024   5.939  0.5616 -0.0650  0.1834
12522SOL    HW139017   6.855   7.091   5.877  1.1405 -0.1724 -0.1963
12522SOL    HW239018   6.945   7.069   5.996  1.5729 -0.4684 -0.5725
12523SOL     OW39019   7.074   2.334   0.303 -0.1218 -0.2504  0.0133
12523SOL    HW139020   7.136   2.304   0.236 -0.4513 -1.6445  0.3011
12523SOL    HW239021   7.109   2.299   0.385 -1.2963 -1.1129  0.1738
12524SOL     OW39022   6.627   9.142   8.076 -0.0944 -0.0252 -0.0402
12524SOL    HW139023   6.545   9.167   8.032 -1.0029 -1.2634  0.8462
12524SOL    HW239024   6.598   9.095   8.154  1.4747  1.7274  1.6862
12525SOL     OW39025   9.172   7.347   2.697 -0.0985 -0.4600 -0.3393
12525SOL    HW139026   9.217   7.263   2.711 -0.4829 -0.9588 -1.8645
12525SOL    HW239027   9.230   7.412   2.734  0.7479 -1.3037 -0.1432
12526SOL     OW39028   5.932   6.247   1.970  0.1144  0.3793 -0.0362
12526SOL    HW139029   5.914   6.267   1.878  0.6281 -0.0030 -0.2218
12526SOL    HW239030   6.006   6.304   1.993  0.3453  0.0773 -0.0211
12527SOL     OW39031   1.557   1.315   6.542 -0.6422 -0.5182 -0.1226
12527SOL    HW139032   1.628   1.377   6.523  0.2885 -1.4088  0.4043
12527SOL    HW239033   1.530   1.284   6.455 -0.1105 -0.4832 -0.3053
12528SOL     OW39034   5.034   3.084   5.621  0.4380 -0.0470  0.2749
12528SOL    HW139035   5.081   3.134   5.688 -0.4439  0.3375  0.6137
12528SOL    HW239036   5.024   3.145   5.548  0.9549 -0.3098 -0.0253
12529SOL     OW39037   1.113   2.523   5.647  0.7411  0.3306 -0.2484
12529SOL    HW139038   1.202   2.552   5.665  0.0267  2.3428  0.1900
12529SOL    HW239039   1.095   2.458   5.715  0.7418  2.3234  1.7462
12530SOL     OW39040   1.364   5.476   2.009 -0.5748 -0.5393  0.4746
12530SOL    HW139041   1.438   5.507   2.062 -1.1973 -1.7012  2.1003
12530SOL    HW239042   1.404   5.447   1.927  0.1706  3.3148 -0.7290
12531SOL     OW39043   5.030   2.931   1.254 -0.6222  0.0550 -0.4227
12531SOL    HW139044   5.067   2.961   1.337 -0.9990 -1.2815  0.2526
12531SOL    HW239045   5.043   2.836   1.254 -2.5813 -0.2566 -0.9007
12532SOL     OW39046   5.172   7.804   9.153 -0.0636  0.4610  0.1027
12532SOL    HW139047   5.236   7.875   9.151 -0.4431  0.8224  0.4947
12532SOL    HW239048   5.122   7.819   9.233 -1.5649  1.0185 -0.8810
12533SOL     OW39049   1.516   8.692   7.762  0.1286  0.0399 -0.4606
12533SOL    HW139050   1.422   8.686   7.742  0.1791 -2.2317 -0.3760
12533SOL    HW239051   1.520   8.690   7.858  0.2028  3.3233 -0.2918
12534SOL     OW39052   3.912   0.714   7.737 -0.9592 -0.8174  0.3580
12534SOL    HW139053   3.840   0.777   7.744  1.8237  2.6793  0.2644
12534SOL    HW239054   3.938   0.698   7.828  0.6584  1.2512  0.3251
12535SOL     OW39055   3.141   2.578   9.220 -0.6956 -0.1874 -0.1645
12535SOL    HW139056   3.122   2.565   9.128 -1.5263 -0.2549  0.0044
12535SOL    HW239057   3.086   2.652   9.246  0.4154  0.5963  0.0015
12536SOL     OW39058   1.452   0.380   1.197  0.1974 -0.3700 -0.2140
12536SOL    HW139059   1.433   0.472   1.211 -1.7327 -0.9656  1.4151
12536SOL    HW239060   1.369   0.342   1.167  0.6509 -1.7893  0.2551
12537SOL     OW39061   3.667   2.240   7.028  0.0144 -0.1602  0.7541
12537SOL    HW139062   3.708   2.318   7.064 -1.0042 -0.0196  1.6783
12537SOL    HW239063   3.729   2.170   7.046  0.0177  0.0960  1.8457
12538SOL     OW39064   8.646   2.684   2.674 -0.3659  0.2395  0.3080
12538SOL    HW139065   8.598   2.626   2.615  1.7581 -1.1312 -0.1839
12538SOL    HW239066   8.728   2.638   2.692  0.1707  1.7913  2.2849
12539SOL     OW39067   8.268   5.011   0.556  0.0564 -0.2300  0.3149
12539SOL    HW139068   8.331   4.962   0.609  0.5711  1.6448  1.5447
12539SOL    HW239069   8.321   5.077   0.511 -0.8568  0.5199  0.3118
12540SOL     OW39070   8.352   1.064   1.912  0.2193  0.0557  0.7033
12540SOL    HW139071   8.441   1.071   1.945  0.9967  3.4523 -1.5162
12540SOL    HW239072   8.304   1.132   1.959 -0.6896 -0.4360  0.5038
12541SOL     OW39073   1.371   7.542   7.312  0.6795  0.0677 -0.1270
12541SOL    HW139074   1.384   7.637   7.302  1.5270  0.0482  0.6722
12541SOL    HW239075   1.456   7.509   7.339  0.1151 -0.7638  0.7016
12542SOL     OW39076   4.839   7.216   7.963 -0.2011 -0.0402 -0.2417
12542SOL    HW139077   4.823   7.286   7.899  0.0301  0.2301 -0.0087
12542SOL    HW239078   4.887   7.260   8.034  2.5721 -1.0118 -1.3691
12543SOL     OW39079   8.010   6.103   0.613 -0.2266  0.0157 -0.4158
12543SOL    HW139080   7.972   6.158   0.681  0.5728 -0.4867  0.4751
12543SOL    HW239081   8.097   6.140   0.597 -0.2594 -0.0957 -0.8957
12544SOL     OW39082   6.519   2.817   5.221  0.3481 -0.1939 -0.0592
12544SOL    HW139083   6.513   2.774   5.136  0.9815 -1.1944  0.3830
12544SOL    HW239084   6.448   2.881   5.221  1.4633  1.1073 -2.0441
12545SOL     OW39085   3.032   4.504   7.140 -0.4410  0.4596 -0.1350
12545SOL    HW139086   3.007   4.412   7.139  0.1932  0.2212  2.0719
12545SOL    HW239087   3.014   4.534   7.050 -0.0830 -1.9316 -1.0844
12546SOL     OW39088   1.667   1.195   0.116 -0.1557 -0.5067  0.0337
12546SOL    HW139089   1.676   1.288   0.136 -0.6892 -0.8980  2.3780
12546SOL    HW239090   1.631   1.193   0.027 -3.8097  1.6915  1.2464
12547SOL     OW39091   4.590   7.792   9.084 -0.5745  0.1092  0.2351
12547SOL    HW139092   4.531   7.722   9.055 -0.2753  0.2164 -0.6721
12547SOL    HW239093   4.678   7.758   9.066 -0.2597 -0.5638  2.7260
12548SOL     OW39094   8.718   1.271   1.007  0.3832  0.0758 -0.3467
12548SOL    HW139095   8.777   1.304   0.940 -0.3024 -0.2336 -1.1222
12548SOL    HW239096   8.637   1.321   0.996 -0.3297 -1.1455 -0.9007
12549SOL     OW39097   3.163   6.088   1.687 -0.2101  0.1741  0.1276
12549SOL    HW139098   3.080   6.117   1.648 -1.8521 -0.5498  2.7788
12549SOL    HW239099   3.161   5.993   1.679  0.2736  0.1372  0.4221
12550SOL     OW39100   5.312   1.503   9.211  0.0834 -0.7795 -0.1790
12550SOL    HW139101   5.299   1.481   9.119  0.5500  2.0175 -1.0017
12550SOL    HW239102   5.401   1.537   9.216  0.0603 -0.8541  1.3201
12551SOL     OW39103   8.060   7.432   3.677 -0.0287 -0.3113 -0.3141
12551SOL    HW139104   8.013   7.506   3.715  1.1283  0.3469 -0.1195
12551SOL    HW239105   8.134   7.472   3.631 -0.0693 -1.2671 -1.2416
12552SOL     OW39106   8.173   7.395   4.257  0.2481  0.2469 -0.1397
12552SOL    HW139107   8.134   7.309   4.268  0.4421  0.3004  1.0895
12552SOL    HW239108   8.267   7.378   4.251  0.2434  0.3302 -0.4774
12553SOL     OW39109   8.519   8.144   1.303  0.3001  0.3357 -0.3701
12553SOL    HW139110   8.459   8.134   1.377  1.2824  2.8121  0.8719
12553SOL    HW239111   8.475   8.099   1.230 -1.3446 -0.9915  1.3468
12554SOL     OW39112   0.703   6.964   8.935 -0.7459  0.2427 -0.3292
12554SOL    HW139113   0.706   6.873   8.964  1.6937 -0.0860 -1.3622
12554SOL    HW239114   0.771   6.970   8.867 -1.4468  2.6254 -0.9303
12555SOL     OW39115   5.055   5.826   3.416 -0.4089 -0.4275 -0.1302
12555SOL    HW139116   4.967   5.801   3.445 -1.2132  1.9696 -0.2713
12555SOL    HW239117   5.056   5.807   3.322 -1.2185  0.5433 -0.3597
12556SOL     OW39118   6.021   6.080   6.507 -0.0268  0.7243  0.2317
12556SOL    HW139119   6.066   6.031   6.438  0.9578  0.4087  1.0632
12556SOL    HW239120   5.963   6.017   6.549  1.6672  0.0424  1.6816
12557SOL     OW39121   1.380   8.480   2.822  0.2238 -0.1726  0.2124
12557SOL    HW139122   1.463   8.460   2.866  1.0688  1.8365 -0.3299
12557SOL    HW239123   1.390   8.441   2.735  0.7740  0.3908  0.0172
12558SOL     OW39124   2.620   5.231   0.621 -0.7398 -0.3494 -0.1494
12558SOL    HW139125   2.686   5.300   0.613  0.1673 -1.2624 -0.7836
12558SOL    HW239126   2.562   5.244   0.546 -0.7100 -0.1277 -0.1326
12559SOL     OW39127   4.549   8.831   7.457 -0.4118 -0.5344  0.3831
12559SOL    HW139128   4.581   8.743   7.438  0.6263  0.0512 -0.7222
12559SOL    HW239129   4.583   8.885   7.385  0.2929  1.0485  1.8200
12560SOL     OW39130   8.724   1.850   4.226 -0.1391 -0.1676  0.0638
12560SOL    HW139131   8.784   1.910   4.181 -1.0048 -0.0280 -0.9559
12560SOL    HW239132   8.758   1.844   4.315  0.9923  0.4279 -0.3105
12561SOL     OW39133   6.455   8.967   3.356  0.4826  0.6186 -0.0005
12561SOL    HW139134   6.386   8.937   3.296 -0.3023  1.1898  0.5996
12561SOL    HW239135   6.461   8.898   3.422  2.1318 -0.5631 -1.3008
12562SOL     OW39136   8.822   7.541   7.898 -0.1005  0.4501  0.0133
12562SOL    HW139137   8.866   7.457   7.910 -3.0586 -1.6417 -2.2855
12562SOL    HW239138   8.746   7.537   7.956 -0.1111  1.7161  0.1267
12563SOL     OW39139   8.770   6.859   5.355  0.1362  0.2752 -0.1497
12563SOL    HW139140   8.740   6.849   5.445  0.6491  1.3010  0.1522
12563SOL    HW239141   8.838   6.927   5.360  0.2067  0.3070 -1.2989
12564SOL     OW39142   6.695   3.976   6.706 -0.4651 -0.5118 -0.2515
12564SOL    HW139143   6.639   4.054   6.708 -0.0836 -0.0828 -2.7471
12564SOL    HW239144   6.653   3.915   6.766 -0.4261  1.7844  2.3430
12565SOL     OW39145   3.017   3.586   7.989 -0.4668  0.0197  0.0428
12565SOL    HW139146   3.044   3.495   7.997 -0.0748 -0.0925 -1.9585
12565SOL    HW239147   2.994   3.597   7.896 -0.0597  2.0542  0.1183
12566SOL     OW39148   6.454   1.426   4.789 -0.1864  0.5393 -0.6143
12566SOL    HW139149   6.453   1.516   4.822 -1.4431  0.2627  0.1575
12566SOL    HW239150   6.362   1.404   4.775  0.0252 -0.9523  0.1162
12567SOL     OW39151   6.858   7.711   3.080 -0.0888  0.2869  0.0862
12567SOL    HW139152   6.882   7.620   3.099 -1.1511 -0.1071 -0.3919
12567SOL    HW239153   6.895   7.762   3.152 -2.2929 -0.9071  2.1968
12568SOL     OW39154   2.049   6.428   4.500 -0.2589  0.0506  0.5039
12568SOL    HW139155   2.112   6.367   4.464 -0.1982 -0.5827  1.6379
12568SOL    HW239156   2.035   6.399   4.590  0.0277  1.8960  1.2037
12569SOL     OW39157   5.819   1.759   1.730 -0.7276 -0.1679 -0.1184
12569SOL    HW139158   5.752   1.815   1.769  2.5971  1.7810  3.4581
12569SOL    HW239159   5.859   1.814   1.662 -1.4844 -0.6555 -0.9829
12570SOL     OW39160   6.831   8.908   0.314  0.1258 -0.1702 -0.3476
12570SOL    HW139161   6.885   8.882   0.239 -0.0032 -1.8482  0.0915
12570SOL    HW239162   6.894   8.929   0.383  0.2466 -1.1806 -0.1369
12571SOL     OW39163   8.282   8.649   3.511  0.5685 -0.1142 -0.5897
12571SOL    HW139164   8.332   8.568   3.515 -1.2270 -1.2788 -0.4211
12571SOL    HW239165   8.205   8.627   3.458 -0.6520  1.0712  0.6013
12572SOL     OW39166   2.600   6.604   5.607 -0.6201  0.0552  0.7653
12572SOL    HW139167   2.668   6.609   5.541  1.0497  0.5824  2.4336
12572SOL    HW239168   2.520   6.632   5.562 -0.0225 -1.7388 -1.5450
12573SOL     OW39169   3.174   5.912   3.525  0.4511 -0.2765  0.5460
12573SOL    HW139170   3.139   5.888   3.611 -2.0234 -0.1281 -0.3609
12573SOL    HW239171   3.148   6.004   3.514  1.3700 -0.0850 -0.0892
12574SOL     OW39172   8.841   2.923   7.077 -0.0930  0.0093 -0.3924
12574SOL    HW139173   8.902   2.986   7.040  0.0714 -0.1616 -0.4149
12574SOL    HW239174   8.891   2.876   7.143 -0.0636 -0.4404 -0.7264
12575SOL     OW39175   6.345   3.953   4.987  0.2900  0.1505 -0.0049
12575SOL    HW139176   6.322   4.003   4.908 -0.2921  0.3838  0.3052
12575SOL    HW239177   6.352   4.020   5.056 -0.4258 -0.1773  0.3984
12576SOL     OW39178   8.566   7.389   2.225  0.4743  0.0406 -0.0672
12576SOL    HW139179   8.626   7.363   2.295 -0.0130 -1.9919 -0.3513
12576SOL    HW239180   8.508   7.314   2.214 -0.5897  1.0178 -1.4526
12577SOL     OW39181   4.740   3.065   3.987  0.6549 -0.0607  0.0030
12577SOL    HW139182   4.755   3.157   3.965 -0.7545  0.0270 -0.7460
12577SOL    HW239183   4.686   3.032   3.915 -2.5594 -0.2930  2.3059
12578SOL     OW39184   5.327   5.667   5.138 -0.0785 -0.0470 -0.2309
12578SOL    HW139185   5.307   5.687   5.230  0.0477 -4.1489  0.9324
12578SOL    HW239186   5.242   5.663   5.095 -0.9040 -3.6709  1.2969
12579SOL     OW39187   8.901   8.184   6.849 -0.0653  0.7502 -0.2294
12579SOL    HW139188   8.907   8.091   6.869 -2.5227  0.3358 -1.0554
12579SOL    HW239189   8.856   8.222   6.925 -0.4290  0.9632 -0.5439
12580SOL     OW39190   7.206   6.394   4.024 -0.1992 -0.0601  0.3097
12580SOL    HW139191   7.142   6.409   4.094  0.1857 -0.9805  0.8789
12580SOL    HW239192   7.244   6.480   4.008 -1.3482  0.4352  0.1864
12581SOL     OW39193   7.568   7.282   9.037  0.7335 -0.2677 -0.0678
12581SOL    HW139194   7.567   7.228   8.958 -1.2139 -0.0139 -0.2759
12581SOL    HW239195   7.566   7.372   9.004 -0.3377 -0.1630  0.2270
12582SOL     OW39196   1.751   4.898   6.371  0.5123 -0.4311 -0.5036
12582SOL    HW139197   1.769   4.938   6.456 -1.0812 -1.6385  0.4537
12582SOL    HW239198   1.686   4.955   6.330  0.3761 -0.4895 -0.3709
12583SOL     OW39199   1.794   1.665   4.873  0.0675 -0.1481  0.2157
12583SOL    HW139200   1.860   1.633   4.812  0.7954 -0.1347  0.9712
12583SOL    HW239201   1.718   1.685   4.818 -0.0892 -2.2208 -0.4158
12584SOL     OW39202   8.128   0.949   0.251 -0.0804 -0.0923  0.1247
12584SOL    HW139203   8.094   0.957   0.340 -1.0935  1.2396 -0.3413
12584SOL    HW239204   8.211   0.903   0.261 -0.3489 -0.2868  1.7155
12585SOL     OW39205   8.366   6.016   8.618 -0.5293 -0.7856 -0.0847
12585SOL    HW139206   8.443   6.054   8.576 -0.2066 -0.4642  0.7810
12585SOL    HW239207   8.392   6.004   8.709 -1.4397 -0.8570  0.1739
12586SOL     OW39208   9.084   2.995   1.986  0.5011  0.5064 -0.6060
12586SOL    HW139209   9.109   2.909   2.020 -0.8612  0.2127 -0.2953
12586SOL    HW239210   9.126   3.000   1.901 -0.5143 -1.0654 -1.2427
12587SOL     OW39211   6.899   5.429   3.238 -0.3047  0.1180  0.5601
12587SOL    HW139212   6.935   5.517   3.230  1.0835 -0.4458  0.2999
12587SOL    HW239213   6.815   5.442   3.281 -0.6137  1.6641 -0.4154
12588SOL     OW39214   6.693   5.051   5.999  0.5312 -0.2833  0.4122
12588SOL    HW139215   6.637   5.073   5.924  1.1189 -0.3799 -0.0629
12588SOL    HW239216   6.701   5.134   6.048 -0.7093 -0.4625  0.9612
12589SOL     OW39217   1.773   0.452   5.312 -0.5919  0.2522 -0.2111
12589SOL    HW139218   1.782   0.543   5.284 -0.4536  0.6828  1.1883
12589SOL    HW239219   1.706   0.453   5.380 -1.0125 -0.7875 -0.5859
12590SOL     OW39220   2.593   3.287   4.853  0.2856 -0.0386  0.2282
12590SOL    HW139221   2.548   3.263   4.934  1.2715  0.2545  0.8669
12590SOL    HW239222   2.610   3.380   4.861  1.6159 -0.2769  0.2950
12591SOL     OW39223   4.188   4.078   3.273 -0.0803  0.2711 -0.3984
12591SOL    HW139224   4.216   3.990   3.246  0.0182  0.3883 -0.6845
12591SOL    HW239225   4.113   4.063   3.329  0.3282 -0.0323  0.0799
12592SOL     OW39226   1.607   8.119   3.772 -0.0136 -0.6438 -0.5189
12592SOL    HW139227   1.695   8.097   3.804 -0.0313 -0.6325 -0.4615
12592SOL    HW239228   1.561   8.151   3.850 -0.5461 -2.0856 -0.2100
12593SOL     OW39229   0.822   5.434   1.562 -0.2087 -0.0475  0.1592
12593SOL    HW139230   0.787   5.362   1.615 -2.3547  0.0838 -0.9866
12593SOL    HW239231   0.757   5.448   1.493  1.0120  1.8309 -0.7117
12594SOL     OW39232   1.881   3.803   1.346  0.9099 -0.3775  0.0806
12594SOL    HW139233   1.830   3.867   1.396  0.3032 -0.7245 -0.0843
12594SOL    HW239234   1.880   3.837   1.256 -1.0238 -1.5546 -0.3969
12595SOL     OW39235   6.867   6.446   2.343 -0.4444  0.3134  0.2055
12595SOL    HW139236   6.837   6.378   2.283 -0.5961  1.4503 -1.0458
12595SOL    HW239237   6.791   6.465   2.398 -0.7016  0.1664 -0.0955
12596SOL     OW39238   3.258   7.902   6.698 -0.3264 -0.1088  0.2752
12596SOL    HW139239   3.310   7.822   6.692 -1.1250 -0.5895 -0.5130
12596SOL    HW239240   3.257   7.924   6.791 -0.2751 -1.1399  0.5328
12597SOL     OW39241   8.463   7.216   7.265 -0.0350 -0.4304  0.1030
12597SOL    HW139242   8.551   7.250   7.246  0.6674 -2.0571  0.2010
12597SOL    HW239243   8.406   7.262   7.204  0.9579  0.3301 -0.2905
12598SOL     OW39244   6.711   6.832   0.643 -0.2795  0.0927  0.0831
12598SOL    HW139245   6.761   6.842   0.562 -1.5356  1.1083 -0.6065
12598SOL    HW239246   6.637   6.777   0.619  0.8410 -2.0985  1.2915
12599SOL     OW39247   0.730   6.478   3.941  0.3242 -0.4146  0.4185
12599SOL    HW139248   0.766   6.481   3.853 -0.6622  1.5889  0.0280
12599SOL    HW239249   0.804   6.501   3.998  0.8330 -1.2095  0.1042
12600SOL     OW39250   7.285   6.353   9.043 -0.2322  0.1424  0.3778
12600SOL    HW139251   7.275   6.263   9.011  1.2538  0.0504  0.0947
12600SOL    HW239252   7.336   6.398   8.975 -1.4402  1.3722  0.2474
12601SOL     OW39253   4.103   2.377   5.475  0.0413 -0.1974 -0.8882
12601SOL    HW139254   4.173   2.316   5.500 -0.2777  0.1492  1.0465
12601SOL    HW239255   4.027   2.321   5.461 -0.3430 -0.2810  1.2297
12602SOL     OW39256   3.703   2.302   8.496 -0.7003 -0.2496 -0.1805
12602SOL    HW139257   3.694   2.397   8.490  2.6147  0.2482  0.7670
12602SOL    HW239258   3.683   2.283   8.588  0.0263 -0.2370 -0.0148
12603SOL     OW39259   6.088   3.693   4.450  0.4079 -0.0526 -0.7155
12603SOL    HW139260   6.033   3.772   4.456 -0.6318 -0.8281  0.3998
12603SOL    HW239261   6.111   3.673   4.541 -1.2688 -2.3178 -0.7028
12604SOL     OW39262   1.080   5.921   0.659 -0.2716 -0.3002 -0.6521
12604SOL    HW139263   1.113   5.915   0.569  0.1286  1.0514 -0.6091
12604SOL    HW239264   0.986   5.904   0.651 -0.6244  1.8206 -1.6433
12605SOL     OW39265   2.128   5.486   1.009 -0.1303 -1.1203  0.2967
12605SOL    HW139266   2.180   5.486   0.929  1.0740 -0.8439  1.0379
12605SOL    HW239267   2.125   5.395   1.037 -0.4772 -1.2045 -0.0155
12606SOL     OW39268   9.025   6.084   6.280  0.0409  0.2351 -0.1816
12606SOL    HW139269   9.086   6.012   6.292  0.3528  0.2988 -1.3204
12606SOL    HW239270   9.022   6.099   6.186 -1.9867  0.0156 -0.1971
12607SOL     OW39271   0.275   1.455   7.291 -0.5453 -0.0623  0.8089
12607SOL    HW139272   0.274   1.550   7.300 -0.0589 -0.0145  0.4301
12607SOL    HW239273   0.368   1.432   7.293 -0.5775 -0.3799 -0.4998
12608SOL     OW39274   4.553   4.218   5.071 -0.1997 -0.2538  0.0103
12608SOL    HW139275   4.582   4.227   4.980  3.1801 -1.3293  0.8339
12608SOL    HW239276   4.538   4.124   5.082  1.3467 -0.4256  0.9898
12609SOL     OW39277   4.747   3.184   6.168  0.7889  0.0547  0.1954
12609SOL    HW139278   4.747   3.272   6.207  2.8968 -0.2018  0.9517
12609SOL    HW239279   4.774   3.197   6.077 -1.7525  0.4195 -0.5687
12610SOL     OW39280   3.504   7.861   5.108  0.0411  0.3656  0.1011
12610SOL    HW139281   3.470   7.778   5.075  0.0853  1.0336 -1.7341
12610SOL    HW239282   3.487   7.858   5.202 -0.3972 -1.5022  0.0050
12611SOL     OW39283   2.616   1.542   8.376  0.1898 -0.1810 -0.0076
12611SOL    HW139284   2.697   1.582   8.344 -1.6829  2.5134 -1.8602
12611SOL    HW239285   2.635   1.448   8.378  3.7961  0.4014  1.1973
12612SOL     OW39286   8.472   8.879   0.015 -0.3898 -0.0292  0.4945
12612SOL    HW139287   8.452   8.795  -0.026 -0.3191  0.7556 -1.2372
12612SOL    HW239288   8.403   8.938  -0.018  0.2506  0.8571  0.7194
12613SOL     OW39289   5.730   0.340   4.592 -0.1595  1.0231  0.1401
12613SOL    HW139290   5.820   0.329   4.621 -0.0157  1.1027 -0.2709
12613SOL    HW239291   5.680   0.351   4.673 -0.0632 -0.8553  0.4865
12614SOL     OW39292   9.014   6.391   2.513 -0.4821  0.0662 -0.0064
12614SOL    HW139293   8.926   6.367   2.484 -1.1128  1.1006  0.9649
12614SOL    HW239294   9.060   6.307   2.523 -1.1334 -0.4489 -1.1451
12615SOL     OW39295   7.720   3.904   6.466  0.0973 -0.8154 -0.2219
12615SOL    HW139296   7.774   3.945   6.398 -0.0013  0.5195  0.4677
12615SOL    HW239297   7.699   3.976   6.526  0.4995 -2.0129  1.4348
12616SOL     OW39298   0.814   3.194   8.634  0.2092 -0.0734  0.2550
12616SOL    HW139299   0.835   3.102   8.620  0.7615  0.3370 -1.8727
12616SOL    HW239300   0.899   3.236   8.648  0.0926  0.3495 -0.2909
12617SOL     OW39301   7.046   5.434   6.813 -0.1038 -0.1710  0.0629
12617SOL    HW139302   7.140   5.436   6.829  0.0158  0.7186 -0.6577
12617SOL    HW239303   7.018   5.348   6.845  0.6415  0.2224  1.9226
12618SOL     OW39304   4.713   3.958   6.955 -0.1706  0.2649 -0.3174
12618SOL    HW139305   4.795   3.981   6.999 -0.7566  0.0793  0.9096
12618SOL    HW239306   4.721   3.996   6.867  1.4755 -0.2871 -0.4233
12619SOL     OW39307   6.333   7.685   3.919  0.1377 -0.2102  0.4289
12619SOL    HW139308   6.330   7.592   3.940 -1.8963 -0.2990 -0.0740
12619SOL    HW239309   6.265   7.698   3.853 -0.5956  1.8653  1.4798
12620SOL     OW39310   3.818   5.784   1.299 -0.0041  0.0998 -0.0284
12620SOL    HW139311   3.789   5.778   1.208 -0.0547 -0.3559  0.0155
12620SOL    HW239312   3.892   5.723   1.304  1.0216  1.2867 -0.1583
12621SOL     OW39313   6.425   4.916   3.101  0.1281  0.4767  0.7450
12621SOL    HW139314   6.476   4.930   3.181  2.2909  0.0613 -0.5023
12621SOL    HW239315   6.397   4.824   3.107  0.5854  0.3409  0.8654
12622SOL     OW39316   3.592   2.818   6.505  0.5159  0.4102  0.1664
12622SOL    HW139317   3.640   2.898   6.526 -0.1450  1.0567 -0.7034
12622SOL    HW239318   3.509   2.826   6.552  1.5356 -1.1513  2.4641
12623SOL     OW39319   5.400   1.547   3.405 -0.1482  0.6765 -0.4865
12623SOL    HW139320   5.313   1.567   3.441 -0.0643  1.6021 -0.7649
12623SOL    HW239321   5.398   1.453   3.388 -1.0739  0.6770 -0.4272
12624SOL     OW39322   2.026   7.362   5.948 -0.5504 -0.5356 -0.8345
12624SOL    HW139323   2.091   7.406   5.894 -0.6629  0.9833  0.1982
12624SOL    HW239324   2.071   7.284   5.980  0.4176 -0.0483 -0.9583
12625SOL     OW39325   6.660   5.201   8.434  0.1968 -0.1659  0.2726
12625SOL    HW139326   6.590   5.265   8.445  1.8440  1.5060  1.6982
12625SOL    HW239327   6.627   5.122   8.477 -1.1352  0.2692  0.1108
12626SOL     OW39328   0.721   1.913   2.628 -0.5759  0.0988  0.2752
12626SOL    HW139329   0.794   1.935   2.570 -0.2777 -0.8296  0.2830
12626SOL    HW239330   0.758   1.851   2.691 -1.6162 -1.2767 -0.4096
12627SOL     OW39331   3.284   4.669   4.311 -0.0358  0.1414  0.0270
12627SOL    HW139332   3.275   4.757   4.347  0.3526 -0.3056  1.2659
12627SOL    HW239333   3.362   4.633   4.354 -0.4716 -0.9766 -0.0796
12628SOL     OW39334   6.945   7.619   6.518  0.3764 -0.6394  0.7871
12628SOL    HW139335   6.942   7.693   6.458  1.8446  1.0115  2.6022
12628SOL    HW239336   6.985   7.549   6.468 -0.5780 -0.0880 -0.8355
12629SOL     OW39337   0.617   2.621   7.536  0.1043 -0.3620  0.2336
12629SOL    HW139338   0.689   2.561   7.556 -0.2467 -1.0338 -0.4737
12629SOL    HW239339   0.612   2.622   7.441  0.0053  0.6862  0.2455
12630SOL     OW39340   4.835   8.362   0.305 -0.2902  0.3650  0.0944
12630SOL    HW139341   4.774   8.301   0.346  0.2418 -1.5090 -1.7107
12630SOL    HW239342   4.843   8.330   0.215  1.9978  1.6224 -0.2137
12631SOL     OW39343   5.759   4.570   2.648  0.1531  0.5183  0.7523
12631SOL    HW139344   5.823   4.514   2.691  0.0431  0.1440  0.4316
12631SOL    HW239345   5.775   4.657   2.685  0.6085  0.3610  0.9346
12632SOL     OW39346   6.504   1.215   5.818 -0.3440 -0.1747 -0.0354
12632SOL    HW139347   6.534   1.125   5.805 -1.5396 -0.7798  1.2300
12632SOL    HW239348   6.445   1.231   5.744 -0.7211 -0.6975  0.1488
12633SOL     OW39349   3.583   6.341   1.710  0.0456 -0.1734  0.3990
12633SOL    HW139350   3.597   6.436   1.704  2.7802 -0.5873 -1.2105
12633SOL    HW239351   3.528   6.321   1.635 -2.1081  0.2884  1.7568
12634SOL     OW39352   0.698   6.188   4.014  0.2007  0.8261  0.4461
12634SOL    HW139353   0.741   6.201   4.099 -0.7466 -0.4034  1.1473
12634SOL    HW239354   0.703   6.274   3.971  4.1542  0.5766  0.0332
12635SOL     OW39355   8.332   6.490   1.903  0.0833 -0.2445  0.7350
12635SOL    HW139356   8.400   6.426   1.880  1.0838  0.5439  1.3878
12635SOL    HW239357   8.320   6.541   1.823 -1.9769 -2.2547 -0.3650
12636SOL     OW39358   7.797   4.604   8.451  0.3701 -0.4302  0.4585
12636SOL    HW139359   7.741   4.678   8.472  0.4341 -0.0113 -0.7440
12636SOL    HW239360   7.882   4.625   8.491  0.5290  0.3958 -0.2689
12637SOL     OW39361   7.249   3.793   8.940  0.4842  0.5504 -0.0349
12637SOL    HW139362   7.328   3.846   8.948  2.3618 -1.9924 -0.3136
12637SOL    HW239363   7.241   3.778   8.846 -1.1107  1.7947 -0.1302
12638SOL     OW39364   0.872   2.331   7.089  0.1817  0.6751  0.1537
12638SOL    HW139365   0.845   2.246   7.124  0.3786 -0.1840 -1.6914
12638SOL    HW239366   0.933   2.310   7.019  0.9090  2.3960  0.2295
12639SOL     OW39367   2.176   8.108   2.705 -0.2780 -0.1603 -0.0411
12639SOL    HW139368   2.129   8.126   2.786  0.1894  1.7073 -0.1527
12639SOL    HW239369   2.265   8.088   2.732  0.4941  2.7211 -0.1302
12640SOL     OW39370   0.424   5.856   7.890 -0.0474 -0.4530  0.4629
12640SOL    HW139371   0.367   5.899   7.953 -0.9247 -0.7512 -0.0987
12640SOL    HW239372   0.382   5.771   7.875  0.5146 -0.6491 -0.0114
12641SOL     OW39373   5.651   4.428   3.598  0.0769  0.1434 -0.1037
12641SOL    HW139374   5.680   4.482   3.671  0.2075 -1.1117  0.8087
12641SOL    HW239375   5.556   4.424   3.607 -0.0042  0.7935 -0.5993
12642SOL     OW39376   0.095   3.516   1.147  0.4983  0.3865 -0.1545
12642SOL    HW139377   0.151   3.574   1.198  0.7716  0.8732 -0.9730
12642SOL    HW239378   0.047   3.576   1.089 -1.3527  0.0503  0.9527
12643SOL     OW39379   3.407   1.551   7.693 -0.1884  0.0225 -0.2492
12643SOL    HW139380   3.404   1.601   7.611  3.5562  0.9942  0.0230
12643SOL    HW239381   3.372   1.611   7.759 -2.6907 -0.5557 -0.9676
12644SOL     OW39382   4.564   0.898   8.469 -0.7207 -0.2020 -0.2545
12644SOL    HW139383   4.597   0.814   8.501  0.3331 -0.4074 -1.7610
12644SOL    HW239384   4.640   0.940   8.428 -1.3887  1.1929 -0.1343
12645SOL     OW39385   3.452   6.613   1.681  0.0516 -0.4305 -0.3783
12645SOL    HW139386   3.478   6.697   1.718  0.9826 -0.2819 -1.2973
12645SOL    HW239387   3.358   6.607   1.696 -0.2230  1.2690 -1.2375
12646SOL     OW39388   7.265   9.041   4.998  0.2120 -0.2073  0.2994
12646SOL    HW139389   7.245   9.054   5.090 -1.6121  0.3989 -0.1248
12646SOL    HW239390   7.207   8.970   4.971 -1.6062  1.6709 -1.0353
12647SOL     OW39391   0.364   8.010   8.519  0.1122  0.6210  0.4443
12647SOL    HW139392   0.299   7.993   8.451 -2.8870 -0.2444  3.2609
12647SOL    HW239393   0.348   8.100   8.546  0.9757  0.8085  0.3600
12648SOL     OW39394   3.922   6.758   8.004  0.2074 -0.1223  0.1064
12648SOL    HW139395   3.919   6.693   7.934  0.8875  0.0409 -0.0825
12648SOL    HW239396   3.953   6.710   8.081 -0.5582 -0.3060  0.3062
12649SOL     OW39397   8.818   7.559   0.842 -0.0356  0.1020 -0.1627
12649SOL    HW139398   8.905   7.598   0.843  0.0341  0.0602  2.3365
12649SOL    HW239399   8.784   7.575   0.930 -2.2500 -0.5844 -0.8258
12650SOL     OW39400   2.822   0.835   4.313  0.1716 -0.0074 -0.6268
12650SOL    HW139401   2.770   0.820   4.234 -0.4218  0.1914 -0.2762
12650SOL    HW239402   2.771   0.898   4.364  0.1817 -0.7025  0.2712
12651SOL     OW39403   2.831   7.718   0.284  0.1282  0.0960 -0.0633
12651SOL    HW139404   2.921   7.735   0.254  0.6238  0.6872  1.6421
12651SOL    HW239405   2.778   7.782   0.237  0.9380  1.3180  0.6193
12652SOL     OW39406   2.417   3.447   6.098  0.6036 -0.2660 -0.1537
12652SOL    HW139407   2.380   3.534   6.082  1.6824  0.0623 -1.0223
12652SOL    HW239408   2.510   3.463   6.112  0.7157 -1.2286  0.2569
12653SOL     OW39409   6.832   8.988   3.902 -0.4852  0.5195  0.4009
12653SOL    HW139410   6.882   8.992   3.821  1.2642  1.4657  1.4799
12653SOL    HW239411   6.868   8.912   3.948 -0.7110  0.6325  0.7659
12654SOL     OW39412   6.896   8.080   6.395 -0.2366 -0.3296  0.1990
12654SOL    HW139413   6.937   8.087   6.481  1.0150  1.7714 -0.5002
12654SOL    HW239414   6.841   8.158   6.387  0.4070  0.0136 -1.2382
12655SOL     OW39415   4.440   8.360   5.244 -0.2982 -0.4238 -0.2311
12655SOL    HW139416   4.486   8.276   5.249  0.1235 -0.1603  0.4154
12655SOL    HW239417   4.489   8.418   5.302  2.3175  1.6805 -4.0960
12656SOL     OW39418   3.413   2.808   0.312 -0.6703 -0.3534  0.6821
12656SOL    HW139419   3.467   2.816   0.233 -1.6876 -0.3725 -0.0270
12656SOL    HW239420   3.341   2.750   0.287 -1.0950 -0.2241  1.5702
12657SOL     OW39421   0.938   3.531   0.361  0.4501 -0.1302  0.1427
12657SOL    HW139422   0.981   3.487   0.435  0.6123  0.1835  0.2374
12657SOL    HW239423   0.896   3.607   0.399  0.4939  0.0084 -0.0845
12658SOL     OW39424   4.989   0.712   4.612 -0.2212  0.0363  0.7095
12658SOL    HW139425   5.000   0.750   4.700  0.9717  1.7650 -0.1172
12658SOL    HW239426   5.006   0.619   4.624  2.6899  0.5929  1.9323
12659SOL     OW39427   7.466   6.693   0.161 -0.0289 -0.0757 -0.4436
12659SOL    HW139428   7.449   6.614   0.109  0.7337 -1.5759  1.4558
12659SOL    HW239429   7.519   6.748   0.104  2.7870 -2.6612 -0.5976
12660SOL     OW39430   0.196   1.257   5.444  0.1377  0.3148 -0.2096
12660SOL    HW139431   0.261   1.326   5.458 -0.0544  0.4039  0.2839
12660SOL    HW239432   0.197   1.241   5.350  0.1708  1.0115 -0.3315
12661SOL     OW39433   6.407   7.647   6.733 -0.4123 -0.0882  0.4996
12661SOL    HW139434   6.380   7.680   6.818  1.4467  0.3024  0.9847
12661SOL    HW239435   6.386   7.553   6.735 -2.1855  0.2803  0.5910
12662SOL     OW39436   5.628   0.747   5.845  0.2193  0.5291 -0.5240
12662SOL    HW139437   5.583   0.690   5.908 -1.1060  0.7375 -1.2487
12662SOL    HW239438   5.713   0.765   5.886  0.3460 -1.2969  0.0781
12663SOL     OW39439   4.061   2.616   4.931  0.3367 -0.0166  0.3964
12663SOL    HW139440   3.966   2.625   4.935  0.0095 -2.9615  1.9309
12663SOL    HW239441   4.085   2.651   4.845 -2.3285 -0.5672 -0.6592
12664SOL     OW39442   0.350   1.663   2.968  0.0185 -0.3263 -0.1825
12664SOL    HW139443   0.427   1.681   3.022 -0.2710  0.6674 -0.0749
12664SOL    HW239444   0.382   1.604   2.900  0.9941  0.3824 -0.3721
12665SOL     OW39445   6.400   7.593   1.951  0.0407  0.5130 -0.6101
12665SOL    HW139446   6.426   7.551   2.033  0.8340 -0.5252 -1.3553
12665SOL    HW239447   6.386   7.685   1.974  2.6831  0.7979  0.2255
12666SOL     OW39448   6.650   6.256   1.245 -0.4816  0.0390  0.5383
12666SOL    HW139449   6.625   6.329   1.187 -0.2233  0.5832  1.1048
12666SOL    HW239450   6.745   6.262   1.251 -0.0591 -2.2142 -1.8533
12667SOL     OW39451   4.996   6.890   2.082  0.8014  0.0821  0.8941
12667SOL    HW139452   4.943   6.891   2.162  0.9581  0.2673  0.9969
12667SOL    HW239453   4.947   6.834   2.022 -0.0115  1.0356  0.6407
12668SOL     OW39454   7.138   9.278   8.038 -0.5087  0.2854 -0.5436
12668SOL    HW139455   7.062   9.281   8.094 -1.1269 -1.8196 -1.1619
12668SOL    HW239456   7.156   9.184   8.026  1.2791  0.6973 -1.5880
12669SOL     OW39457   7.063   4.951   6.317  0.7136  0.1641 -0.3494
12669SOL    HW139458   7.151   4.964   6.351 -0.1036 -0.6477  2.3367
12669SOL    HW239459   7.069   4.872   6.263  1.4210 -0.6673  0.8980
12670SOL     OW39460   5.353   8.619   8.546 -0.7641  0.6124  0.3932
12670SOL    HW139461   5.317   8.530   8.537 -0.0205  0.3735 -0.3926
12670SOL    HW239462   5.338   8.658   8.460 -0.3460  0.9654  0.4828
12671SOL     OW39463   2.460   7.541   7.326 -0.6565 -0.1851 -0.1501
12671SOL    HW139464   2.414   7.507   7.403 -1.1602 -1.7626 -1.1204
12671SOL    HW239465   2.534   7.590   7.363 -0.5892 -1.3310  1.3340
12672SOL     OW39466   3.457   5.083   7.001 -0.0343 -0.1291  0.3206
12672SOL    HW139467   3.415   5.076   7.087  1.7358 -1.1325  1.1643
12672SOL    HW239468   3.452   4.994   6.966  0.9105 -0.1468  0.2235
12673SOL     OW39469   4.629   1.436   7.655 -0.5577 -0.0284 -0.1592
12673SOL    HW139470   4.621   1.385   7.735 -0.3741  1.5814  0.9298
12673SOL    HW239471   4.591   1.380   7.587 -0.1075 -1.7123  0.8958
12674SOL     OW39472   0.660   1.125   5.203 -0.0261 -0.1839  0.1413
12674SOL    HW139473   0.667   1.157   5.113  0.1683  1.4331  0.7007
12674SOL    HW239474   0.574   1.082   5.206  0.2703 -0.8979 -0.9857
12675SOL     OW39475   3.639   7.548   1.256 -0.7346 -0.1188  0.3506
12675SOL    HW139476   3.718   7.521   1.209 -1.1768 -0.2102 -0.3547
12675SOL    HW239477   3.656   7.640   1.279 -0.8922  0.2357 -0.8473
12676SOL     OW39478   9.142   1.561   0.401 -0.0884 -0.0882 -0.3773
12676SOL    HW139479   9.122   1.654   0.416  2.4235  0.4382  0.2353
12676SOL    HW239480   9.128   1.548   0.307 -1.6329  0.5699 -0.2640
12677SOL     OW39481   0.468   1.443   2.423  0.1896  0.8205 -0.3129
12677SOL    HW139482   0.379   1.470   2.446 -0.1579 -1.3139  1.0656
12677SOL    HW239483   0.458   1.395   2.341 -0.0260  0.1440  0.1026
12678SOL     OW39484   8.017   5.061   7.779 -0.6007  0.1131  0.0707
12678SOL    HW139485   8.096   5.074   7.832 -0.0164 -4.0890  0.5688
12678SOL    HW239486   7.949   5.112   7.823  0.8386  0.2305  2.3085
12679SOL     OW39487   1.090   3.340   1.186 -0.1991 -0.4032  0.7801
12679SOL    HW139488   1.019   3.393   1.222  0.6321  0.6993  0.8873
12679SOL    HW239489   1.072   3.334   1.093 -0.3255  0.0623  0.7731
12680SOL     OW39490   5.295   6.114   8.960 -0.2100 -0.3949 -0.2864
12680SOL    HW139491   5.374   6.163   8.938  0.0006 -0.5208  0.1801
12680SOL    HW239492   5.261   6.083   8.876 -0.6489  1.0112 -0.6515
12681SOL     OW39493   3.626   7.957   8.074  0.0138  0.2593  0.4612
12681SOL    HW139494   3.656   7.873   8.109 -1.3616 -1.4131 -2.0941
12681SOL    HW239495   3.567   7.991   8.141  1.1292 -0.4090  1.8470
12682SOL     OW39496   8.436   7.659   1.811  0.0619  0.1720 -0.4566
12682SOL    HW139497   8.512   7.718   1.812 -1.4540  2.3498  2.4147
12682SOL    HW239498   8.432   7.624   1.901 -1.5048 -1.0551 -0.9529
12683SOL     OW39499   0.732   6.048   1.676  0.4181 -0.4811  0.3014
12683SOL    HW139500   0.780   6.027   1.755  2.5986 -3.4214 -1.6097
12683SOL    HW239501   0.693   5.965   1.648  0.6999  0.1521 -2.2664
12684SOL     OW39502   5.040   1.589   6.883  0.3782  0.0933  0.1813
12684SOL    HW139503   5.129   1.590   6.848  0.5284  2.1268  0.4670
12684SOL    HW239504   4.988   1.542   6.817  1.5024 -0.3694 -0.3920
12685SOL     OW39505   8.172   8.253   0.113 -0.0465 -0.2231  0.0477
12685SOL    HW139506   8.234   8.181   0.099 -0.8098 -0.8098 -0.3627
12685SOL    HW239507   8.146   8.244   0.205 -1.6123 -1.7023 -0.4731
12686SOL     OW39508   7.209   5.617   8.403 -0.3479  0.1942  0.4515
12686SOL    HW139509   7.276   5.551   8.419 -0.8213 -0.1919  0.8762
12686SOL    HW239510   7.130   5.568   8.383 -0.4468  0.6514 -0.3218
12687SOL     OW39511   2.733   6.672   3.829 -1.2055 -0.9843 -0.2607
12687SOL    HW139512   2.661   6.650   3.770 -2.1766 -1.6040  1.1059
12687SOL    HW239513   2.771   6.752   3.793 -3.3540  0.0616 -0.3488
12688SOL     OW39514   6.794   7.427   7.829  0.2820 -1.2523 -0.1652
12688SOL    HW139515   6.757   7.356   7.776  1.2000 -0.5875 -1.7833
12688SOL    HW239516   6.769   7.507   7.782  3.2708 -0.7481 -1.0802
12689SOL     OW39517   2.785   0.900   8.915  0.0144 -0.0503 -0.4703
12689SOL    HW139518   2.851   0.968   8.924  1.3113 -1.3266  0.0899
12689SOL    HW239519   2.704   0.940   8.948  1.2611  0.4526  2.2453
12690SOL     OW39520   2.393   3.458   4.277  0.2718  0.2813 -0.3366
12690SOL    HW139521   2.313   3.457   4.330 -0.4171 -0.9051 -1.3373
12690SOL    HW239522   2.398   3.547   4.243  0.8552  1.1566  1.8383
12691SOL     OW39523   4.937   5.799   8.776 -0.3433  0.0705 -0.0404
12691SOL    HW139524   4.865   5.824   8.835  0.0090 -0.7082  0.7454
12691SOL    HW239525   4.895   5.746   8.708 -0.2549 -2.3683  1.6777
12692SOL     OW39526   1.376   0.329   5.310  0.3657 -0.3958 -0.0580
12692SOL    HW139527   1.330   0.351   5.229 -0.0194 -0.2429  0.1993
12692SOL    HW239528   1.380   0.233   5.310 -0.9057 -0.4723  0.4257
12693SOL     OW39529   9.152   1.305   7.705 -0.2044 -0.2086  0.4832
12693SOL    HW139530   9.167   1.382   7.761  0.2767 -0.5104  0.7834
12693SOL    HW239531   9.058   1.292   7.706 -0.5260  1.5905 -1.2097
12694SOL     OW39532   3.623   7.704   2.977  0.6604  0.5266  0.2379
12694SOL    HW139533   3.709   7.706   3.018  1.1974 -0.3964 -0.7808
12694SOL    HW239534   3.640   7.711   2.883 -0.0605 -2.6365 -0.2610
12695SOL     OW39535   8.440   3.333   8.300  0.0762  0.6614  0.3860
12695SOL    HW139536   8.370   3.335   8.365 -0.6389  2.4993 -0.3844
12695SOL    HW239537   8.403   3.375   8.223  0.5947 -2.2335 -1.6075
12696SOL     OW39538   0.376   6.753   7.408  0.0641 -0.3203  0.4208
12696SOL    HW139539   0.460   6.724   7.443  0.5541  0.9679  0.3566
12696SOL    HW239540   0.396   6.785   7.320 -0.5343 -0.2052  0.3235
12697SOL     OW39541   4.536   2.965   1.174 -0.3231 -0.3690 -0.3997
12697SOL    HW139542   4.620   2.992   1.138 -0.4216 -0.8056 -0.9705
12697SOL    HW239543   4.556   2.935   1.263 -0.2670  1.8564  0.3847
12698SOL     OW39544   2.439   2.669   3.524  0.1085 -0.3977  0.0512
12698SOL    HW139545   2.463   2.612   3.451 -0.4181 -1.6713  0.8394
12698SOL    HW239546   2.520   2.680   3.574  0.2905 -0.1686 -0.2951
12699SOL     OW39547   0.849   5.344   4.434 -1.0564  0.4197  0.3613
12699SOL    HW139548   0.864   5.374   4.344 -0.2071 -0.6856  0.1157
12699SOL    HW239549   0.757   5.363   4.451 -1.4166 -0.0255 -0.9996
12700SOL     OW39550   6.525   7.937   7.390 -0.4837 -0.0346  0.7301
12700SOL    HW139551   6.553   7.910   7.477 -4.6035 -0.1464  2.2374
12700SOL    HW239552   6.472   8.015   7.405 -0.8610  0.2634 -1.7647
12701SOL     OW39553   5.429   5.081   1.923 -0.1526 -0.1457 -0.7098
12701SOL    HW139554   5.442   5.059   1.831 -0.8267  2.1312 -1.4227
12701SOL    HW239555   5.334   5.087   1.933 -0.0696  2.2460 -0.6478
12702SOL     OW39556   0.785   2.768   0.523  0.1215 -0.0229 -0.8247
12702SOL    HW139557   0.763   2.831   0.592  0.9550 -0.6364  0.0272
12702SOL    HW239558   0.727   2.693   0.540  1.3102 -0.7612  0.1087
12703SOL     OW39559   1.735   5.362   8.817 -0.1401  0.4694  0.4552
12703SOL    HW139560   1.652   5.398   8.785 -0.7808 -1.9389 -0.8776
12703SOL    HW239561   1.795   5.436   8.816 -1.3400  1.5631 -2.0865
12704SOL     OW39562   8.161   6.366   8.469 -0.6792  0.5188  0.2416
12704SOL    HW139563   8.226   6.321   8.414 -1.3709  0.2804 -0.3922
12704SOL    HW239564   8.150   6.309   8.545 -0.3956  0.3900  0.1873
12705SOL     OW39565   7.830   8.702   7.902 -0.6645  0.0560  0.5120
12705SOL    HW139566   7.746   8.678   7.864 -0.4871  0.0274  0.1281
12705SOL    HW239567   7.894   8.687   7.831 -0.1499 -1.2586  1.2344
12706SOL     OW39568   0.948   8.744   5.916 -0.5266 -0.4078 -0.3021
12706SOL    HW139569   0.887   8.690   5.966  1.7956 -1.3741  1.7460
12706SOL    HW239570   1.023   8.756   5.975 -0.2184  3.8118 -1.2720
12707SOL     OW39571   1.520   0.707   8.533 -0.0658 -0.2441  0.1255
12707SOL    HW139572   1.437   0.703   8.487  0.5950 -0.1954 -1.1126
12707SOL    HW239573   1.518   0.632   8.593 -0.4130 -1.0864 -0.9210
12708SOL     OW39574   1.283   5.109   4.658  0.2929 -0.5247 -0.7667
12708SOL    HW139575   1.192   5.089   4.636 -0.2981 -0.1652  1.1312
12708SOL    HW239576   1.303   5.187   4.606 -1.5640  1.2377  0.9112
12709SOL     OW39577   8.044   5.833   0.263  0.0361 -0.1088 -0.2949
12709SOL    HW139578   8.056   5.830   0.358  0.2343 -0.0052 -0.3159
12709SOL    HW239579   7.949   5.832   0.251 -0.0742  1.8173 -0.0160
12710SOL     OW39580   0.088   4.484   1.353 -0.6820 -0.6615  0.6799
12710SOL    HW139581  -0.004   4.489   1.380 -1.6094 -1.8354 -1.9230
12710SOL    HW239582   0.103   4.391   1.337  0.7194 -0.3816  0.2621
12711SOL     OW39583   8.354   6.541   1.148 -0.2097 -0.2504  0.0238
12711SOL    HW139584   8.278   6.499   1.110 -0.3425  0.0805 -0.0807
12711SOL    HW239585   8.416   6.549   1.075 -0.8273  1.2377 -0.3652
12712SOL     OW39586   3.567   0.393   3.938  0.3378  0.0029 -0.2493
12712SOL    HW139587   3.590   0.311   3.982 -0.1436 -0.3194 -0.5848
12712SOL    HW239588   3.648   0.444   3.939  0.8847 -0.8260 -0.7932
12713SOL     OW39589   5.836   4.506   1.466 -0.3293 -0.1141 -0.3313
12713SOL    HW139590   5.804   4.435   1.411 -0.0271 -0.3660 -0.1881
12713SOL    HW239591   5.898   4.553   1.410  2.2308 -2.0985  0.6449
12714SOL     OW39592   4.534   1.992   4.017  0.0239  0.3874  0.5556
12714SOL    HW139593   4.523   1.972   4.110  1.5721  1.1770  0.9420
12714SOL    HW239594   4.474   1.933   3.972  0.3215 -1.0440  1.9676
12715SOL     OW39595   6.783   4.192   7.007  0.1486  0.2819  0.4688
12715SOL    HW139596   6.828   4.230   7.083 -0.9373 -0.6046  1.5959
12715SOL    HW239597   6.854   4.165   6.948  0.9959  2.0813  0.5733
12716SOL     OW39598   0.019   8.456   6.208 -0.0385  0.1495  0.0051
12716SOL    HW139599   0.013   8.364   6.184 -0.4850 -0.4037  2.0398
12716SOL    HW239600  -0.042   8.466   6.281 -1.0331  2.3887 -1.0354
12717SOL     OW39601   1.331   9.056   2.690 -0.3787  0.1752 -0.2353
12717SOL    HW139602   1.400   9.006   2.647 -0.6202 -0.5802  0.2486
12717SOL    HW239603   1.296   9.112   2.620  0.2701  0.0834 -0.6450
12718SOL     OW39604   4.454   7.887   8.407 -0.2131 -0.0719  0.1957
12718SOL    HW139605   4.543   7.901   8.437  0.4138 -1.1803 -1.0195
12718SOL    HW239606   4.462   7.875   8.312 -1.5068 -1.1536  0.1795
12719SOL     OW39607   7.785   3.371   7.195  0.4900  0.5436 -0.0344
12719SOL    HW139608   7.793   3.275   7.194 -0.8205  0.3194 -3.3820
12719SOL    HW239609   7.726   3.389   7.269 -0.5726 -1.4424 -0.3081
12720SOL     OW39610   3.992   6.460   8.998  0.6521  0.1654 -0.0887
12720SOL    HW139611   4.024   6.532   8.944  0.3391  0.2121 -0.2138
12720SOL    HW239612   3.996   6.493   9.087 -2.7129  1.6504 -0.3369
12721SOL     OW39613   6.757   0.561   9.146  0.0139 -0.2917 -0.9335
12721SOL    HW139614   6.692   0.498   9.115 -2.2484  0.5444  1.7770
12721SOL    HW239615   6.760   0.549   9.240  3.2217  0.3584 -0.8447
12722SOL     OW39616   2.581   5.278   4.753 -0.6561 -0.3308 -0.2531
12722SOL    HW139617   2.637   5.275   4.831 -0.1597  1.2301 -0.4985
12722SOL    HW239618   2.590   5.192   4.713 -0.3052 -0.8988  0.9903
12723SOL     OW39619   8.004   2.388   0.094 -0.6315  0.1043  0.1572
12723SOL    HW139620   7.949   2.422   0.024 -0.4144  0.7182  0.2773
12723SOL    HW239621   8.084   2.360   0.050 -1.0974 -0.9556 -0.0413
12724SOL     OW39622   5.711   8.080   1.430 -0.3230 -0.0853  0.1909
12724SOL    HW139623   5.722   8.025   1.507  1.1181  1.9267  1.5514
12724SOL    HW239624   5.637   8.137   1.452  1.0185  1.5087  0.8441
12725SOL     OW39625   0.203   9.184   8.361 -0.0436 -0.5510 -0.1731
12725SOL    HW139626   0.247   9.134   8.293 -0.3262 -0.3064 -0.5362
12725SOL    HW239627   0.173   9.118   8.424 -1.7095 -0.9931 -1.3702
12726SOL     OW39628   2.826   7.174   1.925 -0.1719  0.3006 -0.3282
12726SOL    HW139629   2.914   7.178   1.961 -0.2486 -2.2367  0.2820
12726SOL    HW239630   2.802   7.266   1.912  0.6796  1.4069  4.0837
12727SOL     OW39631   2.131   4.283   5.284 -0.4726  0.3595 -0.0415
12727SOL    HW139632   2.101   4.234   5.208 -1.3769 -0.5417  0.8678
12727SOL    HW239633   2.188   4.351   5.248 -2.0184  0.8687 -1.6541
12728SOL     OW39634   6.809   3.703   4.032  0.0912  0.9582 -0.0744
12728SOL    HW139635   6.788   3.615   4.003  0.8529  0.3618  1.1009
12728SOL    HW239636   6.807   3.699   4.127  0.1137  2.2220  0.0056
12729SOL     OW39637   4.968   8.221   6.479 -0.2946  0.1769 -0.2146
12729SOL    HW139638   4.875   8.198   6.480 -0.0959 -1.0034 -2.3257
12729SOL    HW239639   5.010   8.146   6.436  1.4920  1.1418 -0.2260
12730SOL     OW39640   5.976   3.414   2.936  0.1380 -0.1802 -0.1677
12730SOL    HW139641   5.939   3.467   3.007 -1.1330  0.1055 -0.9959
12730SOL    HW239642   5.903   3.358   2.908  0.7085 -0.5167 -1.0176
12731SOL     OW39643   0.490   4.707   7.446  0.4782 -0.2209  0.1183
12731SOL    HW139644   0.578   4.690   7.481  1.4080  0.8264 -1.5787
12731SOL    HW239645   0.444   4.623   7.456  2.6702 -1.7916 -1.6743
12732SOL     OW39646   4.763   2.571   3.275  0.1180 -0.4661  0.2540
12732SOL    HW139647   4.858   2.571   3.288  0.3698 -0.4063 -1.3272
12732SOL    HW239648   4.747   2.651   3.224 -0.7004 -0.7692  0.0269
12733SOL     OW39649   6.033   5.577   5.583 -0.2042 -0.1729  0.0099
12733SOL    HW139650   6.125   5.556   5.598  0.1546  0.9637 -0.4716
12733SOL    HW239651   6.012   5.643   5.649 -0.8805 -0.9139  0.5576
12734SOL     OW39652   5.166   9.130   5.621  0.0903 -0.3714  0.3542
12734SOL    HW139653   5.082   9.125   5.577 -0.0280 -0.6420  0.6039
12734SOL    HW239654   5.148   9.100   5.711  0.5547 -0.9538  0.2602
12735SOL     OW39655   4.850   4.943   3.411  0.2945  0.2515 -0.1632
12735SOL    HW139656   4.814   4.872   3.357  0.5679 -0.5312  0.6459
12735SOL    HW239657   4.941   4.918   3.426 -0.0178 -0.0606  1.4314
12736SOL     OW39658   1.415   6.914   2.375  0.4705 -0.0986  0.1173
12736SOL    HW139659   1.426   6.820   2.360  2.5445 -0.0197  0.7795
12736SOL    HW239660   1.500   6.942   2.410  0.1267  2.1582 -0.7373
12737SOL     OW39661   8.644   0.958   7.925  0.9823  0.5836 -0.0527
12737SOL    HW139662   8.604   0.891   7.869  1.4380 -0.3728  0.7431
12737SOL    HW239663   8.732   0.968   7.889  1.2481  0.0270  0.4235
12738SOL     OW39664   7.121   6.729   8.788  0.3984 -0.0313  0.3709
12738SOL    HW139665   7.093   6.815   8.756 -1.9666 -1.1612 -0.8489
12738SOL    HW239666   7.133   6.742   8.882 -0.5702  1.5000  0.3286
12739SOL     OW39667   1.224   8.517   1.642 -0.1051 -0.0473 -0.0157
12739SOL    HW139668   1.227   8.538   1.548 -0.9453  2.5447  0.4593
12739SOL    HW239669   1.298   8.565   1.679 -0.6716  0.1744  0.8446
12740SOL     OW39670   6.638   3.545   1.119 -0.3257  0.2732 -0.5375
12740SOL    HW139671   6.553   3.504   1.133 -0.3270 -0.2730 -2.0147
12740SOL    HW239672   6.670   3.507   1.037  2.0692 -0.7535  0.7592
12741SOL     OW39673   2.354   7.884   8.112  0.2135 -0.3059  0.3936
12741SOL    HW139674   2.435   7.854   8.152  1.4488  1.1272 -0.9049
12741SOL    HW239675   2.359   7.980   8.117 -0.9641 -0.1763 -0.5363
12742SOL     OW39676   2.042   6.786   5.321 -0.0978 -0.0208  0.1064
12742SOL    HW139677   2.086   6.703   5.299 -1.3418 -0.4528 -0.8698
12742SOL    HW239678   1.952   6.761   5.339  0.2769  0.6389  3.5932
12743SOL     OW39679   6.668   6.452   0.860 -0.5897  0.3642 -0.4971
12743SOL    HW139680   6.724   6.528   0.878 -1.0534  0.7748 -0.7577
12743SOL    HW239681   6.724   6.377   0.877 -0.6700  0.7179  1.6434
12744SOL     OW39682   5.111   2.706   4.937 -0.0988 -0.1966  0.0924
12744SOL    HW139683   5.189   2.679   4.986 -1.4660 -2.5123  1.2084
12744SOL    HW239684   5.094   2.634   4.876 -1.9586 -0.3344  0.6848
12745SOL     OW39685   3.638   5.247   8.447 -1.1508  0.3217  0.3540
12745SOL    HW139686   3.711   5.281   8.396 -1.9228  0.7710 -0.4923
12745SOL    HW239687   3.651   5.152   8.447 -0.2408  0.4358  0.7537
12746SOL     OW39688   7.537   7.587   7.141 -0.1637 -0.1195  0.5252
12746SOL    HW139689   7.511   7.566   7.051 -2.9730  1.6508  0.8119
12746SOL    HW239690   7.492   7.523   7.195 -1.7961  1.2461  0.8602
12747SOL     OW39691   7.775   4.407   4.893  0.0977 -0.1198  0.2751
12747SOL    HW139692   7.830   4.447   4.825 -0.7126 -0.0940 -0.3884
12747SOL    HW239693   7.703   4.367   4.844  1.2440 -3.1005  0.8091
12748SOL     OW39694   7.768   5.111   4.878 -0.2461 -0.3865  0.5821
12748SOL    HW139695   7.737   5.192   4.837  1.9116  0.4304  0.4581
12748SOL    HW239696   7.718   5.106   4.960 -1.6266  0.1451 -0.1923
12749SOL     OW39697   1.087   9.198   8.717 -0.5140 -0.3176 -0.1854
12749SOL    HW139698   1.007   9.176   8.766 -0.6122 -2.2812 -1.1125
12749SOL    HW239699   1.110   9.286   8.747 -0.6778 -1.2905  3.2021
12750SOL     OW39700   0.181   4.233   1.714  1.0610 -0.2557  0.2450
12750SOL    HW139701   0.206   4.306   1.656 -0.2083  2.4076  2.7996
12750SOL    HW239702   0.103   4.196   1.673  1.1453  0.4789 -0.6202
12751SOL     OW39703   5.085   1.106   6.420  0.4861 -0.0494  0.3166
12751SOL    HW139704   5.179   1.115   6.405  0.2292  2.0775 -0.3589
12751SOL    HW239705   5.078   1.040   6.489  2.3805 -1.1778 -0.4748
12752SOL     OW39706   5.600   8.105   3.085 -0.0146  0.0879 -0.0614
12752SOL    HW139707   5.661   8.054   3.138 -0.7495 -0.4939  0.2404
12752SOL    HW239708   5.562   8.168   3.145  0.6689  0.8133 -0.3682
12753SOL     OW39709   2.074   3.590   5.163 -0.6493 -0.1616 -0.1753
12753SOL    HW139710   2.048   3.674   5.202  1.1413  0.7093 -0.7182
12753SOL    HW239711   2.005   3.570   5.100 -0.3050  1.8179 -1.2773
12754SOL     OW39712   3.273   6.954   7.262 -0.0301  0.4433 -0.1074
12754SOL    HW139713   3.229   6.977   7.344 -0.2040  1.7745 -0.5488
12754SOL    HW239714   3.206   6.913   7.209  0.1344 -0.6162  0.4785
12755SOL     OW39715   5.562   2.144   2.155  0.1378 -0.2375  0.4924
12755SOL    HW139716   5.492   2.127   2.091 -1.5480  0.2648  2.0950
12755SOL    HW239717   5.618   2.210   2.113 -1.1093  0.3302 -0.3546
12756SOL     OW39718   1.911   5.902   6.494  0.5326  0.6721 -0.6265
12756SOL    HW139719   1.878   5.822   6.455 -0.6008  1.5608 -1.5539
12756SOL    HW239720   2.006   5.894   6.488  0.4420 -0.6700 -0.5173
12757SOL     OW39721   4.626   3.017   7.541 -0.4547  0.0156 -0.5737
12757SOL    HW139722   4.548   3.003   7.487 -0.3415 -3.8612 -0.0359
12757SOL    HW239723   4.700   3.007   7.480 -0.3755 -2.4569 -0.1976
12758SOL     OW39724   8.780   0.871   1.560 -0.2454 -0.0019  0.4207
12758SOL    HW139725   8.687   0.884   1.581 -0.4468 -0.1960 -0.3220
12758SOL    HW239726   8.811   0.958   1.534 -0.5993 -0.2046 -0.7432
12759SOL     OW39727   8.331   4.022   2.116 -0.5899 -0.1301 -0.2028
12759SOL    HW139728   8.327   4.115   2.095 -0.5517 -0.3250 -1.1181
12759SOL    HW239729   8.367   3.981   2.038  0.0222 -0.8424  0.4344
12760SOL     OW39730   1.866   4.545   3.629  0.1545  0.2521 -0.0034
12760SOL    HW139731   1.823   4.476   3.578  0.4904  0.0442 -0.0138
12760SOL    HW239732   1.897   4.608   3.565 -0.8038  0.7958  0.0566
12761SOL     OW39733   5.146   1.813   3.728  0.4997  0.1270  0.2811
12761SOL    HW139734   5.237   1.786   3.745  0.3153 -0.6935  0.0085
12761SOL    HW239735   5.152   1.906   3.706  1.2193  0.1983  0.7380
12762SOL     OW39736   3.176   4.124   3.489  0.1197 -0.7991 -1.0063
12762SOL    HW139737   3.171   4.079   3.573 -0.7211 -0.1507 -0.7035
12762SOL    HW239738   3.270   4.139   3.476  0.3799 -2.2455 -0.9197
12763SOL     OW39739   7.244   4.769   3.688  0.5527 -0.0522  0.1278
12763SOL    HW139740   7.328   4.797   3.653  0.4114 -0.4399 -0.5409
12763SOL    HW239741   7.263   4.744   3.779  1.5900 -1.9965 -0.5611
12764SOL     OW39742   4.134   8.799   6.321 -0.7367  0.4716 -0.5245
12764SOL    HW139743   4.198   8.748   6.270 -0.1252  1.3474 -0.6528
12764SOL    HW239744   4.095   8.859   6.257 -0.3488  1.2132 -0.0748
12765SOL     OW39745   4.351   1.680   0.262  0.4062 -0.2903 -0.3357
12765SOL    HW139746   4.435   1.684   0.309  0.4462 -0.6670 -0.3695
12765SOL    HW239747   4.375   1.650   0.174  0.2238 -0.4958 -0.3149
12766SOL     OW39748   4.856   5.779   2.800  0.2081  0.0467  0.4336
12766SOL    HW139749   4.788   5.814   2.744  1.3231 -0.3300 -1.2299
12766SOL    HW239750   4.820   5.697   2.834  0.1322 -0.5938 -1.1262
12767SOL     OW39751   3.856   3.602   3.084 -0.2299 -0.1236 -0.3875
12767SOL    HW139752   3.768   3.627   3.111  0.2938  1.7103 -0.2321
12767SOL    HW239753   3.898   3.571   3.164 -0.4211  0.0010 -0.2375
12768SOL     OW39754   2.211   5.215   7.962 -0.7920  0.1774 -0.0028
12768SOL    HW139755   2.133   5.262   7.934 -0.6484  0.3288 -0.1485
12768SOL    HW239756   2.203   5.128   7.922 -0.1565  0.6739 -1.2593
12769SOL     OW39757   2.368   1.353   2.701 -0.2941 -0.7165  0.2811
12769SOL    HW139758   2.412   1.437   2.686  0.8795 -1.2336  0.6829
12769SOL    HW239759   2.318   1.366   2.782  1.2964 -0.9032  1.3439
12770SOL     OW39760   8.478   8.302   8.329  0.1831  0.4358 -0.2136
12770SOL    HW139761   8.505   8.288   8.238  0.2446  0.4795 -0.2025
12770SOL    HW239762   8.476   8.397   8.338 -0.9994  0.4587 -0.5286
12771SOL     OW39763   7.478   0.684   7.714 -0.5056  0.0684 -0.0464
12771SOL    HW139764   7.474   0.633   7.632 -1.0095  0.7300 -0.4386
12771SOL    HW239765   7.435   0.767   7.693 -1.7094 -0.1935  1.2222
12772SOL     OW39766   5.712   3.389   7.312  0.0779 -0.2991 -0.5563
12772SOL    HW139767   5.688   3.351   7.397 -1.3131  1.3714 -0.1460
12772SOL    HW239768   5.806   3.409   7.321 -0.2019  0.5360  0.8857
12773SOL     OW39769   0.594   1.807   5.912 -0.3403 -0.2575  0.6641
12773SOL    HW139770   0.553   1.855   5.840  1.3703 -0.7872 -0.7179
12773SOL    HW239771   0.528   1.807   5.981 -1.7988  0.8125 -0.6626
12774SOL     OW39772   8.062   8.198   1.822 -0.4173 -0.2118 -0.2929
12774SOL    HW139773   8.064   8.136   1.749  1.4511 -2.0381  1.2394
12774SOL    HW239774   7.989   8.169   1.876  1.0330 -1.7691  0.9212
12775SOL     OW39775   8.973   3.786   5.932 -0.4891 -0.4892  0.2545
12775SOL    HW139776   8.957   3.833   5.850  1.8568 -1.7267 -1.0203
12775SOL    HW239777   8.997   3.855   5.994  0.6001  0.2633 -0.9401
12776SOL     OW39778   5.780   8.088   1.183 -0.1483 -0.3121 -0.7289
12776SOL    HW139779   5.755   8.083   1.275  2.0471 -0.5912 -0.0850
12776SOL    HW239780   5.738   8.168   1.151 -0.6566 -0.0207  0.6085
12777SOL     OW39781   1.843   6.320   2.357 -0.4975 -0.1777  0.0152
12777SOL    HW139782   1.882   6.293   2.274 -0.8016 -1.0426  0.1429
12777SOL    HW239783   1.907   6.295   2.423 -1.4428 -2.1260  0.2781
12778SOL     OW39784   0.571   7.149   2.452  0.4545 -0.6602  0.1032
12778SOL    HW139785   0.580   7.118   2.542  2.2941  0.9175  0.5322
12778SOL    HW239786   0.479   7.173   2.443  0.5051  0.4799  2.0704
12779SOL     OW39787   6.176   6.283   5.261 -0.0031 -0.8091 -0.3910
12779SOL    HW139788   6.184   6.197   5.302 -0.3577 -0.2403  0.9475
12779SOL    HW239789   6.152   6.341   5.333  3.2417  1.0022 -0.6117
12780SOL     OW39790   6.835   3.821   8.223  0.3525 -0.7578  0.0254
12780SOL    HW139791   6.789   3.766   8.159 -1.7563  0.1445  0.6568
12780SOL    HW239792   6.908   3.859   8.175 -0.3881 -1.1509 -1.4712
12781SOL     OW39793   0.148   4.964   6.836  0.5814 -0.0599 -0.7844
12781SOL    HW139794   0.128   5.041   6.888  1.7743  0.4659 -1.0605
12781SOL    HW239795   0.093   4.895   6.873 -1.4093  1.1692 -1.3133
12782SOL     OW39796   7.607   7.434   8.064  0.5618 -0.2570 -0.6133
12782SOL    HW139797   7.519   7.471   8.056  0.6476  0.1835  0.3622
12782SOL    HW239798   7.621   7.387   7.981 -0.7081 -0.5866 -0.6665
12783SOL     OW39799   1.573   3.074   7.855  0.7791  0.6125 -0.2544
12783SOL    HW139800   1.610   3.016   7.788  0.6057  1.8096 -1.4083
12783SOL    HW239801   1.516   3.017   7.907 -0.6126  0.0245 -2.3095
12784SOL     OW39802   1.003   8.323   2.266  0.3169 -0.7369 -0.3103
12784SOL    HW139803   1.091   8.362   2.262  0.6518 -1.0909  2.3297
12784SOL    HW239804   1.014   8.234   2.232  0.8370 -0.6059 -0.4965
12785SOL     OW39805   6.860   6.755   1.439  0.7260  0.3851  0.5588
12785SOL    HW139806   6.836   6.686   1.376  2.4079 -1.5634  1.9286
12785SOL    HW239807   6.936   6.797   1.401  0.0716  1.1069  0.0166
12786SOL     OW39808   7.249   3.726   4.077 -0.1796 -0.3556  0.1860
12786SOL    HW139809   7.225   3.666   4.148 -0.6713 -0.0301  0.3017
12786SOL    HW239810   7.250   3.671   3.999  0.2338 -0.6892  0.4210
12787SOL     OW39811   2.934   4.646   3.190  0.3685 -0.0415  0.3683
12787SOL    HW139812   2.919   4.738   3.212  0.9438 -0.0499  0.8311
12787SOL    HW239813   2.855   4.619   3.144  0.1134  0.6319  0.3957
12788SOL     OW39814   4.211   5.860   0.850  0.2271  0.8339  0.1492
12788SOL    HW139815   4.285   5.866   0.790 -0.5839 -0.1106 -0.9742
12788SOL    HW239816   4.136   5.892   0.799 -0.7951 -1.5363  0.0232
12789SOL     OW39817   1.529   4.146   8.717 -0.3339  0.0541 -0.1079
12789SOL    HW139818   1.605   4.101   8.681 -0.3986  0.4660 -0.7583
12789SOL    HW239819   1.458   4.127   8.656 -0.9257 -0.8605  0.8275
12790SOL     OW39820   9.243   4.410   3.521  0.0578 -0.1771 -0.6352
12790SOL    HW139821   9.298   4.485   3.545  0.1306 -0.3499 -0.2415
12790SOL    HW239822   9.257   4.347   3.592 -1.8387  0.3886  0.2918
12791SOL     OW39823   8.867   6.906   0.620  0.2471 -0.0890  0.5125
12791SOL    HW139824   8.782   6.888   0.659 -0.5961 -1.4281 -1.7287
12791SOL    HW239825   8.931   6.884   0.688 -1.1579 -0.0914  1.8712
12792SOL     OW39826   5.662   0.392   8.501  0.5817 -0.0650 -0.0525
12792SOL    HW139827   5.602   0.332   8.545  1.1940 -0.0715  0.8134
12792SOL    HW239828   5.746   0.379   8.547  0.7378  1.4172  0.1232
12793SOL     OW39829   7.811   0.827   7.718  0.0895 -0.1526  0.2144
12793SOL    HW139830   7.774   0.787   7.796  0.3478 -0.3867  0.2208
12793SOL    HW239831   7.739   0.876   7.678  0.1656  0.6571  1.0481
12794SOL     OW39832   0.291   6.730   8.260  0.7472  0.7960 -0.2630
12794SOL    HW139833   0.345   6.807   8.240  1.8258  0.3618  0.9044
12794SOL    HW239834   0.246   6.711   8.177  1.0059  2.2396 -0.7658
12795SOL     OW39835   6.933   5.202   6.807  0.1617 -0.5666 -0.0727
12795SOL    HW139836   6.974   5.119   6.783 -0.9563 -1.5170  1.1397
12795SOL    HW239837   6.840   5.189   6.789 -0.2160 -0.0862  1.4324
12796SOL     OW39838   3.719   8.033   3.572  0.0009  0.0673 -0.1790
12796SOL    HW139839   3.686   8.017   3.483  0.4176 -1.2992 -0.1124
12796SOL    HW239840   3.694   7.955   3.621 -1.1359  1.2403  1.2020
12797SOL     OW39841   8.522   7.257   0.033  0.3075  0.4231 -0.1381
12797SOL    HW139842   8.524   7.189   0.100  1.2582  0.3781 -0.2039
12797SOL    HW239843   8.462   7.223  -0.033 -0.9104  0.6177  0.8258
12798SOL     OW39844   8.160   1.813   4.766  0.3011 -0.5639 -0.2290
12798SOL    HW139845   8.216   1.736   4.752 -0.0008 -0.7618 -0.3626
12798SOL    HW239846   8.202   1.883   4.716  0.4855 -0.6842 -0.2443
12799SOL     OW39847   4.808   5.814   4.640  0.2751  0.4108 -0.1086
12799SOL    HW139848   4.816   5.893   4.694 -0.5074 -0.2060  0.9583
12799SOL    HW239849   4.836   5.743   4.697 -0.4563 -0.2528 -0.5448
12800SOL     OW39850   2.737   4.707   6.127 -0.1646 -0.4995  0.5884
12800SOL    HW139851   2.827   4.720   6.156 -0.5377 -0.5945  1.8704
12800SOL    HW239852   2.738   4.622   6.083  0.6571  0.1753 -0.7641
12801SOL     OW39853   1.155   5.285   8.937  0.7275  0.3809  0.3793
12801SOL    HW139854   1.087   5.308   8.873  1.2689  0.2092 -0.2728
12801SOL    HW239855   1.181   5.369   8.976 -0.8068  0.3072  1.6315
12802SOL     OW39856   6.292   6.133   1.644  0.6550  0.3874 -0.6620
12802SOL    HW139857   6.369   6.155   1.592  0.2206  1.1216 -1.0032
12802SOL    HW239858   6.272   6.212   1.693 -0.1092  0.3313 -0.8650
12803SOL     OW39859   8.916   6.933   6.553 -0.0062 -0.1962  0.5261
12803SOL    HW139860   8.926   6.945   6.647 -0.8074  0.5320  0.5395
12803SOL    HW239861   8.970   7.001   6.514 -0.7047  0.3586  0.4995
12804SOL     OW39862   3.189   4.179   6.021 -0.4821 -0.0955 -0.8957
12804SOL    HW139863   3.122   4.168   6.089  0.6545 -0.5336  0.1934
12804SOL    HW239864   3.143   4.225   5.950 -1.6042  0.7634  0.3179
12805SOL     OW39865   0.396   5.561   5.638 -0.1960 -0.0178 -0.7194
12805SOL    HW139866   0.340   5.509   5.581  1.1100 -1.9868 -0.2817
12805SOL    HW239867   0.347   5.567   5.721 -1.4677  1.6813 -1.5233
12806SOL     OW39868   5.051   5.439   2.021 -0.4119  0.2231 -0.3133
12806SOL    HW139869   5.043   5.510   2.084  0.7952  0.9566 -0.9321
12806SOL    HW239870   5.129   5.390   2.049 -1.1834 -0.8257  0.0601
12807SOL     OW39871   8.382   7.535   7.482  0.1860 -0.0383 -0.3736
12807SOL    HW139872   8.318   7.465   7.497 -0.4014  0.4784 -0.4477
12807SOL    HW239873   8.458   7.490   7.444  0.8605 -1.0705  1.9849
12808SOL     OW39874   4.284   0.273   1.607  0.2787  0.2114  0.1632
12808SOL    HW139875   4.245   0.233   1.685  0.4896  0.7545  0.5588
12808SOL    HW239876   4.211   0.318   1.564  0.3083  0.5610  0.4725
12809SOL     OW39877   1.651   5.550   4.978 -0.0287  0.1199 -0.8167
12809SOL    HW139878   1.560   5.526   4.995 -0.0370  0.0273 -0.9862
12809SOL    HW239879   1.678   5.491   4.907 -0.6848  1.9337 -2.6789
12810SOL     OW39880   6.348   8.507   7.713 -0.2570 -0.1468 -0.1935
12810SOL    HW139881   6.313   8.480   7.628  1.2140 -0.5536 -0.7059
12810SOL    HW239882   6.442   8.493   7.705 -0.1854 -1.1844  1.8589
12811SOL     OW39883   3.067   5.087   0.479  0.2715  0.4230 -0.0530
12811SOL    HW139884   2.977   5.109   0.457  0.4853  2.4573  0.8992
12811SOL    HW239885   3.060   5.016   0.543 -0.5348 -1.0723 -1.7261
12812SOL     OW39886   6.891   0.458   6.983 -0.5131 -0.1953  0.2493
12812SOL    HW139887   6.915   0.374   7.023 -0.0592 -0.1503  0.0758
12812SOL    HW239888   6.822   0.492   7.040 -1.6105 -1.2749 -0.4011
12813SOL     OW39889   0.268   7.931   0.544 -0.1032 -0.6908 -0.4739
12813SOL    HW139890   0.263   8.022   0.573  1.8498 -0.6891  0.0149
12813SOL    HW239891   0.199   7.922   0.479 -0.0039  1.2750 -0.8996
12814SOL     OW39892   4.168   3.393   6.516 -0.5675  0.4370 -0.5372
12814SOL    HW139893   4.131   3.428   6.435  1.5076  0.9591 -1.3471
12814SOL    HW239894   4.178   3.299   6.500 -0.4192  0.4961 -0.8006
12815SOL     OW39895   6.752   0.842   6.520 -0.2169  0.1051 -0.1164
12815SOL    HW139896   6.674   0.841   6.463  1.1641 -0.5376 -2.1021
12815SOL    HW239897   6.754   0.930   6.557 -1.9588  0.0921  0.0921
12816SOL     OW39898   8.239   1.212   6.641 -0.3938 -0.7251 -0.4869
12816SOL    HW139899   8.285   1.192   6.723 -2.1955 -1.0552  0.5235
12816SOL    HW239900   8.296   1.272   6.594  1.3194 -1.6154  0.3767
12817SOL     OW39901   6.066   1.902   4.197  0.3771 -0.1565  0.3914
12817SOL    HW139902   6.151   1.877   4.232  0.6157  0.0345 -0.0369
12817SOL    HW239903   6.013   1.922   4.274  1.2400  1.3883  0.6104
12818SOL     OW39904   8.112   4.421   1.219 -0.2634 -0.2694  0.2212
12818SOL    HW139905   8.076   4.416   1.131 -1.6738 -1.6849  0.8155
12818SOL    HW239906   8.083   4.506   1.252 -1.0868 -0.4035 -0.1402
12819SOL     OW39907   0.688   7.859   6.755 -0.8776 -0.3206 -0.3469
12819SOL    HW139908   0.652   7.948   6.756 -1.5396 -0.5570 -1.3782
12819SOL    HW239909   0.731   7.849   6.840 -0.3831  1.1480 -0.3913
12820SOL     OW39910   0.084   1.071   6.716 -0.7926 -0.3055  0.4429
12820SOL    HW139911   0.123   1.002   6.661  1.6103  1.6589 -0.5380
12820SOL    HW239912   0.130   1.064   6.799 -0.3259  0.2441  0.2414
12821SOL     OW39913   6.432   5.366   8.450 -0.1581  0.1617  0.1658
12821SOL    HW139914   6.424   5.431   8.380  1.2089  0.2979  0.1116
12821SOL    HW239915   6.344   5.328   8.458 -0.8539  1.6543 -0.1439
12822SOL     OW39916   6.631   0.102   8.442 -0.0236  0.4811 -0.3460
12822SOL    HW139917   6.597   0.118   8.530 -0.8305  0.1727 -0.5853
12822SOL    HW239918   6.692   0.174   8.426 -0.4938  1.0023  0.1513
12823SOL     OW39919   5.901   8.834   8.402 -0.0665  0.2540 -0.3737
12823SOL    HW139920   5.903   8.757   8.458 -0.7961 -0.0143 -0.7026
12823SOL    HW239921   5.835   8.891   8.441  1.5676  1.4684  0.7970
12824SOL     OW39922   6.167   4.158   7.562 -0.4788 -1.0428  0.3940
12824SOL    HW139923   6.243   4.176   7.507 -0.4229  0.4249  0.9066
12824SOL    HW239924   6.147   4.242   7.604 -1.1248 -1.8772  1.8510
12825SOL     OW39925   3.540   2.163   2.438  0.1367 -0.0805 -0.3008
12825SOL    HW139926   3.461   2.208   2.468 -0.3515 -1.9381  1.3664
12825SOL    HW239927   3.612   2.222   2.462 -0.6143  0.9587 -0.5187
12826SOL     OW39928   5.522   8.191   1.811  0.4494 -0.4226 -0.5244
12826SOL    HW139929   5.561   8.262   1.761 -0.1446 -0.4399 -1.0194
12826SOL    HW239930   5.488   8.233   1.890  1.2770 -0.3781 -0.1757
12827SOL     OW39931   3.771   4.642   8.396 -0.3368 -0.1989 -0.4535
12827SOL    HW139932   3.700   4.642   8.461  0.6830  0.5243  0.7147
12827SOL    HW239933   3.726   4.655   8.312 -1.4413  3.6829  0.5319
12828SOL     OW39934   5.315   2.295   9.016  0.2472 -0.2660 -0.0074
12828SOL    HW139935   5.268   2.350   8.954 -0.8687 -1.0501  0.0900
12828SOL    HW239936   5.375   2.354   9.062 -0.2639  0.6731 -0.5306
12829SOL     OW39937   9.128   8.200   5.904  0.5642  0.5820  0.1761
12829SOL    HW139938   9.078   8.272   5.943 -0.0265 -0.1897  0.8716
12829SOL    HW239939   9.097   8.196   5.814  1.3982  1.8911 -0.2035
12830SOL     OW39940   0.062   8.624   8.777  0.3416 -0.1758 -0.3515
12830SOL    HW139941   0.040   8.649   8.688  1.3232  1.4567 -0.1758
12830SOL    HW239942   0.011   8.683   8.833  1.0888  0.0321  0.1278
12831SOL     OW39943   8.980   0.063   0.695  0.0647  0.0351 -0.2503
12831SOL    HW139944   9.026   0.120   0.756  0.1220 -0.8028  0.5200
12831SOL    HW239945   8.968   0.116   0.616 -0.7643  1.4353  0.7687
12832SOL     OW39946   8.882   1.592   5.090  0.0964 -0.7461  0.3574
12832SOL    HW139947   8.967   1.550   5.107 -0.0353 -1.4978 -0.7439
12832SOL    HW239948   8.850   1.550   5.010 -1.9622 -1.4679  1.4945
12833SOL     OW39949   2.789   7.944   4.748  0.0326 -0.4021 -0.0216
12833SOL    HW139950   2.823   7.902   4.669 -1.0414  0.0067 -0.7259
12833SOL    HW239951   2.702   7.976   4.723 -0.2270 -0.0397  1.2545
12834SOL     OW39952   1.009   2.254   4.838 -0.3583 -0.0656  0.4657
12834SOL    HW139953   1.056   2.308   4.773  0.9386  0.3487  1.6901
12834SOL    HW239954   1.025   2.299   4.921  0.7745 -2.3235  1.5492
12835SOL     OW39955   3.113   2.293   0.676 -0.7580  0.3606 -0.4283
12835SOL    HW139956   3.115   2.370   0.619  0.5586  1.2663  0.8010
12835SOL    HW239957   3.077   2.325   0.759 -1.4283 -0.6552 -0.3027
12836SOL     OW39958   0.633   1.575   2.565  0.0083 -0.2848  0.0039
12836SOL    HW139959   0.640   1.662   2.525 -0.8174  0.4070  1.2999
12836SOL    HW239960   0.578   1.525   2.505  1.7762 -0.4444 -1.5612
12837SOL     OW39961   6.964   6.537   1.054 -0.0023 -0.4494  0.1358
12837SOL    HW139962   7.054   6.553   1.082 -0.1453 -0.0876  0.3963
12837SOL    HW239963   6.944   6.610   0.995 -0.4488 -0.0039  0.8345
12838SOL     OW39964   5.697   5.819   5.038 -0.0230  0.0994 -0.1948
12838SOL    HW139965   5.622   5.771   5.002 -0.2911 -0.1894  0.7198
12838SOL    HW239966   5.705   5.787   5.127 -0.7669  2.3630  0.7511
12839SOL     OW39967   1.296   2.425   4.993  0.1566 -0.0563  0.0642
12839SOL    HW139968   1.225   2.489   4.990 -1.8273 -2.1852 -1.4860
12839SOL    HW239969   1.349   2.444   4.916  0.1812  0.3558  0.1804
12840SOL     OW39970   0.414   8.620   4.022  0.1120  0.4618  0.1686
12840SOL    HW139971   0.454   8.618   3.935 -0.0297  0.6505  0.0970
12840SOL    HW239972   0.413   8.529   4.051 -0.3087  0.3269 -0.2446
12841SOL     OW39973   3.125   2.520   5.334 -0.2022  0.1803 -0.4336
12841SOL    HW139974   3.194   2.539   5.397 -0.3536  0.7254 -0.4284
12841SOL    HW239975   3.081   2.442   5.368  0.5975 -0.3476 -0.5942
12842SOL     OW39976   8.642   1.781   3.409  0.1541 -0.0648  0.7082
12842SOL    HW139977   8.703   1.845   3.372 -0.6077 -0.0739 -0.6353
12842SOL    HW239978   8.571   1.833   3.446 -1.0543 -0.0763 -1.4220
12843SOL     OW39979   8.243   3.876   6.840  0.0071  0.1333  1.2410
12843SOL    HW139980   8.158   3.920   6.834 -0.4373 -0.9313 -1.5657
12843SOL    HW239981   8.307   3.944   6.819 -0.5702 -0.0755 -1.5310
12844SOL     OW39982   3.493   4.623   5.272 -0.3279 -0.2079 -0.3629
12844SOL    HW139983   3.405   4.591   5.255 -0.3981 -0.6721  0.7823
12844SOL    HW239984   3.541   4.606   5.191 -1.3113  0.1799 -1.0507
12845SOL     OW39985   6.020   4.255   4.684  0.2193  0.2267  0.7183
12845SOL    HW139986   5.951   4.199   4.720  0.5105 -0.3519  0.4009
12845SOL    HW239987   6.006   4.340   4.724  1.2670 -0.6777  3.1843
12846SOL     OW39988   0.295   7.321   5.171  0.2916  0.3340 -0.4101
12846SOL    HW139989   0.278   7.227   5.157 -0.1845  0.1435  1.1746
12846SOL    HW239990   0.380   7.323   5.216  0.3868  0.6675 -0.6084
12847SOL     OW39991   3.957   0.916   0.350  0.1382 -0.6351 -0.6052
12847SOL    HW139992   3.972   0.821   0.356  0.1503 -0.6390 -0.6993
12847SOL    HW239993   3.881   0.932   0.406  0.4461 -0.6281 -0.1855
12848SOL     OW39994   6.497   7.733   5.342 -0.2161 -0.1611  0.3104
12848SOL    HW139995   6.577   7.693   5.307  0.5450 -0.5944  2.3862
12848SOL    HW239996   6.427   7.673   5.318  0.4124 -0.9191  0.3235
12849SOL     OW39997   8.290   8.030   5.041 -0.2740  0.1481 -0.0008
12849SOL    HW139998   8.270   8.043   5.134 -0.3656  0.0535 -0.0081
12849SOL    HW239999   8.206   8.035   4.996 -0.2735 -0.1583 -0.0402
12850SOL     OW40000   9.183   5.446   6.174 -0.6763 -0.0174 -0.5524
12850SOL    HW140001   9.159   5.429   6.266  0.4316 -1.1586 -0.4488
12850SOL    HW240002   9.165   5.539   6.162 -2.3994 -0.1917  0.3320
12851SOL     OW40003   3.216   2.311   7.579  0.5062 -0.0346 -0.4207
12851SOL    HW140004   3.291   2.370   7.584  1.8674 -1.6839 -0.6008
12851SOL    HW240005   3.177   2.315   7.667 -0.2026  2.0205 -0.7694
12852SOL     OW40006   9.102   5.861   3.643  0.2048  0.0148 -0.7168
12852SOL    HW140007   9.049   5.921   3.590 -0.5648  1.1672  1.2701
12852SOL    HW240008   9.080   5.883   3.733  1.5256 -1.8453  0.1089
12853SOL     OW40009   3.795   4.605   8.972 -0.6508  0.0907  0.1532
12853SOL    HW140010   3.757   4.666   9.035  0.1422  1.0868 -0.3013
12853SOL    HW240011   3.820   4.528   9.024 -0.9320  0.4755  0.8695
12854SOL     OW40012   5.930   6.396   8.609  0.0716  0.3945  0.1729
12854SOL    HW140013   5.946   6.452   8.685 -0.9352  0.3331  0.4437
12854SOL    HW240014   5.973   6.441   8.536  0.0800  1.0333  0.5664
12855SOL     OW40015   9.054   3.017   3.627  1.0152  0.0253 -0.0474
12855SOL    HW140016   9.027   3.105   3.651  2.4924  0.0263  1.7955
12855SOL    HW240017   9.150   3.020   3.628  1.1056 -1.8371  1.0833
12856SOL     OW40018   2.488   3.582   0.462 -0.0935  0.0771 -0.2327
12856SOL    HW140019   2.549   3.509   0.464 -0.2327 -0.0313  0.3444
12856SOL    HW240020   2.403   3.542   0.441 -0.5588 -0.2456  2.0005
12857SOL     OW40021   7.193   5.493   3.587 -0.4257  0.1710  0.0730
12857SOL    HW140022   7.230   5.562   3.532 -0.2588 -0.4137 -0.5659
12857SOL    HW240023   7.102   5.488   3.560 -0.3519 -0.0931 -0.1322
12858SOL     OW40024   7.213   6.617   1.110  0.1618  0.0416  0.1273
12858SOL    HW140025   7.246   6.559   1.041  0.1197 -1.0338  0.9995
12858SOL    HW240026   7.267   6.696   1.102  1.5629 -0.8795  0.1943
12859SOL     OW40027   8.692   8.877   4.041  0.5183 -0.2215  0.6530
12859SOL    HW140028   8.704   8.822   4.118 -0.5139  1.4838  2.1057
12859SOL    HW240029   8.774   8.925   4.033  1.3781 -1.7813 -0.5484
12860SOL     OW40030   5.780   6.153   8.295 -0.1872  0.4984  0.1274
12860SOL    HW140031   5.826   6.092   8.237  0.2750  0.8325  0.1351
12860SOL    HW240032   5.764   6.230   8.241  2.2786  1.7442  1.0132
12861SOL     OW40033   3.273   8.665   9.048  0.3305  0.1515  0.0963
12861SOL    HW140034   3.311   8.742   9.007 -1.4512  0.3139 -1.3989
12861SOL    HW240035   3.248   8.609   8.975 -1.6076 -0.2338  0.9858
12862SOL     OW40036   0.250   5.497   0.692 -0.2259 -0.0837 -0.6276
12862SOL    HW140037   0.327   5.480   0.747  0.0243  1.1481 -0.5806
12862SOL    HW240038   0.181   5.442   0.731 -0.4167  1.6805  1.7664
12863SOL     OW40039   2.625   5.642   4.262  0.5492 -0.0682 -0.5102
12863SOL    HW140040   2.616   5.697   4.340 -1.0942 -1.2276  0.1968
12863SOL    HW240041   2.700   5.678   4.215 -0.1216  2.4315  0.1626
12864SOL     OW40042   1.119   4.319   8.395  0.1407 -0.0596  0.2265
12864SOL    HW140043   1.204   4.351   8.426 -0.4597  1.4830  0.3605
12864SOL    HW240044   1.061   4.326   8.471 -0.2711 -0.4807 -0.0433
12865SOL     OW40045   7.456   0.344   7.495  0.2836  0.2294 -0.6194
12865SOL    HW140046   7.458   0.431   7.456  0.7156  1.0130  1.0792
12865SOL    HW240047   7.367   0.335   7.529  1.0420  1.3399  1.9400
12866SOL     OW40048   5.096   8.112   1.705 -0.3501 -0.5056  0.0056
12866SOL    HW140049   5.185   8.088   1.731  0.0619 -0.0317 -0.9230
12866SOL    HW240050   5.086   8.075   1.618 -0.3199  1.1621 -0.7340
12867SOL     OW40051   4.118   1.899   9.216  0.0540  0.5170  0.2265
12867SOL    HW140052   4.129   1.974   9.157 -0.2956  1.5859  1.4626
12867SOL    HW240053   4.200   1.894   9.265 -0.0620  0.3246  0.4037
12868SOL     OW40054   2.466   3.109   8.439  0.2830  0.2358 -0.5492
12868SOL    HW140055   2.445   3.202   8.431  0.0611  0.4932  2.0959
12868SOL    HW240056   2.439   3.071   8.355 -1.8179  2.1454 -0.8334
12869SOL     OW40057   0.336   2.986   3.116 -0.0819  0.3136 -0.3749
12869SOL    HW140058   0.392   2.925   3.068 -0.6468 -0.0171 -0.6237
12869SOL    HW240059   0.272   2.930   3.161 -1.2029  0.7480 -1.3665
12870SOL     OW40060   2.101   7.872   1.955 -0.1733 -0.2583  0.1003
12870SOL    HW140061   2.190   7.884   1.924 -0.9219  0.4962 -1.8859
12870SOL    HW240062   2.059   7.957   1.944 -1.6551 -1.0613 -0.7874
12871SOL     OW40063   0.203   6.309   8.185  0.3810 -0.0372  0.5054
12871SOL    HW140064   0.163   6.323   8.099 -1.6061 -0.8136  1.2359
12871SOL    HW240065   0.295   6.331   8.173 -0.3528  2.4972 -1.1419
12872SOL     OW40066   1.168   0.389   1.535  0.1572  0.3682 -0.2853
12872SOL    HW140067   1.125   0.339   1.466  0.9048 -1.4070  0.4653
12872SOL    HW240068   1.216   0.458   1.489 -2.2573  1.5276 -1.2311
12873SOL     OW40069   7.901   8.254   6.593  0.0550  0.4419 -0.6945
12873SOL    HW140070   7.900   8.324   6.658 -1.2017 -1.7666  1.8676
12873SOL    HW240071   7.980   8.269   6.542 -1.0130  4.6244 -1.4574
12874SOL     OW40072   6.058   2.272   9.005 -0.5016  0.4492 -0.0307
12874SOL    HW140073   6.055   2.316   9.090  1.4415 -0.5820  0.6243
12874SOL    HW240074   6.102   2.189   9.022  1.4404  0.9020 -2.3253
12875SOL     OW40075   5.346   4.473   6.216  0.2538 -0.3727  0.3822
12875SOL    HW140076   5.428   4.519   6.198 -0.7886  1.4932  0.1589
12875SOL    HW240077   5.339   4.473   6.312  0.0324  0.3400  0.3644
12876SOL     OW40078   4.693   6.989   5.622  0.1561 -0.4375 -0.2662
12876SOL    HW140079   4.758   7.040   5.574  3.0032 -1.1893  2.4473
12876SOL    HW240080   4.742   6.947   5.693 -2.9186 -2.9603  0.6405
12877SOL     OW40081   5.716   7.437   3.234 -0.2964 -0.1212  0.4137
12877SOL    HW140082   5.751   7.382   3.164  1.9178  0.2489  1.1757
12877SOL    HW240083   5.730   7.387   3.314 -1.8918 -0.1051  0.7505
12878SOL     OW40084   1.144   8.711   2.088 -0.3197  0.1657 -0.0258
12878SOL    HW140085   1.124   8.663   2.008  2.3511 -0.2512 -0.5665
12878SOL    HW240086   1.106   8.798   2.074 -1.3643 -0.4294 -1.0014
12879SOL     OW40087   7.764   5.199   5.940 -0.1650  0.2249  0.0894
12879SOL    HW140088   7.742   5.273   5.883  0.8641  0.1412 -0.4502
12879SOL    HW240089   7.747   5.231   6.029 -3.4978 -0.2179 -0.2696
12880SOL     OW40090   7.771   3.556   1.394  0.0527  0.3726 -0.0074
12880SOL    HW140091   7.755   3.542   1.488  0.7003  1.0560  0.2113
12880SOL    HW240092   7.735   3.643   1.377  0.1168  0.3311 -0.3550
12881SOL     OW40093   6.927   7.171   8.506  0.1788 -0.2730  0.6152
12881SOL    HW140094   6.909   7.161   8.413  0.1078 -1.1961  0.7205
12881SOL    HW240095   6.958   7.261   8.515 -1.0281  0.2463 -0.1004
12882SOL     OW40096   0.314   5.101   2.106  0.5004  0.2409  0.0828
12882SOL    HW140097   0.407   5.094   2.128  0.6361 -0.2074 -0.6077
12882SOL    HW240098   0.272   5.130   2.187  0.8722 -2.1048  1.2041
12883SOL     OW40099   1.105   2.031   5.320 -0.3218  0.4417  0.6578
12883SOL    HW140100   1.058   1.973   5.381  0.0693  1.0520  1.5685
12883SOL    HW240101   1.132   1.974   5.249  0.3277 -0.5694  1.6842
12884SOL     OW40102   3.050   0.487   2.816 -0.2962  0.5179  0.1756
12884SOL    HW140103   2.987   0.556   2.836  1.7185  2.2004  1.1331
12884SOL    HW240104   3.124   0.505   2.873  0.1457 -2.8184  0.8460
12885SOL     OW40105   6.371   1.798   8.788  0.0844 -0.2054 -0.0934
12885SOL    HW140106   6.340   1.770   8.874  0.3134  1.0020  0.3866
12885SOL    HW240107   6.441   1.736   8.766  3.0686  1.9504  2.5295
12886SOL     OW40108   1.332   3.122   7.357  0.5275 -0.0831 -0.2391
12886SOL    HW140109   1.399   3.111   7.424 -0.4203 -0.8617  0.6075
12886SOL    HW240110   1.372   3.090   7.276  0.7771 -1.7318  0.4981
12887SOL     OW40111   2.847   5.035   7.187 -0.2980  0.0331 -0.1800
12887SOL    HW140112   2.921   5.053   7.130 -0.1427 -0.7999 -0.2641
12887SOL    HW240113   2.805   4.959   7.147 -0.6510 -0.0689  0.3779
12888SOL     OW40114   2.589   7.898   7.013  0.5505 -0.5874  0.0157
12888SOL    HW140115   2.549   7.842   7.079  0.1250  2.8608  3.0445
12888SOL    HW240116   2.545   7.983   7.024  2.4280  0.9196 -2.8666
12889SOL     OW40117   6.830   3.655   4.962  0.0204 -0.1525 -0.2545
12889SOL    HW140118   6.818   3.631   4.870 -1.1758 -2.0349  0.3523
12889SOL    HW240119   6.922   3.636   4.980 -0.5441 -3.2217 -0.1750
12890SOL     OW40120   6.557   2.657   4.973  0.1902 -0.0843  0.2361
12890SOL    HW140121   6.640   2.610   4.969  0.4410  0.4176 -1.4889
12890SOL    HW240122   6.490   2.587   4.973  0.5649 -0.5193 -1.9456
12891SOL     OW40123   0.338   8.369   6.910  0.7493 -0.3714 -0.4096
12891SOL    HW140124   0.277   8.386   6.838  0.3098 -0.9826 -0.1838
12891SOL    HW240125   0.299   8.298   6.959  1.6907 -0.8475 -0.3209
12892SOL     OW40126   3.312   0.975   9.089  0.2627  0.3805 -0.1312
12892SOL    HW140127   3.285   1.011   9.173  0.8994 -0.4644  0.4511
12892SOL    HW240128   3.361   0.896   9.111  0.3674  0.0964 -1.3010
12893SOL     OW40129   2.046   8.355   5.455  0.2891 -0.3139 -0.3171
12893SOL    HW140130   2.137   8.341   5.479  0.2509 -0.5506 -0.3054
12893SOL    HW240131   2.017   8.427   5.510  0.2361 -0.7720  0.2710
12894SOL     OW40132   5.462   3.917   5.802 -0.1850 -0.0486 -0.1160
12894SOL    HW140133   5.431   3.848   5.743 -1.2471 -1.3534  1.8772
12894SOL    HW240134   5.390   3.979   5.805 -1.3030 -1.3487  1.8296
12895SOL     OW40135   2.282   4.267   1.265  0.2055  0.3117  0.0898
12895SOL    HW140136   2.257   4.175   1.251  0.3948  0.0956  1.1025
12895SOL    HW240137   2.371   4.273   1.232  0.0459  0.2454 -0.3690
12896SOL     OW40138   0.948   6.231   5.089 -0.1621 -0.0558 -0.2608
12896SOL    HW140139   0.956   6.197   5.000 -0.4803  0.5882 -0.5450
12896SOL    HW240140   1.012   6.303   5.093 -0.9455  0.6667 -0.3556
12897SOL     OW40141   5.171   2.187   3.983 -0.4510 -0.0569  0.0202
12897SOL    HW140142   5.264   2.190   3.962 -0.4841 -1.1705 -0.3573
12897SOL    HW240143   5.127   2.186   3.898 -0.8088  0.5179  0.1960
12898SOL     OW40144   2.856   8.245   5.314  0.3012  0.6823 -0.6557
12898SOL    HW140145   2.925   8.198   5.267  0.9459  1.2554 -0.2948
12898SOL    HW240146   2.863   8.214   5.404 -1.2165 -0.7469 -0.9660
12899SOL     OW40147   5.336   8.622   7.346  0.0625 -0.2250 -0.6358
12899SOL    HW140148   5.359   8.531   7.367  1.7383  0.1074 -0.8921
12899SOL    HW240149   5.413   8.656   7.302 -0.5395  1.3425 -0.5259
12900SOL     OW40150   6.722   1.356   6.293 -0.0303 -0.1541 -0.7941
12900SOL    HW140151   6.781   1.289   6.258  0.3317 -0.2704  0.0129
12900SOL    HW240152   6.637   1.313   6.299  0.0480 -0.3269 -0.9208
12901SOL     OW40153   4.807   4.031   7.837  0.3478  0.3804 -0.1499
12901SOL    HW140154   4.845   3.953   7.877 -1.2733  0.0608  0.8512
12901SOL    HW240155   4.829   4.023   7.744  0.8667 -0.8796  0.0597
12902SOL     OW40156   6.802   5.555   4.165 -0.0422  0.0336 -0.5353
12902SOL    HW140157   6.751   5.476   4.181 -0.0269  0.4335  1.7236
12902SOL    HW240158   6.752   5.602   4.097 -0.0827 -1.8185 -1.8692
12903SOL     OW40159   3.894   4.944   4.704 -0.6076  0.0869 -0.2399
12903SOL    HW140160   3.967   4.912   4.651 -0.7657 -1.1627  0.2638
12903SOL    HW240161   3.904   5.039   4.703  0.9015 -0.0408 -0.3805
12904SOL     OW40162   8.701   3.347   0.511  0.4266  0.2641  0.1392
12904SOL    HW140163   8.754   3.374   0.586  2.6550  1.4575 -1.7265
12904SOL    HW240164   8.742   3.265   0.481 -0.4794 -0.2386  0.2418
12905SOL     OW40165   1.450   8.074   1.032 -0.7055 -0.4128  0.4148
12905SOL    HW140166   1.505   8.010   1.076 -0.5300 -1.1105 -0.7609
12905SOL    HW240167   1.361   8.047   1.051 -0.6476 -1.5959 -0.8057
12906SOL     OW40168   0.242   0.540   5.888 -0.1347 -0.3035  0.2258
12906SOL    HW140169   0.315   0.570   5.942 -1.2184 -1.1982  2.2874
12906SOL    HW240170   0.179   0.612   5.893  0.2938  0.1745 -0.9836
12907SOL     OW40171   6.175   0.535   1.688  0.3355  0.0678 -0.0227
12907SOL    HW140172   6.260   0.496   1.707 -0.9446 -1.8172  2.2806
12907SOL    HW240173   6.159   0.594   1.762 -0.1524  0.8644 -0.7415
12908SOL     OW40174   8.949   6.272   1.343 -0.0561 -0.5206 -0.3159
12908SOL    HW140175   9.041   6.249   1.354 -0.0145  0.0657  0.7594
12908SOL    HW240176   8.901   6.196   1.376  0.0767  0.6885  3.1378
12909SOL     OW40177   7.653   3.185   4.466  0.5319 -0.5094  0.7022
12909SOL    HW140178   7.624   3.230   4.546  0.3877 -1.0984  0.9868
12909SOL    HW240179   7.578   3.190   4.407  0.1676 -1.2035  1.0896
12910SOL     OW40180   0.816   7.461   8.398 -0.1431  0.0818  0.0127
12910SOL    HW140181   0.880   7.448   8.468 -0.3256  2.8936  0.8241
12910SOL    HW240182   0.856   7.526   8.341 -1.3140  0.1451 -0.7677
12911SOL     OW40183   8.072   2.098   0.676  0.5124  0.0619  0.1022
12911SOL    HW140184   8.079   2.191   0.697  4.5737  0.1981 -0.9142
12911SOL    HW240185   8.037   2.058   0.755 -0.9443  2.3449  0.7175
12912SOL     OW40186   8.313   8.669   7.228  0.1613  0.3903 -0.1164
12912SOL    HW140187   8.354   8.754   7.210 -1.3995  0.9572 -1.1874
12912SOL    HW240188   8.310   8.625   7.143 -1.1163  0.2162  0.0047
12913SOL     OW40189   2.121   5.096   6.183  0.0775 -0.2264  0.6083
12913SOL    HW140190   2.176   5.025   6.218  0.9548 -0.5374 -1.2640
12913SOL    HW240191   2.155   5.110   6.094  0.0121  2.6434  0.9580
12914SOL     OW40192   0.132   4.855   5.174  0.2217  0.2280  0.3404
12914SOL    HW140193   0.116   4.944   5.142  3.1099  0.6304 -0.2106
12914SOL    HW240194   0.186   4.866   5.251  2.8073 -1.0200 -1.1594
12915SOL     OW40195   7.997   5.273   2.559  0.1818 -0.1560 -0.5193
12915SOL    HW140196   8.030   5.278   2.469  0.6018 -0.1473 -0.3681
12915SOL    HW240197   7.976   5.363   2.582  4.3036  0.6552  0.9338
12916SOL     OW40198   5.996   6.638   1.898  0.4629 -0.2471 -0.4969
12916SOL    HW140199   6.063   6.699   1.867  1.6571 -0.8780  0.7222
12916SOL    HW240200   6.043   6.580   1.958 -1.1159 -0.9438  0.1145
12917SOL     OW40201   1.724   8.436   6.934  0.0473 -0.2842  0.1683
12917SOL    HW140202   1.650   8.482   6.975 -0.9441 -1.2898 -0.4268
12917SOL    HW240203   1.693   8.346   6.923  0.8824 -0.4256 -1.2769
12918SOL     OW40204   9.051   2.181   3.177 -0.0238  0.8045 -0.4264
12918SOL    HW140205   9.036   2.089   3.197  0.7949  1.1270  2.0700
12918SOL    HW240206   8.966   2.223   3.193  0.6459  1.1025  3.3829
12919SOL     OW40207   2.895   3.321   1.391 -0.0141  0.0527  0.1433
12919SOL    HW140208   2.801   3.304   1.398 -0.2269 -0.9073 -3.3167
12919SOL    HW240209   2.901   3.416   1.379 -0.5161  0.1175  0.3550
12920SOL     OW40210   4.609   2.609   8.906 -0.2644 -0.0358 -0.5358
12920SOL    HW140211   4.676   2.630   8.841 -1.2104  1.3496 -1.1054
12920SOL    HW240212   4.645   2.643   8.988  0.5879 -1.0931 -0.4473
12921SOL     OW40213   9.185   4.570   4.052 -0.1610  0.3056  0.4047
12921SOL    HW140214   9.123   4.640   4.030 -1.9186 -0.9898  1.0375
12921SOL    HW240215   9.218   4.594   4.139  1.0469  1.5257 -0.3597
12922SOL     OW40216   2.347   8.161   1.331 -0.2152  0.1201  0.2109
12922SOL    HW140217   2.386   8.075   1.346 -0.6375  0.0534  0.9855
12922SOL    HW240218   2.256   8.142   1.308 -0.2078  0.3379  0.0070
12923SOL     OW40219   4.259   8.216   5.534 -0.6126  0.9077  0.1288
12923SOL    HW140220   4.186   8.153   5.532  0.4367 -0.3509  0.1340
12923SOL    HW240221   4.333   8.167   5.499  0.2987  2.1000  0.3459
12924SOL     OW40222   0.620   3.795   4.635 -0.3152 -0.0777 -0.7013
12924SOL    HW140223   0.611   3.884   4.599 -1.4643 -0.0997 -0.4787
12924SOL    HW240224   0.704   3.764   4.600 -0.2176  0.8440 -1.3174
12925SOL     OW40225   4.163   4.596   6.119 -0.4323  0.3860 -0.4777
12925SOL    HW140226   4.190   4.645   6.042  3.3713 -0.0686  0.3722
12925SOL    HW240227   4.166   4.659   6.190  1.9523 -0.3401  0.1754
12926SOL     OW40228   4.864   0.895   5.563 -0.5577  0.0071  0.0110
12926SOL    HW140229   4.770   0.896   5.580 -0.5014 -1.0352  0.4454
12926SOL    HW240230   4.899   0.828   5.622  0.2736 -0.5658 -1.0883
12927SOL     OW40231   9.182   4.804   2.060 -0.2724  0.6190 -0.3453
12927SOL    HW140232   9.096   4.766   2.079  0.5980 -1.1841  0.2579
12927SOL    HW240233   9.213   4.755   1.984  0.5795  0.5941  0.0045
12928SOL     OW40234   8.935   6.166   3.559  0.2365 -0.5541  0.2719
12928SOL    HW140235   8.859   6.209   3.519  0.5515  1.3454  1.5676
12928SOL    HW240236   8.907   6.146   3.649  0.9683 -0.6736  0.4801
12929SOL     OW40237   2.459   5.744   0.746 -0.3087  0.6918  0.5496
12929SOL    HW140238   2.469   5.760   0.839  0.6613 -0.9104  0.7592
12929SOL    HW240239   2.377   5.694   0.739  0.9000 -1.4622  0.9000
12930SOL     OW40240   0.599   2.691   6.535 -0.0237 -0.2589  0.8233
12930SOL    HW140241   0.685   2.732   6.552  0.8532 -1.3221 -0.8380
12930SOL    HW240242   0.596   2.616   6.595 -0.5905  0.7613  2.1326
12931SOL     OW40243   7.291   4.178   8.715  0.3608  0.1328  0.0951
12931SOL    HW140244   7.313   4.271   8.708 -0.5591  0.2806 -1.2676
12931SOL    HW240245   7.261   4.167   8.806  1.2780  0.9646  0.5133
12932SOL     OW40246   0.823   0.734   0.675 -0.2869 -0.6342 -0.1481
12932SOL    HW140247   0.903   0.764   0.632  0.1299 -1.4713  0.0342
12932SOL    HW240248   0.778   0.683   0.608  0.0875 -1.4631  0.2255
12933SOL     OW40249   8.471   0.626   7.929 -0.0303 -0.7095 -0.6157
12933SOL    HW140250   8.461   0.594   7.839  2.1397 -1.2731 -0.7106
12933SOL    HW240251   8.503   0.551   7.978  0.3920  0.0307  0.2731
12934SOL     OW40252   1.529   1.175   9.077  0.0695 -0.5864 -0.4702
12934SOL    HW140253   1.439   1.172   9.045  0.3234 -0.2911 -1.2340
12934SOL    HW240254   1.572   1.240   9.021  0.7663 -0.7613 -0.1431
12935SOL     OW40255   6.062   6.182   0.890  0.6677  0.2060 -0.6279
12935SOL    HW140256   6.073   6.176   0.795  1.2185 -0.9614 -0.5084
12935SOL    HW240257   6.111   6.108   0.925 -3.1591 -2.1936  0.3122
12936SOL     OW40258   3.668   0.704   6.962 -0.2721 -0.3578 -0.5236
12936SOL    HW140259   3.757   0.672   6.976 -0.6150 -0.2371  2.6228
12936SOL    HW240260   3.665   0.788   7.009 -2.0147 -0.3148 -0.6581
12937SOL     OW40261   7.394   5.077   5.934 -0.4592 -0.0038 -0.1527
12937SOL    HW140262   7.454   5.006   5.958  2.2686  2.1621 -0.0310
12937SOL    HW240263   7.375   5.120   6.017  0.4586  1.2142 -0.5453
12938SOL     OW40264   1.854   2.776   3.085 -0.0701  0.5029  0.4570
12938SOL    HW140265   1.904   2.821   3.017 -1.0129 -0.6247 -1.0516
12938SOL    HW240266   1.772   2.824   3.091 -1.1325 -0.9868 -1.2497
12939SOL     OW40267   8.544   5.942   0.798 -0.2520  0.0431  0.1111
12939SOL    HW140268   8.499   5.947   0.714  1.0678  1.6892 -0.5599
12939SOL    HW240269   8.474   5.942   0.863 -1.2543  0.1876 -0.9425
12940SOL     OW40270   7.266   0.713   2.958 -0.4197  0.1941  0.2221
12940SOL    HW140271   7.259   0.794   2.907 -0.2579  0.6792  0.9503
12940SOL    HW240272   7.182   0.706   3.004 -1.0701 -0.9202 -1.0664
12941SOL     OW40273   2.190   0.799   2.900 -0.3369  0.5868 -0.2957
12941SOL    HW140274   2.283   0.806   2.875 -0.4723  2.1877 -0.4448
12941SOL    HW240275   2.145   0.862   2.843 -1.2206  1.3077  1.1456
12942SOL     OW40276   4.485   5.120   7.937  0.2015  0.2478  0.3956
12942SOL    HW140277   4.543   5.141   8.010  0.1926 -0.5077  0.6284
12942SOL    HW240278   4.484   5.024   7.933  2.2759  0.2228 -2.2613
12943SOL     OW40279   4.261   6.919   5.751 -0.1966  0.7506 -0.3682
12943SOL    HW140280   4.201   6.844   5.740 -0.1295  0.2318  2.1836
12943SOL    HW240281   4.347   6.879   5.765  0.4958  1.4526 -2.3484
12944SOL     OW40282   7.034   4.669   7.475  0.3507 -0.1318 -0.0617
12944SOL    HW140283   7.113   4.673   7.530 -1.8016  1.2127  3.2716
12944SOL    HW240284   6.992   4.587   7.502 -0.6138  0.4209  0.1470
12945SOL     OW40285   7.950   2.199   2.666 -0.5370 -0.0242 -0.2502
12945SOL    HW140286   8.026   2.167   2.715 -0.2234  2.0333  0.6708
12945SOL    HW240287   7.908   2.119   2.633 -0.0780 -1.4336  2.3135
12946SOL     OW40288   7.762   0.969   8.356  0.4792  0.4615  0.2601
12946SOL    HW140289   7.772   0.911   8.280 -1.1525 -0.3325  0.6077
12946SOL    HW240290   7.807   0.922   8.427  2.3299  1.3750 -0.2342
12947SOL     OW40291   4.669   1.379   6.321  0.3303  0.2314  0.2082
12947SOL    HW140292   4.643   1.295   6.359  0.6253  0.3227  0.6105
12947SOL    HW240293   4.750   1.360   6.274 -0.4488 -0.0597 -1.0741
12948SOL     OW40294   4.413   4.732   4.246 -0.0912 -0.6558  0.2580
12948SOL    HW140295   4.502   4.746   4.280 -0.9773  0.4196  2.2535
12948SOL    HW240296   4.356   4.773   4.310 -1.9793  0.0469 -1.7603
12949SOL     OW40297   4.254   2.517   8.885  0.0935 -0.2716  0.5021
12949SOL    HW140298   4.275   2.599   8.839 -1.2212 -0.2589 -0.1220
12949SOL    HW240299   4.189   2.542   8.950 -0.5174 -0.8536  0.1276
12950SOL     OW40300   9.237   1.125   5.554  0.1261  0.3287  0.8687
12950SOL    HW140301   9.309   1.170   5.509 -1.0395  3.0810  1.5294
12950SOL    HW240302   9.186   1.085   5.483  0.8215  0.6765  0.1577
12951SOL     OW40303   5.156   0.765   5.735 -0.2249  0.5985 -0.2047
12951SOL    HW140304   5.067   0.734   5.719 -0.0878  0.6827 -1.2256
12951SOL    HW240305   5.176   0.736   5.824 -0.6024 -1.0437 -0.6264
12952SOL     OW40306   8.161   2.334   4.309  0.9552  0.0925  0.0419
12952SOL    HW140307   8.145   2.388   4.232 -0.8764  0.0587  0.3518
12952SOL    HW240308   8.163   2.245   4.276  1.5045  0.1705 -0.1390
12953SOL     OW40309   2.903   8.090   3.075  0.2261  0.4684 -0.3923
12953SOL    HW140310   2.934   8.134   3.154 -2.4245 -0.7534  1.4533
12953SOL    HW240311   2.847   8.155   3.032 -0.5770  0.2473  0.2814
12954SOL     OW40312   6.686   3.375   4.454 -0.1389 -0.1580  0.1459
12954SOL    HW140313   6.661   3.306   4.393 -0.3052 -1.2153  1.3529
12954SOL    HW240314   6.682   3.333   4.540  1.2329  0.9470  0.7945
12955SOL     OW40315   2.165   7.203   0.935 -0.2703  0.0791  0.2741
12955SOL    HW140316   2.227   7.227   1.004  1.5167 -0.7887 -0.9460
12955SOL    HW240317   2.124   7.285   0.909 -0.0380  0.5958  1.4856
12956SOL     OW40318   8.995   4.517   2.630 -0.2904  0.0183 -0.0753
12956SOL    HW140319   9.063   4.562   2.580 -0.3810  1.4608  1.0275
12956SOL    HW240320   9.043   4.467   2.696 -0.2334 -0.7116 -0.6556
12957SOL     OW40321   1.213   8.522   4.184  0.0556  0.3054  0.4813
12957SOL    HW140322   1.150   8.588   4.212  2.3799  2.3896  1.1376
12957SOL    HW240323   1.293   8.542   4.232  1.3846 -1.9901 -0.5603
12958SOL     OW40324   7.168   1.156   6.290  0.5715 -0.4637  0.3264
12958SOL    HW140325   7.197   1.225   6.230  0.1275 -0.1763  0.4414
12958SOL    HW240326   7.074   1.168   6.297  0.8083  0.5241  2.3476
12959SOL     OW40327   6.263   5.840   0.862 -0.5515 -0.0052  0.2813
12959SOL    HW140328   6.298   5.820   0.775 -0.8932  0.5048  0.0193
12959SOL    HW240329   6.168   5.836   0.850 -0.5988 -0.2806  0.7189
12960SOL     OW40330   3.681   5.852   1.554  0.1622 -0.3668 -0.1826
12960SOL    HW140331   3.741   5.922   1.579  0.7033 -0.6567 -0.6638
12960SOL    HW240332   3.709   5.825   1.467 -1.5870  0.5156 -1.0745
12961SOL     OW40333   8.943   2.968   1.620  0.7459  0.0117  1.2050
12961SOL    HW140334   9.015   2.991   1.678  1.8447 -1.2539  0.3891
12961SOL    HW240335   8.930   2.874   1.633  1.9621 -0.6485 -1.5235
12962SOL     OW40336   1.031   8.138   6.087  0.1797  0.3221 -0.4332
12962SOL    HW140337   1.051   8.231   6.076  0.2368  0.3048 -0.4751
12962SOL    HW240338   1.079   8.094   6.017  1.2812  0.1186  0.4260
12963SOL     OW40339   8.323   6.783   7.564 -0.0517 -0.4403 -0.1685
12963SOL    HW140340   8.337   6.715   7.630 -1.0258 -0.2980  0.2075
12963SOL    HW240341   8.265   6.742   7.500  2.0757 -1.0965 -1.7934
12964SOL     OW40342   4.586   2.409   7.885 -0.2500  0.1404 -0.2998
12964SOL    HW140343   4.674   2.392   7.852  0.6257 -1.5346  2.5067
12964SOL    HW240344   4.599   2.463   7.962 -1.7100  0.1308 -0.0186
12965SOL     OW40345   5.065   3.218   2.608  0.0612 -0.0840 -0.2464
12965SOL    HW140346   5.044   3.252   2.695  0.7817 -0.6285  0.1548
12965SOL    HW240347   4.993   3.248   2.552 -0.6387 -0.1044  0.6279
12966SOL     OW40348   8.982   0.537   4.752 -0.4782  0.0143  0.1035
12966SOL    HW140349   8.887   0.535   4.765 -0.2846 -1.1885  1.7144
12966SOL    HW240350   8.998   0.475   4.681 -0.8114 -0.7140  0.6502
12967SOL     OW40351   6.553   7.082   2.909  0.1350 -0.0063 -0.2334
12967SOL    HW140352   6.618   7.062   2.842 -0.4611  0.9945 -1.1238
12967SOL    HW240353   6.476   7.110   2.861 -0.7818 -0.5959  0.8290
12968SOL     OW40354   5.454   2.127   0.434  0.2772 -0.3337 -0.6212
12968SOL    HW140355   5.505   2.078   0.370  2.0239 -0.6127  0.8957
12968SOL    HW240356   5.371   2.145   0.390  0.9387 -1.5564 -2.4914
12969SOL     OW40357   0.100   7.688   4.698  0.1769  0.1605 -0.1009
12969SOL    HW140358   0.060   7.601   4.697  0.0065  0.2240 -2.1066
12969SOL    HW240359   0.181   7.678   4.649  1.0504  0.7784  1.1593
12970SOL     OW40360   3.803   1.958   1.691 -0.0766  0.5371 -0.3522
12970SOL    HW140361   3.792   2.018   1.764  1.1098  0.4317 -0.0784
12970SOL    HW240362   3.892   1.973   1.660  0.2475 -1.0686 -0.2854
12971SOL     OW40363   4.419   1.728   8.556  0.1838 -0.3293  0.3443
12971SOL    HW140364   4.498   1.680   8.580 -0.2436 -1.0054  0.4174
12971SOL    HW240365   4.439   1.819   8.578  0.9127 -0.5012  0.4319
12972SOL     OW40366   7.639   6.972   1.595 -0.4687 -0.0258 -0.4402
12972SOL    HW140367   7.598   7.048   1.637 -0.5373 -0.8157  0.9613
12972SOL    HW240368   7.708   6.945   1.655 -2.0269 -2.5657  0.3412
12973SOL     OW40369   8.995   7.953   8.729  0.0592  1.0250 -0.1833
12973SOL    HW140370   9.011   7.948   8.635  0.4942  1.1330 -0.1176
12973SOL    HW240371   8.920   8.012   8.738  0.9354  2.1929 -0.3762
12974SOL     OW40372   8.403   1.051   5.173 -0.2873  0.3715 -0.8714
12974SOL    HW140373   8.454   1.025   5.096  1.2160 -0.8670  0.4863
12974SOL    HW240374   8.354   1.128   5.143 -0.4202 -0.5561 -3.3091
12975SOL     OW40375   1.888   3.770   6.897 -0.0662 -0.2842 -0.9771
12975SOL    HW140376   1.826   3.698   6.910 -0.4779  0.2973  0.6000
12975SOL    HW240377   1.837   3.838   6.853 -0.7058  0.3208  0.6129
12976SOL     OW40378   1.129   4.858   0.121 -0.2077  0.1901  0.2362
12976SOL    HW140379   1.060   4.924   0.108 -1.3291 -0.6706  1.5655
12976SOL    HW240380   1.082   4.775   0.123  0.8813 -0.4217  1.1586
12977SOL     OW40381   4.644   3.686   1.214  0.0472 -0.2549  0.0812
12977SOL    HW140382   4.717   3.718   1.161 -0.5377  1.5636  0.3280
12977SOL    HW240383   4.577   3.660   1.150  0.5456 -1.1043 -0.1179
12978SOL     OW40384   8.900   6.560   7.343 -0.2400  0.2619  0.2431
12978SOL    HW140385   8.905   6.548   7.248 -0.7868 -0.3485  0.2773
12978SOL    HW240386   8.822   6.615   7.356  0.2106  0.8948  0.3039
12979SOL     OW40387   2.139   0.549   6.245  0.2149 -0.2719 -0.0915
12979SOL    HW140388   2.105   0.633   6.214 -1.2221 -0.2923  1.3006
12979SOL    HW240389   2.188   0.514   6.171 -2.8368 -0.2314 -2.2994
12980SOL     OW40390   4.449   7.975   6.058 -0.4937  0.4243  0.1192
12980SOL    HW140391   4.429   8.029   5.981 -0.8146  0.9256  0.5488
12980SOL    HW240392   4.538   8.000   6.082 -0.6766  0.8504  0.3775
12981SOL     OW40393   0.308   3.323   8.613 -0.5703  0.3342  0.1936
12981SOL    HW140394   0.375   3.392   8.612 -0.5919  0.3715 -1.5471
12981SOL    HW240395   0.302   3.295   8.522 -1.1385 -1.4233  0.7461
12982SOL     OW40396   4.096   7.307   5.966 -0.0648 -0.5807  0.3364
12982SOL    HW140397   4.045   7.319   5.886 -0.0154  1.4418  0.5529
12982SOL    HW240398   4.062   7.373   6.026  2.0297  0.1059  0.8591
12983SOL     OW40399   4.275   1.928   7.104  0.1845  0.0122  0.1981
12983SOL    HW140400   4.273   1.836   7.079 -1.4519  0.1073 -0.0943
12983SOL    HW240401   4.358   1.961   7.069  1.5981 -1.7149  1.7349
12984SOL     OW40402   0.322   3.048   1.147 -0.0581 -0.7790 -0.7180
12984SOL    HW140403   0.245   3.094   1.179 -0.0376 -1.2147 -0.0116
12984SOL    HW240404   0.292   2.999   1.071 -1.2048 -3.1485  1.1166
12985SOL     OW40405   1.731   6.428   7.713  0.1762 -0.1525 -0.3614
12985SOL    HW140406   1.673   6.405   7.786 -0.3096  2.4490  0.1706
12985SOL    HW240407   1.819   6.408   7.745 -0.0873  0.2891  0.6843
12986SOL     OW40408   8.301   7.692   9.263  0.3347 -0.5999  0.5193
12986SOL    HW140409   8.233   7.753   9.289  0.4285 -0.9151  1.5657
12986SOL    HW240410   8.259   7.606   9.266  0.6282 -0.7431  0.6435
12987SOL     OW40411   2.231   7.222   1.791 -0.1858  0.2928 -0.7369
12987SOL    HW140412   2.170   7.200   1.721  0.5280 -1.6678 -0.8121
12987SOL    HW240413   2.226   7.148   1.851  1.6608  0.3470 -0.4456
12988SOL     OW40414   8.439   5.374   4.994 -0.5752 -0.8239  0.3346
12988SOL    HW140415   8.399   5.331   5.070  1.6700 -2.1494  0.8266
12988SOL    HW240416   8.434   5.309   4.924  1.1399 -1.2488  0.5607
12989SOL     OW40417   3.528   4.903   5.888 -0.3014  0.0698  0.4193
12989SOL    HW140418   3.553   4.915   5.980 -1.6966  1.6851  0.6460
12989SOL    HW240419   3.604   4.932   5.838  1.5701 -3.3971  0.9480
12990SOL     OW40420   2.966   1.551   3.150 -0.2202  0.3216  0.3474
12990SOL    HW140421   2.897   1.561   3.085  0.4342 -1.1355 -0.6359
12990SOL    HW240422   3.023   1.627   3.138  1.0327 -0.9197 -2.2845
12991SOL     OW40423   6.753   2.123   4.444  0.5498 -0.5624 -0.1939
12991SOL    HW140424   6.668   2.125   4.399  0.2309 -1.8275  0.3298
12991SOL    HW240425   6.760   2.035   4.479  0.6700  0.3953  2.4491
12992SOL     OW40426   6.438   7.724   6.047 -0.5278 -0.0963 -0.0661
12992SOL    HW140427   6.467   7.672   5.972  0.0339  0.8455 -0.5134
12992SOL    HW240428   6.363   7.774   6.015 -0.0424  0.6079 -0.1309
12993SOL     OW40429   3.985   3.937   7.556  0.2090  0.2847 -0.4093
12993SOL    HW140430   3.981   4.016   7.502  1.0004  0.3462 -0.3924
12993SOL    HW240431   4.070   3.899   7.535  0.2196 -0.0698  0.2722
12994SOL     OW40432   0.275   8.129   0.304  0.4575 -0.0187  0.5218
12994SOL    HW140433   0.214   8.056   0.317  0.2230  0.0578 -0.1447
12994SOL    HW240434   0.231   8.187   0.242  2.1216 -1.0566 -1.7845
12995SOL     OW40435   6.987   7.899   3.600  0.1182 -0.3267 -0.0500
12995SOL    HW140436   6.954   7.831   3.541  0.5109 -0.1889 -0.4372
12995SOL    HW240437   6.912   7.955   3.618  0.2344  0.2690 -1.3093
12996SOL     OW40438   7.397   2.059   3.377 -0.2731  0.5221 -0.4243
12996SOL    HW140439   7.341   2.137   3.377 -0.1476  0.6936 -3.0691
12996SOL    HW240440   7.392   2.026   3.467  1.3034  4.6847  1.4556
12997SOL     OW40441   2.278   4.147   8.795 -0.4537 -0.2502  0.0270
12997SOL    HW140442   2.354   4.109   8.840 -0.2080  0.2050  0.0066
12997SOL    HW240443   2.307   4.157   8.704 -0.6910 -0.4800 -0.0733
12998SOL     OW40444   6.720   6.077   7.054 -0.2754  0.1136  0.4061
12998SOL    HW140445   6.727   6.168   7.081  0.2388 -0.0605  0.8543
12998SOL    HW240446   6.632   6.071   7.016  0.6451  1.4899 -2.2550
12999SOL     OW40447   4.033   2.611   1.201  0.3239  0.0198  0.1900
12999SOL    HW140448   4.016   2.632   1.293 -0.9917  2.1848 -0.4769
12999SOL    HW240449   4.082   2.529   1.204  0.1265 -0.0888  2.8023
13000SOL     OW40450   4.787   4.117   1.519 -0.1553  0.1937 -0.0805
13000SOL    HW140451   4.854   4.114   1.450 -0.0616  2.5667 -0.1607
13000SOL    HW240452   4.731   4.191   1.495 -1.2976 -0.1497  1.3718
13001SOL     OW40453   1.182   2.569   8.375 -0.1003  0.0851  0.2117
13001SOL    HW140454   1.246   2.641   8.378 -1.5959  1.5281 -0.6690
13001SOL    HW240455   1.097   2.613   8.379 -1.0665 -1.8252  2.2005
13002SOL     OW40456   1.685   8.826   4.596  0.1380  0.1225  0.1152
13002SOL    HW140457   1.650   8.901   4.549  0.2155 -0.0665 -0.2474
13002SOL    HW240458   1.609   8.770   4.611 -0.1391  0.8216  1.4443
13003SOL     OW40459   8.195   0.450   4.515  0.1452  0.2575  0.1759
13003SOL    HW140460   8.180   0.498   4.596 -2.9555 -1.9485  1.0839
13003SOL    HW240461   8.221   0.362   4.544  3.4804  0.5318 -1.4013
13004SOL     OW40462   3.386   0.018   0.476 -0.1691  0.4244 -0.0572
13004SOL    HW140463   3.296   0.032   0.447  0.2920  0.9203 -1.3310
13004SOL    HW240464   3.426  -0.034   0.406  0.9402  1.5264 -0.2700
13005SOL     OW40465   7.373   4.733   1.000 -0.1824  0.8166  0.2411
13005SOL    HW140466   7.304   4.713   1.063 -0.0797  2.0385  0.7662
13005SOL    HW240467   7.420   4.650   0.988 -2.6646 -0.4829 -1.3337
13006SOL     OW40468   6.838   1.988   2.524  0.0060  0.0989 -0.2946
13006SOL    HW140469   6.874   2.072   2.495 -0.9122  0.4322 -0.5084
13006SOL    HW240470   6.744   1.995   2.508 -0.4570 -0.0250  1.9571
13007SOL     OW40471   6.688   5.727   9.215  0.2907 -0.2878 -0.1812
13007SOL    HW140472   6.744   5.653   9.193  2.1007  1.2809 -1.1422
13007SOL    HW240473   6.684   5.779   9.135 -0.1007  1.1646  0.7430
13008SOL     OW40474   6.248   6.791   1.862 -0.2901  0.1348 -0.3569
13008SOL    HW140475   6.297   6.848   1.921  0.7832 -1.2262  0.1259
13008SOL    HW240476   6.237   6.842   1.782 -0.6252  1.5294  0.5439
13009SOL     OW40477   9.193   1.050   1.021 -0.1958  0.0957  0.2820
13009SOL    HW140478   9.287   1.038   1.004 -0.5181 -0.7338 -1.0771
13009SOL    HW240479   9.173   1.136   0.985 -0.1306 -0.1151 -0.2683
13010SOL     OW40480   9.135   3.497   3.406 -0.1426 -0.2520  0.2719
13010SOL    HW140481   9.182   3.537   3.333  0.3623  1.1758  1.3277
13010SOL    HW240482   9.186   3.419   3.427  0.0043 -0.3895 -0.5702
13011SOL     OW40483   4.360   0.247   5.029 -0.0451 -0.3736 -0.1865
13011SOL    HW140484   4.374   0.293   5.112 -1.1608 -0.1949 -0.0766
13011SOL    HW240485   4.370   0.315   4.962  0.7565 -0.4972 -0.2007
13012SOL     OW40486   5.632   1.943   7.665  0.0639 -0.3688 -0.3050
13012SOL    HW140487   5.547   1.924   7.623 -0.3979  0.7152  0.0926
13012SOL    HW240488   5.620   2.031   7.703  0.6835 -1.0499  1.5550
13013SOL     OW40489   6.193   4.669   1.404 -0.0496 -1.0662 -0.1345
13013SOL    HW140490   6.247   4.590   1.404 -1.4656 -2.0556 -0.2630
13013SOL    HW240491   6.182   4.690   1.311 -0.1331 -1.0396 -0.1187
13014SOL     OW40492   0.999   4.776   8.419  0.0360  0.0919 -0.0774
13014SOL    HW140493   1.052   4.701   8.391  0.1288 -1.5380  3.8149
13014SOL    HW240494   0.909   4.748   8.405  0.0627  0.5053 -1.2586
13015SOL     OW40495   3.822   6.700   3.989 -0.0512  0.1575 -0.0214
13015SOL    HW140496   3.820   6.794   3.968 -1.4544  0.2851  0.5499
13015SOL    HW240497   3.837   6.657   3.905 -2.3905  0.7934 -0.8615
13016SOL     OW40498   4.110   7.940   8.141 -0.1331  0.1255 -0.1011
13016SOL    HW140499   4.147   7.998   8.207 -0.9353 -0.5345  0.9730
13016SOL    HW240500   4.172   7.944   8.068  0.2948  1.5937  0.3054
13017SOL     OW40501   7.243   8.909   3.735 -0.1732  0.0362  1.0282
13017SOL    HW140502   7.315   8.959   3.696 -0.7826  0.7977  0.8570
13017SOL    HW240503   7.203   8.969   3.798  0.4045 -0.9751  2.3897
13018SOL     OW40504   9.233   1.986   8.003  0.5757  0.2145  0.5746
13018SOL    HW140505   9.191   1.966   8.087 -0.7147 -0.8411 -0.2777
13018SOL    HW240506   9.200   2.072   7.979  0.4619  0.2470  0.8453
13019SOL     OW40507   4.901   2.921   7.874 -0.1933  0.4178 -0.1751
13019SOL    HW140508   4.916   2.948   7.965  3.3648  0.4464 -0.6225
13019SOL    HW240509   4.862   2.834   7.882  1.6817 -0.3747  1.5190
13020SOL     OW40510   1.058   4.250   6.101 -0.3076  0.3570  0.4364
13020SOL    HW140511   1.152   4.239   6.115 -0.2319 -0.0953 -0.3303
13020SOL    HW240512   1.050   4.265   6.007 -1.0610 -0.3797  0.3680
13021SOL     OW40513   1.130   7.913   8.751  0.2227  0.2705  0.3574
13021SOL    HW140514   1.102   7.918   8.660 -0.0071  0.1669  0.4202
13021SOL    HW240515   1.126   7.819   8.772  0.2996  0.2908  0.4652
13022SOL     OW40516   9.026   2.591   1.112  0.3397 -0.3017 -0.3092
13022SOL    HW140517   9.045   2.658   1.045 -1.8180  0.3193 -0.4081
13022SOL    HW240518   8.995   2.516   1.062  0.8112 -0.6309 -0.1053
13023SOL     OW40519   7.447   8.960   3.374  0.0568 -0.4202  0.0727
13023SOL    HW140520   7.417   8.900   3.306  1.1272 -0.6491 -0.2144
13023SOL    HW240521   7.440   8.909   3.455  1.5875 -1.2133 -0.2465
13024SOL     OW40522   0.632   0.455   1.569  0.2829 -0.0417 -0.7230
13024SOL    HW140523   0.575   0.461   1.492 -0.5237  1.7940 -0.0518
13024SOL    HW240524   0.718   0.481   1.537 -0.1051  0.9790 -1.0005
13025SOL     OW40525   3.334   6.125   7.428 -0.2288 -0.4947 -0.0930
13025SOL    HW140526   3.252   6.171   7.447  2.0602  3.8359  0.5087
13025SOL    HW240527   3.370   6.104   7.514 -0.2124 -1.5429 -0.3402
13026SOL     OW40528   4.170   3.200   7.071  0.3168  0.1964  0.2845
13026SOL    HW140529   4.092   3.180   7.020  0.2187  0.3326  0.3797
13026SOL    HW240530   4.218   3.118   7.076  0.6932  0.3529 -0.6465
13027SOL     OW40531   6.192   4.926   4.710  0.5830  0.2777 -0.3574
13027SOL    HW140532   6.217   4.959   4.796  1.1455  0.2712 -0.5108
13027SOL    HW240533   6.211   4.832   4.714 -2.7929 -0.5089  0.7332
13028SOL     OW40534   1.239   4.325   2.943  0.6087 -0.2650 -0.0462
13028SOL    HW140535   1.207   4.266   2.875  1.2266 -2.2551  1.3052
13028SOL    HW240536   1.162   4.374   2.972 -0.0234 -0.7721 -0.8398
13029SOL     OW40537   0.820   4.223   6.867  0.2906 -0.0986  0.4464
13029SOL    HW140538   0.866   4.296   6.824  0.4775  0.0376  0.8753
13029SOL    HW240539   0.845   4.230   6.959  0.4600 -0.8282  0.4550
13030SOL     OW40540   1.113   1.872   1.998  0.1748 -0.1173 -0.2610
13030SOL    HW140541   1.073   1.922   1.927 -0.0983 -0.1685 -0.1437
13030SOL    HW240542   1.102   1.927   2.076  0.9071  0.1601 -0.3417
13031SOL     OW40543   5.191   3.379   5.637  0.1253 -0.0104  0.1883
13031SOL    HW140544   5.122   3.410   5.579 -1.1138 -0.6036  1.2931
13031SOL    HW240545   5.231   3.306   5.590  0.1830  0.4844 -0.5545
13032SOL     OW40546   5.549   8.404   3.630  0.3943  0.0313  0.3214
13032SOL    HW140547   5.588   8.455   3.559  3.8021 -0.8770  1.3450
13032SOL    HW240548   5.547   8.465   3.704 -0.9728  0.2928  0.0953
13033SOL     OW40549   9.067   8.008   2.963 -0.3190  0.3427 -0.5264
13033SOL    HW140550   9.039   7.917   2.956  2.6394 -0.7220  0.2773
13033SOL    HW240551   9.064   8.027   3.057  1.4179  0.2350 -0.4311
13034SOL     OW40552   8.410   3.135   7.241  0.0682  0.2334  0.1065
13034SOL    HW140553   8.357   3.056   7.244 -0.6203  0.7101  1.0693
13034SOL    HW240554   8.445   3.138   7.152  1.3603 -1.9447  0.4685
13035SOL     OW40555   1.768   3.395   4.771 -0.0051  0.3317  0.3774
13035SOL    HW140556   1.678   3.384   4.741 -0.2515  1.2040  0.7801
13035SOL    HW240557   1.798   3.306   4.788 -1.2488  0.1126  1.5709
13036SOL     OW40558   3.502   9.260   3.159 -0.1308 -0.2505 -0.2030
13036SOL    HW140559   3.438   9.242   3.228  0.9763  1.1080  1.2417
13036SOL    HW240560   3.460   9.326   3.105  0.1176  0.8621  0.9143
13037SOL     OW40561   9.253   1.567   9.022 -0.0509  0.2334 -0.2155
13037SOL    HW140562   9.157   1.570   9.026 -0.1385  0.4599 -1.7618
13037SOL    HW240563   9.272   1.490   8.968  0.7162 -0.7918  1.4525
13038SOL     OW40564   6.343   0.774   8.534  0.2831  0.2931 -0.2464
13038SOL    HW140565   6.277   0.705   8.520 -0.4785  1.1093 -0.7752
13038SOL    HW240566   6.420   0.743   8.487 -0.0214 -0.2290 -0.4155
13039SOL     OW40567   7.904   1.915   2.968 -0.0386 -0.5548 -0.5675
13039SOL    HW140568   7.888   2.007   2.946  3.1847  0.5148  0.9485
13039SOL    HW240569   7.830   1.891   3.024  0.1310  1.9197  0.9082
13040SOL     OW40570   8.419   1.423   5.443  0.5245  0.0902  0.2661
13040SOL    HW140571   8.340   1.477   5.454  1.5606  1.5364  0.9787
13040SOL    HW240572   8.458   1.455   5.361 -0.6289 -2.0292 -1.2131
13041SOL     OW40573   5.774   7.202   7.027  0.7759 -0.0826  0.3045
13041SOL    HW140574   5.680   7.182   7.029  0.6255  0.6306  1.1926
13041SOL    HW240575   5.806   7.159   6.948 -0.5255  0.6665 -0.6773
13042SOL     OW40576   6.940   3.284   4.598 -0.3291  0.1769 -0.3893
13042SOL    HW140577   6.914   3.292   4.506  0.3043 -1.1000 -0.7000
13042SOL    HW240578   7.034   3.302   4.598 -0.3517  0.3127  0.0424
13043SOL     OW40579   9.050   7.454   5.947  0.5997  0.4105  0.1143
13043SOL    HW140580   8.962   7.476   5.918  0.7432  2.0537  0.8150
13043SOL    HW240581   9.106   7.522   5.909  1.5537 -0.4721 -0.1304
13044SOL     OW40582   4.646   4.841   3.780  0.2619  0.0495 -0.3885
13044SOL    HW140583   4.593   4.895   3.722  0.1748  0.1901 -0.1767
13044SOL    HW240584   4.585   4.810   3.847  0.3983  0.0219 -0.2761
13045SOL     OW40585   7.766   2.792   8.525 -0.3260 -0.0436  0.0382
13045SOL    HW140586   7.754   2.727   8.595 -0.6190 -0.2286 -0.1838
13045SOL    HW240587   7.730   2.873   8.561 -0.3074 -0.0934  0.1692
13046SOL     OW40588   7.420   1.891   2.424  0.4725  0.4353  0.7567
13046SOL    HW140589   7.510   1.889   2.392  0.6787  2.6814  0.9942
13046SOL    HW240590   7.427   1.876   2.519  0.6579  1.0191  0.8389
13047SOL     OW40591   5.354   8.216   4.383  0.5931 -0.0537 -0.0835
13047SOL    HW140592   5.341   8.148   4.316  1.2596  0.4169 -0.7092
13047SOL    HW240593   5.272   8.266   4.383  1.0970  0.8285 -1.5924
13048SOL     OW40594   7.804   8.055   1.455 -0.1034  0.1203  0.2486
13048SOL    HW140595   7.761   8.124   1.506  0.6443  0.5597  0.2902
13048SOL    HW240596   7.758   8.056   1.371 -0.3576  0.3992  0.3861
13049SOL     OW40597   4.152   4.536   1.666 -0.4315 -0.4721  0.1009
13049SOL    HW140598   4.151   4.586   1.584 -0.8014 -0.5898  0.0292
13049SOL    HW240599   4.084   4.576   1.720  1.3843  1.1199  1.3037
13050SOL     OW40600   2.950   2.906   3.156  0.2793 -0.7637 -0.5236
13050SOL    HW140601   3.033   2.864   3.175 -0.1393 -2.1493 -1.5939
13050SOL    HW240602   2.890   2.873   3.222  0.7948  1.1699  1.0114
13051SOL     OW40603   3.487   7.989   2.311  0.6349 -0.1355 -0.2545
13051SOL    HW140604   3.539   8.037   2.375 -0.2775  0.1676  0.2823
13051SOL    HW240605   3.545   7.920   2.279  0.8734 -0.7559  1.4494
13052SOL     OW40606   1.995   6.683   9.203 -0.2590  0.4502  0.3382
13052SOL    HW140607   1.933   6.614   9.227 -0.3785 -0.1505 -1.5403
13052SOL    HW240608   1.962   6.717   9.120  1.9035  0.0866 -0.7496
13053SOL     OW40609   9.145   5.782   1.845 -0.1076  0.0257 -0.0273
13053SOL    HW140610   9.123   5.746   1.760  0.1416 -0.3885  0.0819
13053SOL    HW240611   9.197   5.714   1.888  0.6855  0.6505  0.0363
13054SOL     OW40612   5.426   1.459   6.113 -0.1895 -0.1148 -0.4455
13054SOL    HW140613   5.485   1.391   6.143  0.3751  0.7348  0.4133
13054SOL    HW240614   5.466   1.541   6.142 -0.4386  0.6567 -2.1337
13055SOL     OW40615   6.534   0.702   6.651  0.0708  0.2211  0.0868
13055SOL    HW140616   6.526   0.627   6.592  1.2454 -0.3307  0.5865
13055SOL    HW240617   6.611   0.750   6.618 -0.2775  0.8407  0.1684
13056SOL     OW40618   5.633   5.323   8.940 -0.0416  0.4836  0.4409
13056SOL    HW140619   5.684   5.349   9.017  0.9042 -2.6810  1.0466
13056SOL    HW240620   5.550   5.291   8.976  0.4623 -1.1509  0.2272
13057SOL     OW40621   1.838   0.428   9.278  0.2153  0.3272  0.3505
13057SOL    HW140622   1.756   0.379   9.265  0.2874  0.5774 -1.2641
13057SOL    HW240623   1.872   0.396   9.362 -0.9971 -0.5449  0.5428
13058SOL     OW40624   6.855   0.002   1.480 -0.1044 -0.2482  0.8754
13058SOL    HW140625   6.810   0.020   1.397  0.9254  0.4662  0.4547
13058SOL    HW240626   6.873   0.089   1.516 -0.4503 -0.5551  1.8106
13059SOL     OW40627   1.588   7.702   5.637  0.0624  0.0277  0.1914
13059SOL    HW140628   1.561   7.766   5.703 -2.5218 -0.7551  0.0189
13059SOL    HW240629   1.623   7.629   5.688 -0.7787 -0.0652  0.6640
13060SOL     OW40630   4.086   2.451   7.159  0.0399 -0.2246  0.5659
13060SOL    HW140631   4.163   2.424   7.210 -1.5766 -0.9554  2.7772
13060SOL    HW240632   4.059   2.534   7.199 -0.5016 -0.1170 -0.0105
13061SOL     OW40633   0.994   4.332   6.438 -0.0139  0.2520  0.2135
13061SOL    HW140634   0.902   4.356   6.453 -0.0058  1.4587 -1.3652
13061SOL    HW240635   1.001   4.323   6.343  1.2519 -0.9777  0.4008
13062SOL     OW40636   2.533   0.075   6.914 -0.2141  0.6185 -0.0718
13062SOL    HW140637   2.545   0.123   6.996 -0.2003  0.8770 -0.2258
13062SOL    HW240638   2.560  -0.015   6.935 -1.6221  0.3392  0.6123
13063SOL     OW40639   0.127   8.788   0.042 -0.0733  0.2499  0.2620
13063SOL    HW140640   0.052   8.838   0.077  0.0467 -0.2909  1.3336
13063SOL    HW240641   0.134   8.817  -0.049 -1.5585  0.3500  0.1453
13064SOL     OW40642   1.997   5.861   3.531 -0.2702 -0.5272 -0.3697
13064SOL    HW140643   1.954   5.823   3.455 -1.3553  0.2399 -0.1481
13064SOL    HW240644   2.090   5.843   3.517 -0.3261  0.6255 -2.4634
13065SOL     OW40645   5.463   7.146   5.706  0.4607 -0.1321  0.2808
13065SOL    HW140646   5.537   7.170   5.762  1.1549  0.3281 -0.7990
13065SOL    HW240647   5.492   7.066   5.662  0.9555  0.8370 -1.2467
13066SOL     OW40648   2.419   4.896   2.654  0.5922  0.4643 -0.3636
13066SOL    HW140649   2.362   4.923   2.726  0.9894  0.8423 -0.1918
13066SOL    HW240650   2.363   4.899   2.577  0.2238  0.2770 -0.1070
13067SOL     OW40651   6.886   7.351   0.949 -0.0022  0.0731  0.0731
13067SOL    HW140652   6.926   7.355   1.036  1.6515  1.5852 -0.7154
13067SOL    HW240653   6.847   7.263   0.946  1.8302 -0.8710  1.5149
13068SOL     OW40654   4.586   5.005   1.190  0.5921  0.3000  1.4223
13068SOL    HW140655   4.552   4.942   1.127 -0.4622  1.1245  1.1378
13068SOL    HW240656   4.629   4.951   1.257  0.4670 -0.6584  0.7567
13069SOL     OW40657   6.671   6.392   5.264  0.0984  0.8399 -0.1730
13069SOL    HW140658   6.638   6.332   5.330  0.0834  1.1508  0.1089
13069SOL    HW240659   6.593   6.425   5.219  0.1180  0.5152 -0.4491
13070SOL     OW40660   7.228   1.351   5.041 -0.2796 -0.0119  0.1702
13070SOL    HW140661   7.226   1.256   5.050 -0.7065 -0.0114  0.1134
13070SOL    HW240662   7.314   1.370   5.002 -0.7256 -0.4936 -1.0955
13071SOL     OW40663   7.855   3.548   3.953 -0.4398  0.1011  0.6293
13071SOL    HW140664   7.837   3.617   4.017 -2.2753 -2.1402  2.7002
13071SOL    HW240665   7.950   3.539   3.953 -0.3131  1.1157  1.9913
13072SOL     OW40666   5.764   4.575   7.341 -0.2499 -0.1733  0.5790
13072SOL    HW140667   5.766   4.581   7.437 -0.7014  0.8003  0.5299
13072SOL    HW240668   5.706   4.645   7.313  0.4305  0.0039 -0.4565
13073SOL     OW40669   5.924   4.990   5.879 -0.7355 -0.0736  0.3146
13073SOL    HW140670   5.935   5.000   5.973 -2.1180 -1.0137  0.6068
13073SOL    HW240671   5.944   5.077   5.843  1.2425 -0.0821  1.2988
13074SOL     OW40672   6.085   2.823   6.661 -0.2839  0.6347  0.1374
13074SOL    HW140673   6.176   2.822   6.631 -0.1621  0.4426  0.5063
13074SOL    HW240674   6.061   2.915   6.661 -0.4181  0.6196 -0.9328
13075SOL     OW40675   3.698   5.986   2.860 -0.3785 -0.2033  0.0620
13075SOL    HW140676   3.633   6.016   2.796  0.2182 -0.7895 -0.8338
13075SOL    HW240677   3.648   5.933   2.922 -1.2745  1.7182  1.0986
13076SOL     OW40678   4.464   3.817   9.280  0.2779  0.1167  0.5781
13076SOL    HW140679   4.402   3.877   9.322  0.2950 -0.5651  1.6153
13076SOL    HW240680   4.412   3.770   9.216  0.1200  0.7809  0.2121
13077SOL     OW40681   9.073   3.620   4.553 -0.1676  0.0467  0.1752
13077SOL    HW140682   9.062   3.705   4.512  2.3461  0.4869  0.2166
13077SOL    HW240683   9.168   3.606   4.553 -0.0322 -0.4842  4.6019
13078SOL     OW40684   5.542   0.691   8.939  0.4152  0.2990 -0.7810
13078SOL    HW140685   5.471   0.726   8.992  0.5346 -0.7814  0.1230
13078SOL    HW240686   5.581   0.768   8.898 -1.5442  0.8882 -1.6861
13079SOL     OW40687   5.718   4.946   2.828 -0.2110  0.2215  0.1998
13079SOL    HW140688   5.668   4.965   2.907 -0.6989  2.4807 -0.5576
13079SOL    HW240689   5.787   4.887   2.856 -1.4459 -0.4961  1.9174
13080SOL     OW40690   3.424   1.353   8.005  0.4255  0.1462  0.3017
13080SOL    HW140691   3.342   1.321   7.967  0.6552 -0.0745 -0.0215
13080SOL    HW240692   3.476   1.274   8.020  0.6962  0.3079  0.2220
13081SOL     OW40693   3.211   0.966   7.533  0.6165  0.4252  0.8695
13081SOL    HW140694   3.254   1.050   7.551  0.9994  0.3553  0.3001
13081SOL    HW240695   3.133   0.990   7.483  0.8225  0.4305  0.5479
13082SOL     OW40696   5.458   6.772   6.201 -0.0606  0.5459  0.2598
13082SOL    HW140697   5.542   6.731   6.221 -0.3417  0.1544  0.6571
13082SOL    HW240698   5.473   6.818   6.118 -0.1103 -1.4901 -0.9476
13083SOL     OW40699   5.333   8.855   8.687  0.1290 -0.2217  0.1144
13083SOL    HW140700   5.359   8.775   8.641  0.7342 -0.4690  0.8644
13083SOL    HW240701   5.384   8.924   8.645  0.8233 -0.4753  0.5273
13084SOL     OW40702   4.269   4.648   7.517  0.2071  0.2079 -0.0629
13084SOL    HW140703   4.281   4.591   7.593  0.7129  0.9239  0.4134
13084SOL    HW240704   4.335   4.619   7.455  1.2947  1.0368  0.6628
13085SOL     OW40705   0.321   7.567   3.827  0.0140 -0.1348  0.1827
13085SOL    HW140706   0.238   7.569   3.873 -0.2948 -1.2357 -0.2816
13085SOL    HW240707   0.385   7.544   3.894 -0.1031  0.3502  0.4666
13086SOL     OW40708   5.608   0.771   0.782  0.0036  0.2863 -0.5706
13086SOL    HW140709   5.671   0.724   0.837 -1.8476 -1.6925  0.0001
13086SOL    HW240710   5.637   0.753   0.692  0.2543 -0.6140 -0.3197
13087SOL     OW40711   4.903   8.300   7.368 -0.2342  0.5097 -0.0708
13087SOL    HW140712   4.956   8.356   7.311 -0.5622  0.9191  0.0227
13087SOL    HW240713   4.825   8.280   7.317 -1.2227  2.0868  0.7446
13088SOL     OW40714   6.275   5.252   6.142 -0.2284 -0.9478 -0.4468
13088SOL    HW140715   6.305   5.213   6.060  1.2996 -1.6743  0.4111
13088SOL    HW240716   6.344   5.232   6.205 -1.3097 -0.3188  1.0071
13089SOL     OW40717   2.843   4.520   0.748 -0.4090 -0.0806  0.1233
13089SOL    HW140718   2.838   4.433   0.707 -1.1491  0.2203 -0.4523
13089SOL    HW240719   2.752   4.543   0.768 -0.3102  0.8922 -0.4551
13090SOL     OW40720   3.392   8.932   7.987 -0.0219  0.1683 -0.0615
13090SOL    HW140721   3.403   8.841   8.015  0.7407  0.1189 -0.5080
13090SOL    HW240722   3.301   8.937   7.957  0.2354 -0.7152 -1.0199
13091SOL     OW40723   6.021   3.596   5.194 -0.0826  0.0182 -0.0823
13091SOL    HW140724   6.017   3.691   5.195  0.4275  0.0738 -1.4501
13091SOL    HW240725   6.094   3.575   5.136  0.9632 -1.1959  1.5600
13092SOL     OW40726   0.536   5.542   7.456  0.0382  0.1555 -0.0125
13092SOL    HW140727   0.559   5.541   7.363  2.6704  0.5808  0.5686
13092SOL    HW240728   0.530   5.635   7.479 -1.3310  0.0564  0.1148
13093SOL     OW40729   1.750   9.121   1.070 -0.2146 -0.4939  0.4318
13093SOL    HW140730   1.828   9.094   1.118 -0.1126 -1.7543 -0.3930
13093SOL    HW240731   1.733   9.049   1.009 -2.0018 -0.2221  0.5530
13094SOL     OW40732   2.363   9.012   8.520 -0.5909  0.4206  0.0256
13094SOL    HW140733   2.273   8.982   8.533 -0.3381  0.3803  1.8954
13094SOL    HW240734   2.360   9.061   8.438 -2.3171  0.4173  0.0506
13095SOL     OW40735   7.790   7.039   7.433  0.1211 -0.4188 -0.0503
13095SOL    HW140736   7.799   7.118   7.380 -0.1339 -0.5096 -0.2341
13095SOL    HW240737   7.880   7.014   7.455  0.3274 -1.1223 -1.5609
13096SOL     OW40738   5.412   2.744   5.758  0.0425  0.5202  0.1026
13096SOL    HW140739   5.369   2.821   5.795  0.3819  0.5353  0.4785
13096SOL    HW240740   5.476   2.719   5.824 -1.9380 -1.7790  1.3103
13097SOL     OW40741   5.495   8.885   1.741  0.0657  0.4460 -0.1552
13097SOL    HW140742   5.493   8.891   1.836 -1.9063  0.5955 -0.1631
13097SOL    HW240743   5.477   8.974   1.711 -0.4064  0.2019 -0.6286
13098SOL     OW40744   5.160   8.634   4.851 -0.2216 -0.2670  0.6392
13098SOL    HW140745   5.182   8.596   4.936  0.2664 -2.3156 -0.3399
13098SOL    HW240746   5.211   8.583   4.788 -1.4738  0.3938 -0.9899
13099SOL     OW40747   9.208   6.155   5.996  0.3663  0.2803 -0.1719
13099SOL    HW140748   9.212   6.250   6.006  0.0073  0.0652  2.6328
13099SOL    HW240749   9.115   6.134   5.994  0.4428 -0.0578 -0.6573
13100SOL     OW40750   0.656   2.590   5.978  0.2888 -0.9609 -0.2805
13100SOL    HW140751   0.600   2.603   6.055 -1.4246 -1.8246 -1.3263
13100SOL    HW240752   0.600   2.610   5.903  1.6107 -1.1333 -1.3622
13101SOL     OW40753   0.715   4.263   7.458  0.5189  0.3052  0.8584
13101SOL    HW140754   0.699   4.230   7.546 -0.0293  0.0134  0.6537
13101SOL    HW240755   0.810   4.260   7.448  0.4992 -0.9606  0.9412
13102SOL     OW40756   0.300   3.101   1.475  0.6240  0.4728 -0.1244
13102SOL    HW140757   0.362   3.031   1.497  0.3163 -0.3804 -1.8169
13102SOL    HW240758   0.241   3.062   1.411  0.9966  2.5130 -1.8535
13103SOL     OW40759   3.005   4.583   4.322  0.0265  0.2577 -0.0260
13103SOL    HW140760   3.096   4.611   4.335 -0.4321  1.1269  1.5228
13103SOL    HW240761   2.954   4.664   4.323 -0.9468 -0.3384  0.9234
13104SOL     OW40762   0.527   0.720   4.748  0.0545  0.0112  0.0568
13104SOL    HW140763   0.461   0.704   4.816 -0.8293 -0.3667 -0.8548
13104SOL    HW240764   0.503   0.659   4.678  1.5876 -0.3693 -0.1632
13105SOL     OW40765   5.039   3.932   4.128  0.4576  0.3187 -0.1147
13105SOL    HW140766   5.096   3.856   4.144  2.2872  1.6860  0.1262
13105SOL    HW240767   4.988   3.907   4.051  0.7009 -1.3156  0.2066
13106SOL     OW40768   8.746   8.093   2.022  0.3002  0.1488 -0.0097
13106SOL    HW140769   8.830   8.072   2.063  0.3103  0.2927  0.0423
13106SOL    HW240770   8.766   8.164   1.961  0.3209 -0.1888 -0.4034
13107SOL     OW40771   2.043   9.208   2.811 -0.1184  0.0080 -0.0909
13107SOL    HW140772   2.128   9.183   2.776 -0.0105  2.1844 -1.5782
13107SOL    HW240773   2.062   9.265   2.885 -0.3097 -0.2972  0.1993
13108SOL     OW40774   1.609   8.319   5.989  0.1511 -0.1914 -0.4438
13108SOL    HW140775   1.597   8.362   6.073 -2.3394 -0.4546 -0.6043
13108SOL    HW240776   1.628   8.391   5.928 -0.9154  0.3630 -0.1556
13109SOL     OW40777   3.940   0.374   5.739  0.2737  0.2949 -0.1431
13109SOL    HW140778   3.979   0.422   5.812  1.0738  1.9813 -1.6062
13109SOL    HW240779   3.859   0.420   5.720 -1.0090 -1.3841  0.9340
13110SOL     OW40780   3.528   6.069   1.281 -0.2232 -0.2209 -0.1072
13110SOL    HW140781   3.575   5.985   1.281  1.7048  0.7978  0.1665
13110SOL    HW240782   3.493   6.077   1.193 -0.1344 -1.1412 -0.2427
13111SOL     OW40783   0.856   2.352   3.283  0.4896  0.1397 -0.1822
13111SOL    HW140784   0.936   2.324   3.240  0.6142  1.4329 -0.8549
13111SOL    HW240785   0.842   2.288   3.353  1.0279 -1.2147 -1.2808
13112SOL     OW40786   5.341   5.312   1.210  0.4152 -0.4602 -0.2420
13112SOL    HW140787   5.391   5.350   1.137  2.2779 -1.8064  0.2809
13112SOL    HW240788   5.402   5.312   1.283 -0.8414 -0.8565  0.8365
13113SOL     OW40789   0.613   4.456   1.523 -0.6156  0.0603  0.3247
13113SOL    HW140790   0.657   4.411   1.595  0.8856  0.8055 -0.0732
13113SOL    HW240791   0.523   4.467   1.553 -0.6841 -1.9151  1.0077
13114SOL     OW40792   1.227   8.972   8.054  0.3730 -0.3776 -0.3026
13114SOL    HW140793   1.234   8.884   8.017  0.5491 -0.7050  0.4790
13114SOL    HW240794   1.218   9.030   7.978  0.1230 -1.0812 -0.8173
13115SOL     OW40795   4.226   6.773   4.987 -0.4690 -0.0947  0.0697
13115SOL    HW140796   4.153   6.731   5.033 -0.7045  0.7888  0.5255
13115SOL    HW240797   4.185   6.825   4.918 -0.1213 -1.3473 -1.1287
13116SOL     OW40798   3.573   0.726   6.179 -0.2679  0.7040  0.0175
13116SOL    HW140799   3.589   0.764   6.265  0.6899 -1.5191  0.9118
13116SOL    HW240800   3.508   0.657   6.195  0.1749  0.0336 -0.9818
13117SOL     OW40801   1.097   4.221   2.283 -0.4962 -0.0871 -0.4941
13117SOL    HW140802   1.189   4.245   2.284 -0.9055  1.7715 -1.7139
13117SOL    HW240803   1.091   4.149   2.220  0.4516 -2.0946  1.5913
13118SOL     OW40804   8.890   8.554   1.472 -0.0480  0.1198  0.1137
13118SOL    HW140805   8.879   8.504   1.553 -1.0537  0.2568  0.0825
13118SOL    HW240806   8.899   8.645   1.502 -0.2955  0.1559  0.0810
13119SOL     OW40807   5.338   0.820   5.363 -0.3133 -0.2041  0.0844
13119SOL    HW140808   5.280   0.754   5.326 -0.4795  1.0110 -1.9840
13119SOL    HW240809   5.372   0.780   5.444 -1.0387 -2.4529 -0.6505
13120SOL     OW40810   4.898   2.695   2.963  0.2623 -0.6552 -0.2805
13120SOL    HW140811   4.891   2.762   2.895 -1.9374 -0.1373  0.3753
13120SOL    HW240812   4.891   2.743   3.046  2.2389 -1.3473  0.3316
13121SOL     OW40813   7.372   7.293   4.302 -0.2739  0.4616 -0.2765
13121SOL    HW140814   7.318   7.365   4.333 -0.2114  0.3624  0.0691
13121SOL    HW240815   7.428   7.332   4.235  2.2035  1.5952  2.2531
13122SOL     OW40816   0.127   5.898   0.789  0.2764  0.3036 -0.1949
13122SOL    HW140817   0.221   5.889   0.773  0.3407  1.6677 -0.7224
13122SOL    HW240818   0.099   5.966   0.728 -0.8218  0.7990  0.8235
13123SOL     OW40819   6.338   6.577   8.345  1.0936 -0.0441 -0.6329
13123SOL    HW140820   6.372   6.589   8.256  1.9436  2.0718 -0.0939
13123SOL    HW240821   6.300   6.662   8.367  0.1745 -0.7757  0.7669
13124SOL     OW40822   0.941   5.473   7.262 -0.0086  0.5822 -0.5751
13124SOL    HW140823   0.905   5.467   7.173  1.7872 -0.0217 -1.3032
13124SOL    HW240824   1.035   5.459   7.251  0.2373  0.3574  1.4527
13125SOL     OW40825   4.899   0.958   5.179 -0.4879  0.3190  0.3833
13125SOL    HW140826   4.806   0.937   5.191 -0.8426  1.5114 -0.0894
13125SOL    HW240827   4.927   0.992   5.263  0.1270 -1.9900  1.1995
13126SOL     OW40828   1.362   3.812   7.722  0.4055  0.0999 -0.5282
13126SOL    HW140829   1.380   3.830   7.630  1.6002 -2.3219 -0.8533
13126SOL    HW240830   1.306   3.734   7.720  1.0567 -0.4258  0.7888
13127SOL     OW40831   4.126   3.354   0.273  0.2927  0.7617 -0.2212
13127SOL    HW140832   4.031   3.337   0.272  0.3074  0.6356  0.2660
13127SOL    HW240833   4.136   3.431   0.328  0.7846 -1.3700  2.9531
13128SOL     OW40834   4.263   4.100   4.983  0.1709  0.0196 -0.6024
13128SOL    HW140835   4.243   4.146   4.902 -0.0512 -0.4198 -0.7978
13128SOL    HW240836   4.299   4.168   5.041  1.1173  0.1730 -1.3436
13129SOL     OW40837   3.265   2.243   9.204 -0.1889 -0.4319 -0.5229
13129SOL    HW140838   3.201   2.259   9.273 -0.3290 -0.3469 -0.6716
13129SOL    HW240839   3.335   2.195   9.247 -1.1554 -2.1305 -0.7404
13130SOL     OW40840   0.138   6.298   4.578 -0.0031  0.2267  0.2017
13130SOL    HW140841   0.065   6.327   4.633 -0.2258 -1.8640  1.0972
13130SOL    HW240842   0.201   6.260   4.640  0.5931 -0.4892 -0.8233
13131SOL     OW40843   1.774   4.809   5.527  1.0572 -0.1481  0.0113
13131SOL    HW140844   1.817   4.894   5.538  1.1624 -0.4667  2.8504
13131SOL    HW240845   1.691   4.829   5.485  0.5457  1.5684  1.7298
13132SOL     OW40846   3.999   2.451   6.059  0.7213  0.0510 -0.4222
13132SOL    HW140847   4.012   2.378   6.119 -0.3178  0.4683  0.3339
13132SOL    HW240848   3.906   2.449   6.038  0.5182  1.5899  0.2118
13133SOL     OW40849   8.809   7.428   5.813  0.0449 -0.2185 -0.2159
13133SOL    HW140850   8.838   7.347   5.771  0.6969 -0.3303  0.4218
13133SOL    HW240851   8.717   7.412   5.833 -0.0568 -0.4717 -0.8619
13134SOL     OW40852   6.141   7.464   6.130  0.3247 -0.2492  0.3251
13134SOL    HW140853   6.208   7.456   6.063 -0.4824 -2.3046 -0.3133
13134SOL    HW240854   6.189   7.466   6.213  1.2038 -0.4455 -0.1740
13135SOL     OW40855   8.450   0.283   6.212 -0.0302 -0.1815  0.7850
13135SOL    HW140856   8.498   0.362   6.186  1.4375 -0.5238  2.3121
13135SOL    HW240857   8.447   0.230   6.133  0.8295  0.4900  0.2799
13136SOL     OW40858   0.867   7.160   6.119  0.2804  0.1869  0.6153
13136SOL    HW140859   0.772   7.154   6.116  0.2386 -0.5957  2.1154
13136SOL    HW240860   0.890   7.226   6.054 -1.2783  0.3470  0.1984
13137SOL     OW40861   1.893   2.233   2.085  0.2248  0.1868 -0.2445
13137SOL    HW140862   1.910   2.308   2.028  1.8178 -0.2912 -0.4737
13137SOL    HW240863   1.955   2.245   2.158 -0.6798 -0.0402  0.5739
13138SOL     OW40864   8.503   8.583   8.267 -0.5040 -0.5170 -0.1525
13138SOL    HW140865   8.524   8.588   8.360 -0.8131 -0.7487 -0.0699
13138SOL    HW240866   8.579   8.623   8.223 -1.1708  1.3373  0.2879
13139SOL     OW40867   1.126   6.584   5.872  0.0477  0.2970 -0.8914
13139SOL    HW140868   1.099   6.615   5.959  0.4392  0.5677 -0.8627
13139SOL    HW240869   1.045   6.555   5.831 -0.2056  0.5817 -0.6020
13140SOL     OW40870   3.098   6.247   6.082  0.1102 -0.6551 -0.1248
13140SOL    HW140871   3.059   6.165   6.111  0.7173 -1.1606 -0.7052
13140SOL    HW240872   3.132   6.228   5.994 -0.9289  0.5842 -0.8495
13141SOL     OW40873   7.782   6.010   2.234  0.3913 -0.6599 -0.2245
13141SOL    HW140874   7.688   6.018   2.218  0.1032 -2.0583  0.6763
13141SOL    HW240875   7.797   5.917   2.251  2.1325 -0.6789 -1.4653
13142SOL     OW40876   6.018   3.558   7.573 -0.1049  0.2553  0.2839
13142SOL    HW140877   6.008   3.557   7.478 -0.7740  0.4547  0.3453
13142SOL    HW240878   6.044   3.469   7.596 -1.9622 -0.3831  0.1030
13143SOL     OW40879   5.478   1.651   0.661 -0.0526  0.1118  0.1673
13143SOL    HW140880   5.436   1.710   0.723 -1.8609 -0.3477 -0.5464
13143SOL    HW240881   5.427   1.570   0.667 -0.2313  0.0303 -1.8213
13144SOL     OW40882   4.348   8.772   2.573  0.0587  0.1611 -0.1120
13144SOL    HW140883   4.278   8.743   2.632  0.0002 -1.7813 -1.0449
13144SOL    HW240884   4.424   8.720   2.600  0.3825  0.2352 -0.8814
13145SOL     OW40885   5.013   5.223   8.144  0.2228  0.3348  0.3922
13145SOL    HW140886   5.074   5.160   8.183 -0.5358 -2.3624 -2.3872
13145SOL    HW240887   5.052   5.246   8.060 -0.9138  1.3574  0.1103
13146SOL     OW40888   6.455   0.367   4.120 -0.4797 -0.6182  0.1626
13146SOL    HW140889   6.550   0.372   4.119 -0.5397  1.1590 -1.1429
13146SOL    HW240890   6.425   0.454   4.095 -2.4608 -1.1526  0.4350
13147SOL     OW40891   1.590   7.511   3.620 -0.2867  0.2238 -0.6484
13147SOL    HW140892   1.633   7.542   3.700 -0.9353  1.4842 -0.7450
13147SOL    HW240893   1.605   7.417   3.619  0.0710  0.2388  0.7584
13148SOL     OW40894   8.613   2.532   0.069 -0.2520  0.6592  0.5907
13148SOL    HW140895   8.652   2.445   0.070  0.7480  1.0409 -1.1218
13148SOL    HW240896   8.678   2.588   0.110 -0.0644  0.9026 -0.0332
13149SOL     OW40897   1.012   6.081   0.865  0.1414 -0.1445  0.6744
13149SOL    HW140898   1.024   6.024   0.789 -0.0976 -0.6197  0.9848
13149SOL    HW240899   0.918   6.101   0.866  0.4419  1.5213 -0.3090
13150SOL     OW40900   1.002   0.337   8.450  0.2380 -0.5573 -0.4403
13150SOL    HW140901   0.999   0.245   8.474  0.0464 -0.6990 -1.0005
13150SOL    HW240902   1.079   0.345   8.394 -0.7025 -0.7321 -1.8126
13151SOL     OW40903   1.339   4.007   8.612 -0.1807 -0.0716 -0.7909
13151SOL    HW140904   1.267   4.064   8.641 -0.0749 -0.5588  0.4968
13151SOL    HW240905   1.295   3.929   8.579 -0.3088  0.5453 -2.1489
13152SOL     OW40906   6.651   7.020   5.732 -0.2004  0.0351  0.0706
13152SOL    HW140907   6.592   7.096   5.735 -0.1898  0.0436  0.0576
13152SOL    HW240908   6.647   6.989   5.642 -1.7921 -1.2392  0.5342
13153SOL     OW40909   7.406   7.327   0.929  0.0393  0.1267  0.7414
13153SOL    HW140910   7.321   7.294   0.899  0.1724 -1.3271  1.8695
13153SOL    HW240911   7.469   7.285   0.871  0.1697 -1.2537  1.8328
13154SOL     OW40912   0.879   5.363   5.303 -0.0944  0.1095 -0.4745
13154SOL    HW140913   0.966   5.328   5.323  0.5160  1.5064 -0.5357
13154SOL    HW240914   0.880   5.451   5.340 -1.6928 -0.0479 -0.0198
13155SOL     OW40915   4.531   7.776   6.294 -0.4199 -0.0585 -0.5061
13155SOL    HW140916   4.576   7.852   6.331 -0.1002  0.5381 -2.0485
13155SOL    HW240917   4.570   7.701   6.338  0.3362  0.5914 -0.0410
13156SOL     OW40918   9.000   5.125   6.909  0.1090 -0.1512  0.0226
13156SOL    HW140919   9.038   5.117   6.996 -1.0152 -0.9802  0.4637
13156SOL    HW240920   8.907   5.105   6.921 -0.2629  0.7094 -1.1982
13157SOL     OW40921   8.669   5.136   7.464 -0.0125 -0.7584  0.2391
13157SOL    HW140922   8.723   5.098   7.395  1.2223  0.8142  0.2885
13157SOL    HW240923   8.711   5.108   7.545 -0.8411 -1.7133  0.3611
13158SOL     OW40924   3.037   0.789   0.881  0.0534  0.2612  0.3448
13158SOL    HW140925   3.045   0.740   0.799  0.7649 -0.4539  0.8285
13158SOL    HW240926   2.975   0.738   0.933  0.7318 -0.0959  0.8165
13159SOL     OW40927   3.374   4.876   8.826 -0.2795  0.0166 -0.7053
13159SOL    HW140928   3.422   4.902   8.905 -2.2723  1.0272  0.2613
13159SOL    HW240929   3.351   4.784   8.840 -1.9582  0.5892  0.7058
13160SOL     OW40930   6.144   0.559   5.500 -0.0409 -0.1889 -0.5833
13160SOL    HW140931   6.158   0.609   5.580 -1.0530  0.1059 -0.5793
13160SOL    HW240932   6.221   0.503   5.493  1.2595  1.5448 -0.7313
13161SOL     OW40933   5.843   7.289   5.428  0.6192 -0.3380 -0.1658
13161SOL    HW140934   5.830   7.214   5.486  0.7602 -0.8704 -0.8042
13161SOL    HW240935   5.817   7.257   5.342  0.2024  0.5069 -0.3612
13162SOL     OW40936   2.931   5.672   0.393 -0.2342 -0.8555  0.2535
13162SOL    HW140937   3.002   5.609   0.390 -1.1242 -1.8547 -1.6819
13162SOL    HW240938   2.876   5.643   0.466  1.3811  0.0655  1.9224
13163SOL     OW40939   4.293   0.879   7.418  0.1202  0.2494  0.5499
13163SOL    HW140940   4.299   0.785   7.430 -1.0468 -0.1345 -1.3521
13163SOL    HW240941   4.252   0.911   7.498 -0.5531 -1.0362  0.7477
13164SOL     OW40942   2.312   7.314   5.483  0.3384  0.3685  0.0163
13164SOL    HW140943   2.329   7.255   5.410 -1.4163 -1.3073  0.8987
13164SOL    HW240944   2.229   7.356   5.462  0.6761  1.1982  0.2686
13165SOL     OW40945   4.268   1.643   6.774 -0.2222 -0.5015  0.2345
13165SOL    HW140946   4.311   1.713   6.724 -2.5160  0.0749 -1.0530
13165SOL    HW240947   4.337   1.578   6.788  1.6874  1.4537  0.4504
13166SOL     OW40948   8.085   6.491   7.591 -0.0847  0.0462  0.2146
13166SOL    HW140949   8.035   6.571   7.607 -0.1028 -0.3348  2.3943
13166SOL    HW240950   8.163   6.521   7.546 -0.3974  1.2140  0.4021
13167SOL     OW40951   4.478   7.387   3.172 -0.2593 -0.2512  0.5791
13167SOL    HW140952   4.562   7.343   3.182 -0.1533  0.1462  1.5121
13167SOL    HW240953   4.454   7.415   3.260 -1.3459 -0.3070  0.3208
13168SOL     OW40954   5.510   7.757   3.390 -0.5395  0.2769  0.0275
13168SOL    HW140955   5.501   7.662   3.403  0.4888  0.0605 -0.7869
13168SOL    HW240956   5.547   7.789   3.472 -0.2246 -0.1244  0.0422
13169SOL     OW40957   0.653   6.707   8.964 -0.2363 -0.0789 -0.2535
13169SOL    HW140958   0.615   6.683   9.048  0.1462  0.5193  0.0927
13169SOL    HW240959   0.595   6.667   8.899 -1.4788  0.8234  0.2650
13170SOL     OW40960   0.251   5.337   5.065 -0.6271  0.2815 -0.0020
13170SOL    HW140961   0.316   5.357   5.132 -0.6578 -1.1777  0.5131
13170SOL    HW240962   0.218   5.250   5.090 -0.2537 -0.5515 -2.2112
13171SOL     OW40963   7.235   5.932   2.956  0.1851  0.3640 -0.8491
13171SOL    HW140964   7.194   5.976   3.031 -0.3321  0.6172 -1.2724
13171SOL    HW240965   7.182   5.854   2.942  1.3217 -0.6158  0.1320
13172SOL     OW40966   6.687   0.692   0.669 -0.1000 -0.2533 -0.2302
13172SOL    HW140967   6.596   0.720   0.678  0.0467  0.0105  0.5108
13172SOL    HW240968   6.738   0.767   0.700  0.3253 -1.0204  0.9974
13173SOL     OW40969   6.780   2.894   1.397  0.2955  0.4783  0.5369
13173SOL    HW140970   6.767   2.956   1.468  1.5995 -0.4184  1.6233
13173SOL    HW240971   6.863   2.920   1.357  0.6192 -0.2484  0.7073
13174SOL     OW40972   2.203   7.617   9.038  0.2900 -0.3120  0.2812
13174SOL    HW140973   2.121   7.579   9.069  0.0691  0.4001  0.5748
13174SOL    HW240974   2.176   7.684   8.975  0.6643 -0.2927  0.1378
13175SOL     OW40975   4.194   7.750   1.600 -0.1827  0.1133 -0.0010
13175SOL    HW140976   4.147   7.776   1.679  1.6050  0.3782  1.0504
13175SOL    HW240977   4.150   7.670   1.571 -0.4131 -0.4361  1.7280
13176SOL     OW40978   2.700   1.367   0.209 -0.0983  0.5730  0.0273
13176SOL    HW140979   2.720   1.451   0.167 -1.1807  1.1683  0.6389
13176SOL    HW240980   2.647   1.391   0.285 -3.9012 -0.8247 -1.9017
13177SOL     OW40981   3.974   3.200   1.123 -0.1549 -0.3379  0.5217
13177SOL    HW140982   3.997   3.291   1.106 -0.4560  0.4322  3.5935
13177SOL    HW240983   3.881   3.194   1.103  0.4528 -0.8938 -2.6417
13178SOL     OW40984   1.966   4.475   4.256  0.4860  0.1846  0.0253
13178SOL    HW140985   2.007   4.503   4.337  0.8776  0.1475 -0.1583
13178SOL    HW240986   2.039   4.464   4.194  0.2200 -0.0567 -0.2501
13179SOL     OW40987   7.112   7.448   0.801  0.0292  0.0438  0.3271
13179SOL    HW140988   7.124   7.474   0.892  0.9250 -0.6530  0.4152
13179SOL    HW240989   7.026   7.406   0.800 -0.8343  1.6837  0.4540
13180SOL     OW40990   3.438   7.843   4.119 -0.4251  0.8886  0.3777
13180SOL    HW140991   3.502   7.792   4.069 -2.9710  0.2582 -2.5465
13180SOL    HW240992   3.478   7.930   4.126  0.6380  0.6421 -1.6967
13181SOL     OW40993   6.519   4.672   0.181  0.2737  0.4169  0.0745
13181SOL    HW140994   6.609   4.684   0.149  0.1527  0.9433 -0.0703
13181SOL    HW240995   6.475   4.755   0.162 -0.7027 -0.3942 -1.3850
13182SOL     OW40996   2.924   4.631   9.239 -0.2776 -0.2441  0.1807
13182SOL    HW140997   2.915   4.658   9.331  2.4202  2.5490 -0.2122
13182SOL    HW240998   2.853   4.677   9.194  0.5721  1.3949  0.4290
13183SOL     OW40999   6.242   8.424   7.957  0.0428 -0.0304  0.3745
13183SOL    HW141000   6.261   8.455   7.869 -1.2917 -0.1283  0.0224
13183SOL    HW241001   6.151   8.393   7.952 -0.4036  0.8892  2.0214
13184SOL     OW41002   8.303   2.698   8.998 -0.3412 -0.1273  0.0589
13184SOL    HW141003   8.338   2.732   8.915 -1.7922  0.8966 -0.1927
13184SOL    HW241004   8.377   2.700   9.058  1.3098 -2.7783 -1.6601
13185SOL     OW41005   5.987   6.116   7.860 -0.1324 -0.0683  0.0817
13185SOL    HW141006   5.970   6.172   7.785  0.0237 -1.5409 -1.1136
13185SOL    HW241007   6.079   6.133   7.883  0.0220 -0.0753 -0.5065
13186SOL     OW41008   1.545   8.259   2.561  0.5843  0.5435  0.4727
13186SOL    HW141009   1.597   8.263   2.641 -1.0479  3.4031  1.5289
13186SOL    HW241010   1.597   8.306   2.496  0.9103  0.1824  0.4657
13187SOL     OW41011   5.373   4.468   0.118  0.2559 -0.3517  0.3343
13187SOL    HW141012   5.390   4.542   0.060 -4.0443  0.4212 -0.2471
13187SOL    HW241013   5.334   4.507   0.196 -0.5446 -1.8833  0.7318
13188SOL     OW41014   5.465   8.422   6.315  0.1186 -0.4567 -0.3622
13188SOL    HW141015   5.475   8.499   6.259  0.6534 -0.2800 -0.0291
13188SOL    HW241016   5.379   8.387   6.292 -1.0603  1.4135  0.9480
13189SOL     OW41017   5.513   0.184   8.050  0.4792 -0.5912 -0.6263
13189SOL    HW141018   5.554   0.225   8.127  0.2925 -0.5045 -0.5718
13189SOL    HW241019   5.420   0.206   8.058  0.3857 -0.9797 -0.6300
13190SOL     OW41020   7.339   4.970   6.962 -0.0873 -0.1266 -0.7327
13190SOL    HW141021   7.352   4.940   7.052 -0.3838  0.9817 -0.3091
13190SOL    HW241022   7.409   5.033   6.947  0.4803 -0.9230 -1.5883
13191SOL     OW41023   3.796   0.212   1.224  0.0902  0.0828 -0.5857
13191SOL    HW141024   3.790   0.158   1.145 -2.7493 -2.5066  1.1713
13191SOL    HW241025   3.851   0.161   1.283 -2.5939 -1.0928  1.0875
13192SOL     OW41026   8.333   0.567   4.172  0.2492 -0.3165  0.4433
13192SOL    HW141027   8.255   0.620   4.190  0.7338  0.3554  0.6062
13192SOL    HW241028   8.380   0.565   4.256  0.9213  0.1450  0.0836
13193SOL     OW41029   4.233   4.536   4.552  0.1013 -0.7379  0.3401
13193SOL    HW141030   4.240   4.441   4.540  0.3259 -0.6132 -0.5371
13193SOL    HW241031   4.311   4.560   4.601  0.3134 -0.9331  0.1003
13194SOL     OW41032   3.203   0.848   1.108  0.2193  0.1149  0.5836
13194SOL    HW141033   3.243   0.766   1.079  0.8522  0.3896  0.6516
13194SOL    HW241034   3.126   0.859   1.052  0.0278 -0.6152  0.6975
13195SOL     OW41035   2.007   1.373   8.255 -0.2752 -0.6606 -0.3833
13195SOL    HW141036   2.060   1.293   8.250 -1.3166 -1.3005 -2.1258
13195SOL    HW241037   2.033   1.423   8.178 -1.8970 -0.8089 -1.0476
13196SOL     OW41038   2.737   7.400   9.099  0.4316  0.7603  0.1323
13196SOL    HW141039   2.781   7.485   9.105 -0.1181  1.1444 -0.9606
13196SOL    HW241040   2.699   7.399   9.012  0.7713 -0.8006 -0.0241
13197SOL     OW41041   4.766   2.667   7.849  0.1288 -0.4202  0.1303
13197SOL    HW141042   4.687   2.696   7.894 -0.3782  0.1303 -1.0973
13197SOL    HW241043   4.765   2.572   7.858 -1.4136 -0.5413 -1.0698
13198SOL     OW41044   0.673   4.784   1.047  0.1568 -0.6462 -0.2119
13198SOL    HW141045   0.731   4.717   1.011  0.3546  0.1076 -1.3411
13198SOL    HW241046   0.639   4.830   0.971  0.6659  1.0690  0.5490
13199SOL     OW41047   6.788   5.805   1.680  0.4018 -0.1430 -0.2030
13199SOL    HW141048   6.751   5.781   1.765 -0.5488 -2.8040 -1.2620
13199SOL    HW241049   6.882   5.797   1.692  0.2864 -0.2888  0.6621
13200SOL     OW41050   4.795   8.004   2.566  0.2523 -0.5074 -0.1497
13200SOL    HW141051   4.761   7.996   2.655  1.8895 -2.3386  0.3895
13200SOL    HW241052   4.848   8.084   2.567 -0.1288 -0.2602  0.3951
13201SOL     OW41053   0.198   3.018   1.742 -0.1478 -0.3048 -0.0672
13201SOL    HW141054   0.210   3.065   1.659  0.8750 -1.4829 -0.6274
13201SOL    HW241055   0.261   3.060   1.802 -1.8825  1.5064  0.6004
13202SOL     OW41056   9.013   9.150   8.302  0.5478 -0.1201 -0.0481
13202SOL    HW141057   9.098   9.190   8.283 -0.1588  1.4255 -0.0710
13202SOL    HW241058   8.952   9.224   8.306 -0.6238 -1.1058  0.9594
13203SOL     OW41059   4.458   6.700   5.101  0.1410 -0.0093 -0.3254
13203SOL    HW141060   4.429   6.613   5.128  0.9864 -0.1267  0.2517
13203SOL    HW241061   4.379   6.742   5.067 -0.4150 -0.7705 -0.0107
13204SOL     OW41062   5.881   0.906   7.040  0.5831  0.4249 -0.1810
13204SOL    HW141063   5.819   0.839   7.071  0.4731  0.8059  0.4392
13204SOL    HW241064   5.931   0.930   7.119  0.2405  1.4808 -0.2756
13205SOL     OW41065   3.097   6.513   1.892  0.5217 -0.4435 -0.4599
13205SOL    HW141066   3.087   6.577   1.823 -0.2862 -1.2797 -1.1382
13205SOL    HW241067   3.182   6.471   1.874 -0.6787 -2.2613 -2.3761
13206SOL     OW41068   3.476   2.058   8.528 -0.0167  0.5670 -0.2684
13206SOL    HW141069   3.515   2.110   8.598 -1.3569 -0.8334  1.6285
13206SOL    HW241070   3.529   1.979   8.524 -1.7844 -0.8319  1.5366
13207SOL     OW41071   0.869   2.933   8.579 -0.1103 -0.3221 -0.2133
13207SOL    HW141072   0.775   2.952   8.580 -0.0841 -0.1456 -0.6811
13207SOL    HW241073   0.883   2.875   8.654 -0.6326 -0.5386 -0.2795
13208SOL     OW41074   1.365   9.267   9.007 -0.6903  0.0174 -0.2799
13208SOL    HW141075   1.432   9.204   8.982 -1.2828 -0.8040  0.1388
13208SOL    HW241076   1.366   9.333   8.938 -0.9602 -1.1497 -1.4387
13209SOL     OW41077   8.206   5.544   4.834  0.1564 -0.1600  0.1419
13209SOL    HW141078   8.292   5.547   4.877  0.5032 -0.3532 -0.5218
13209SOL    HW241079   8.225   5.560   4.742 -0.5803  0.2489  0.0551
13210SOL     OW41080   7.736   6.124   7.687  0.0049  0.5366  0.1141
13210SOL    HW141081   7.658   6.154   7.733 -1.3634  0.0673 -1.7674
13210SOL    HW241082   7.807   6.133   7.751 -1.6274  0.6766  1.9958
13211SOL     OW41083   2.305   5.493   0.728  0.4294  0.4698  0.2183
13211SOL    HW141084   2.344   5.476   0.642  0.2322  3.1966 -0.4885
13211SOL    HW241085   2.293   5.406   0.766 -1.0050 -1.0240 -3.1835
13212SOL     OW41086   5.741   5.816   3.279  0.0196  0.0259 -0.0024
13212SOL    HW141087   5.721   5.908   3.267  1.2571  0.3604  0.3883
13212SOL    HW241088   5.712   5.797   3.368 -0.1801  0.0558 -0.0617
13213SOL     OW41089   2.804   4.359   3.432 -0.4753  0.8793  0.9778
13213SOL    HW141090   2.786   4.335   3.523  1.6542 -1.0833  0.9683
13213SOL    HW241091   2.899   4.373   3.429 -0.0546 -1.6407 -1.4057
13214SOL     OW41092   6.753   2.145   5.138 -0.5592  0.0851 -0.4976
13214SOL    HW141093   6.749   2.156   5.043 -0.8709 -1.0723 -0.6336
13214SOL    HW241094   6.844   2.163   5.160 -0.6958  1.3452 -0.8682
13215SOL     OW41095   0.154   2.743   2.380  0.2453  0.6212  0.4312
13215SOL    HW141096   0.094   2.673   2.405 -0.8906  1.4722  0.1227
13215SOL    HW241097   0.190   2.715   2.296  2.0540 -0.9713  1.6392
13216SOL     OW41098   2.330   6.636   2.059  0.4011 -0.0726 -0.0294
13216SOL    HW141099   2.282   6.571   2.110 -0.9341  1.2761  0.4948
13216SOL    HW241100   2.385   6.584   2.000  1.2561 -1.6783  2.0648
13217SOL     OW41101   6.269   3.380   7.175  0.0754 -0.7339  0.2449
13217SOL    HW141102   6.296   3.469   7.196 -0.8411 -0.5056  0.4857
13217SOL    HW241103   6.314   3.360   7.093  0.3746 -0.0944  0.2474
13218SOL     OW41104   2.960   1.276   7.328  0.7387 -0.6369  0.1888
13218SOL    HW141105   3.036   1.239   7.371  0.8092 -1.1428 -0.3563
13218SOL    HW241106   2.994   1.315   7.248  0.6321  0.4351  0.6524
13219SOL     OW41107   6.664   1.503   8.216 -0.0330 -0.1638  0.0947
13219SOL    HW141108   6.605   1.517   8.141 -1.0471  0.8965  1.0518
13219SOL    HW241109   6.726   1.437   8.185  0.1923  0.9361 -2.0261
13220SOL     OW41110   6.560   2.108   3.559  0.1446  0.1658 -0.1116
13220SOL    HW141111   6.596   2.160   3.631 -1.0176  0.3149  0.3986
13220SOL    HW241112   6.635   2.088   3.504  0.8671  1.1227  0.4769
13221SOL     OW41113   1.899   7.222   4.368 -0.0405  0.0566 -0.0668
13221SOL    HW141114   1.875   7.285   4.300 -0.5315  0.5547  0.5565
13221SOL    HW241115   1.982   7.255   4.403 -0.3803  0.4482  0.3707
13222SOL     OW41116   7.321   5.316   6.809 -0.2495 -0.3366 -0.0083
13222SOL    HW141117   7.403   5.351   6.773 -0.6908  0.2175 -0.5135
13222SOL    HW241118   7.290   5.256   6.741 -0.6741  0.0880 -0.1942
13223SOL     OW41119   6.286   6.210   6.505 -0.1475  0.0277  0.2048
13223SOL    HW141120   6.212   6.166   6.464 -0.2759  0.1005  0.3624
13223SOL    HW241121   6.300   6.288   6.451  1.1287 -1.0336 -1.0970
13224SOL     OW41122   7.754   5.045   3.249 -0.4927  0.6448 -0.5726
13224SOL    HW141123   7.807   5.105   3.197  1.0393 -0.7669 -0.7062
13224SOL    HW241124   7.787   5.054   3.338 -0.2639  0.0546 -0.5884
13225SOL     OW41125   4.657   1.328   6.731  0.1385  0.1815  0.2654
13225SOL    HW141126   4.708   1.409   6.722 -0.3579  0.6949  1.6861
13225SOL    HW241127   4.709   1.274   6.790  0.5903 -0.6629 -0.8851
13226SOL     OW41128   4.005   0.563   6.128 -0.2028  0.4249  0.4895
13226SOL    HW141129   4.016   0.496   6.195  2.3749  1.0699  0.8350
13226SOL    HW241130   4.023   0.645   6.173 -1.3081  1.1811 -0.3836
13227SOL     OW41131   1.501   0.349   1.648 -0.5432  0.0464  0.1729
13227SOL    HW141132   1.441   0.294   1.596  0.1633  0.4851 -1.1484
13227SOL    HW241133   1.588   0.328   1.614 -0.1367  0.9709  0.6061
13228SOL     OW41134   2.258   1.902   8.043  0.0787  0.1543  0.7428
13228SOL    HW141135   2.261   1.809   8.065 -2.6968 -0.0694  0.5271
13228SOL    HW241136   2.210   1.905   7.959 -0.2075  1.7820  0.9273
13229SOL     OW41137   1.331   3.983   4.436 -0.4176 -0.4530  0.4725
13229SOL    HW141138   1.265   3.953   4.374 -1.2418  0.4803  0.8785
13229SOL    HW241139   1.371   3.902   4.468 -0.3509 -0.9595 -0.8594
13230SOL     OW41140   8.315   2.589   3.163  0.1699 -1.0986 -0.2753
13230SOL    HW141141   8.352   2.594   3.252  1.1615 -2.7856 -0.5638
13230SOL    HW241142   8.391   2.581   3.106 -0.5370 -1.6737 -1.1499
13231SOL     OW41143   4.632   0.980   3.152  0.1594  0.0446 -0.1084
13231SOL    HW141144   4.549   0.944   3.121 -0.1466 -0.2843  1.0482
13231SOL    HW241145   4.668   0.912   3.209 -0.0559  1.2337  1.5017
13232SOL     OW41146   5.509   9.235   7.900 -0.6333 -0.5443 -0.0677
13232SOL    HW141147   5.499   9.321   7.942  0.6205 -1.0836  1.3859
13232SOL    HW241148   5.600   9.233   7.871  0.0556 -2.2270  1.9569
13233SOL     OW41149   0.161   6.067   5.828 -0.3531  0.1724 -0.7041
13233SOL    HW141150   0.112   6.086   5.908  0.4589 -2.6196  0.5876
13233SOL    HW241151   0.132   5.980   5.802  1.1269  0.0405 -2.0981
13234SOL     OW41152   2.719   1.067   0.554  0.2835  0.1502 -0.2095
13234SOL    HW141153   2.637   1.116   0.557  0.6356  0.7013  0.9726
13234SOL    HW241154   2.747   1.061   0.646  1.1096 -0.8047 -0.5053
13235SOL     OW41155   9.209   0.189   7.594 -0.0171 -0.1823 -0.1457
13235SOL    HW141156   9.210   0.150   7.507  0.0310 -0.9055  0.1732
13235SOL    HW241157   9.162   0.271   7.583 -0.7778 -0.6820 -0.6757
13236SOL     OW41158   6.641   4.445   0.276  0.2177  0.5867 -0.6293
13236SOL    HW141159   6.574   4.513   0.279  0.5162  0.8906  2.6325
13236SOL    HW241160   6.709   4.475   0.336  2.4138 -0.6376 -2.3402
13237SOL     OW41161   1.812   4.153   1.222  0.0436 -0.1212 -0.3586
13237SOL    HW141162   1.749   4.199   1.277 -0.3217 -0.2113 -0.6986
13237SOL    HW241163   1.868   4.105   1.284 -0.0148  0.2163 -0.0425
13238SOL     OW41164   4.733   2.064   6.323 -0.0365  0.1287 -0.1213
13238SOL    HW141165   4.682   1.984   6.331  0.9481 -0.4697  0.5003
13238SOL    HW241166   4.673   2.134   6.349 -1.1747 -0.2924 -1.5397
13239SOL     OW41167   5.212   1.646   4.499  0.2669 -0.0883  0.3983
13239SOL    HW141168   5.140   1.640   4.436 -0.2076 -0.3875  0.9746
13239SOL    HW241169   5.288   1.613   4.451 -0.5685 -2.6830  0.7452
13240SOL     OW41170   9.002   6.178   0.807  0.1075 -0.2849 -0.1517
13240SOL    HW141171   8.952   6.097   0.798  0.0120 -0.0891 -1.7993
13240SOL    HW241172   9.038   6.175   0.895  1.1607 -2.7538 -0.5856
13241SOL     OW41173   1.468   3.883   8.817 -0.4130 -0.2172  0.4380
13241SOL    HW141174   1.417   3.910   8.741  0.4426 -1.8289 -0.8007
13241SOL    HW241175   1.414   3.905   8.893 -2.1865 -0.3411 -0.7320
13242SOL     OW41176   5.415   3.837   2.980  0.2475  0.4975  0.4841
13242SOL    HW141177   5.473   3.867   2.911  1.2590 -0.9077  0.6791
13242SOL    HW241178   5.460   3.861   3.061  0.3271 -0.1566  0.6368
13243SOL     OW41179   1.767   1.638   3.459  0.7043  0.8631  0.5196
13243SOL    HW141180   1.769   1.725   3.421  0.1804  0.7522  0.2294
13243SOL    HW241181   1.685   1.600   3.429  1.8728 -0.5309 -1.1255
13244SOL     OW41182   9.149   8.270   3.514  0.1082 -0.2880  0.4613
13244SOL    HW141183   9.189   8.357   3.516 -0.3939 -0.0132 -0.6746
13244SOL    HW241184   9.075   8.279   3.454 -0.1246 -1.4287  0.5606
13245SOL     OW41185   4.409   8.066   1.536  0.2652 -0.0469 -0.2146
13245SOL    HW141186   4.461   8.009   1.480 -0.7090  0.7659 -2.0299
13245SOL    HW241187   4.321   8.029   1.533 -0.1808  1.0058 -0.6788
13246SOL     OW41188   5.955   0.450   0.525  0.1687  0.2076  0.2882
13246SOL    HW141189   5.884   0.416   0.579  0.6172 -0.1169  0.6822
13246SOL    HW241190   5.934   0.420   0.437 -1.1551  1.6759  0.0570
13247SOL     OW41191   7.431   0.345   2.644 -0.2818  0.1011 -0.1068
13247SOL    HW141192   7.425   0.393   2.727  0.3623  0.5690 -0.3278
13247SOL    HW241193   7.360   0.281   2.649 -1.7901  1.7004 -0.2454
13248SOL     OW41194   4.412   6.051   5.451 -0.2963 -0.6614 -0.3816
13248SOL    HW141195   4.376   6.133   5.485  0.2817  0.2399 -1.8347
13248SOL    HW241196   4.345   5.986   5.470 -0.8105  0.1524  0.7183
13249SOL     OW41197   9.276   1.255   2.383  0.2171  0.1856 -0.3539
13249SOL    HW141198   9.181   1.268   2.374  0.3963  0.6664 -1.6586
13249SOL    HW241199   9.308   1.340   2.413  0.3247  0.2334 -0.6054
13250SOL     OW41200   7.888   0.272   4.162  0.3795 -0.7699  0.3611
13250SOL    HW141201   7.967   0.315   4.195  0.8296 -1.1620 -0.2019
13250SOL    HW241202   7.902   0.266   4.068 -0.5520 -0.3807  0.1910
13251SOL     OW41203   7.797   9.126   4.546 -0.0926  1.0270 -0.4487
13251SOL    HW141204   7.839   9.210   4.526  1.7946  0.0788 -0.6935
13251SOL    HW241205   7.867   9.062   4.538 -0.7652 -0.2704  2.5933
13252SOL     OW41206   1.921   1.457   3.012  0.5718  0.4844 -0.7281
13252SOL    HW141207   1.893   1.532   2.960  0.1315  0.3340 -0.7164
13252SOL    HW241208   1.941   1.493   3.098 -1.3370  0.3574 -0.1830
13253SOL     OW41209   1.316   3.468   4.420  0.5792  0.1194 -0.0516
13253SOL    HW141210   1.269   3.387   4.440  1.0296 -0.4462 -1.1752
13253SOL    HW241211   1.405   3.440   4.399  0.9614  0.9992  0.3450
13254SOL     OW41212   1.261   3.880   6.070  0.4587 -0.2128  0.2622
13254SOL    HW141213   1.267   3.964   6.024  2.3517  0.8854  2.3194
13254SOL    HW241214   1.271   3.902   6.162  2.8170 -2.8090  0.7698
13255SOL     OW41215   4.307   1.797   3.387  0.1730 -0.2514 -0.1299
13255SOL    HW141216   4.385   1.743   3.401  0.8316 -0.2055 -2.9676
13255SOL    HW241217   4.309   1.818   3.294 -3.6064 -0.8330 -0.5203
13256SOL     OW41218   4.974   2.795   5.235  0.5325  0.9263  0.4488
13256SOL    HW141219   5.053   2.794   5.289  0.6563  0.5825  0.2648
13256SOL    HW241220   4.917   2.729   5.274  0.8372  0.2910 -0.1443
13257SOL     OW41221   3.036   1.145   4.695 -0.1728  0.3067  0.0087
13257SOL    HW141222   3.100   1.133   4.625 -0.0190  0.6194  0.0897
13257SOL    HW241223   3.062   1.081   4.762 -1.2915 -1.1276 -0.8709
13258SOL     OW41224   7.170   8.068   1.020 -0.3610  0.3260 -0.1636
13258SOL    HW141225   7.091   8.050   1.071 -1.0540  0.2488 -1.2248
13258SOL    HW241226   7.149   8.036   0.932  0.9317  0.1262 -0.4182
13259SOL     OW41227   5.702   6.871   5.826  0.7298  0.3968  0.3203
13259SOL    HW141228   5.750   6.907   5.900  2.3690  0.4353 -0.6975
13259SOL    HW241229   5.611   6.871   5.853  1.3542 -0.2845  2.5998
13260SOL     OW41230   1.241   6.274   3.602  0.1611  0.2445  0.0463
13260SOL    HW141231   1.154   6.245   3.576  1.2813 -3.5571 -0.0856
13260SOL    HW241232   1.246   6.253   3.696  1.1146 -0.2779 -0.1033
13261SOL     OW41233   8.277   6.641   3.240 -0.0003 -0.7855 -0.6544
13261SOL    HW141234   8.324   6.723   3.223  0.1897 -0.6823  0.2784
13261SOL    HW241235   8.218   6.663   3.312 -1.3069 -0.9870 -1.6469
13262SOL     OW41236   6.120   6.548   3.685 -0.4437 -0.3706  0.3133
13262SOL    HW141237   6.111   6.643   3.683 -1.8054 -0.4866  0.1544
13262SOL    HW241238   6.160   6.529   3.770 -1.6613  0.2384  1.0465
13263SOL     OW41239   6.314   8.825   6.050  0.3712  0.3083  0.1054
13263SOL    HW141240   6.356   8.754   6.098  0.5585  1.0492  1.0807
13263SOL    HW241241   6.290   8.787   5.966  1.1392 -0.6955  0.3233
13264SOL     OW41242   7.640   3.222   8.399  0.2921 -0.4778  0.5153
13264SOL    HW141243   7.642   3.312   8.431 -0.4989 -0.1724 -0.2571
13264SOL    HW241244   7.574   3.222   8.330  0.3646 -1.6260  0.4178
13265SOL     OW41245   1.687   4.684   1.709  0.1596  0.4757  0.2955
13265SOL    HW141246   1.756   4.694   1.775 -0.6494 -1.5156  1.5746
13265SOL    HW241247   1.618   4.635   1.755 -2.0149  2.1232 -0.9986
13266SOL     OW41248   3.652   0.349   7.471 -0.0238 -0.0240  0.0548
13266SOL    HW141249   3.568   0.343   7.426 -0.4714  0.9288  0.7094
13266SOL    HW241250   3.666   0.262   7.507 -1.5557  0.1944  1.3161
13267SOL     OW41251   6.686   4.502   8.698 -0.6662 -0.6707  0.0565
13267SOL    HW141252   6.689   4.528   8.790 -1.1640 -1.5561  0.3342
13267SOL    HW241253   6.650   4.414   8.699 -3.3934  0.3211 -1.1975
13268SOL     OW41254   3.496   7.569   2.486  0.3329 -0.1249 -0.0959
13268SOL    HW141255   3.588   7.581   2.460  0.3997  0.0802  0.2345
13268SOL    HW241256   3.482   7.475   2.480  1.0335 -0.3555  1.4003
13269SOL     OW41257   4.942   5.649   1.052 -0.3442  0.2100 -0.3881
13269SOL    HW141258   5.020   5.615   1.096  0.7753  1.2078 -1.5208
13269SOL    HW241259   4.873   5.640   1.117  0.9564  0.3589  1.0860
13270SOL     OW41260   5.532   4.739   7.701 -0.3740  0.6474 -0.0198
13270SOL    HW141261   5.472   4.813   7.713  0.4875  1.1921  1.1698
13270SOL    HW241262   5.539   4.700   7.788  1.3029  0.8707 -0.0169
13271SOL     OW41263   7.709   6.422   1.414 -0.5104  0.0515  0.2987
13271SOL    HW141264   7.703   6.511   1.447 -1.2333  0.3534 -0.6136
13271SOL    HW241265   7.726   6.431   1.320 -3.5400 -0.6506 -0.4600
13272SOL     OW41266   9.063   6.041   8.826  0.1976 -0.1540  0.2537
13272SOL    HW141267   9.119   6.030   8.749 -0.5748  1.6619 -0.6537
13272SOL    HW241268   8.979   6.072   8.790 -0.7462 -0.8995  1.7164
13273SOL     OW41269   2.325   4.867   7.007 -0.0508 -0.6269  0.4867
13273SOL    HW141270   2.282   4.882   7.091  0.4025 -0.9810  0.7888
13273SOL    HW241271   2.256   4.878   6.942 -0.1365  0.9129  0.8097
13274SOL     OW41272   3.757   4.969   7.337 -0.5699 -0.1547  0.1997
13274SOL    HW141273   3.683   5.030   7.345 -1.2105 -0.9956  0.9194
13274SOL    HW241274   3.831   5.024   7.313 -1.7968  0.4828 -2.4611
13275SOL     OW41275   4.074   0.056   3.304 -0.5583 -0.3866 -1.1547
13275SOL    HW141276   4.170   0.063   3.303 -0.6338  0.9281 -1.0701
13275SOL    HW241277   4.055  -0.012   3.239  0.4075 -0.2536 -1.6008
13276SOL     OW41278   1.700   5.116   1.287 -0.5940 -0.1291 -0.0595
13276SOL    HW141279   1.758   5.134   1.213 -0.5387  0.3585  0.1038
13276SOL    HW241280   1.680   5.202   1.324 -0.4688 -0.3807  0.6120
13277SOL     OW41281   1.743   3.667   4.266 -0.2766  0.1243  0.7945
13277SOL    HW141282   1.838   3.663   4.260 -0.3677 -1.0052 -0.3791
13277SOL    HW241283   1.718   3.741   4.211 -0.1145 -0.0052  0.5469
13278SOL     OW41284   4.165   2.595   8.568 -0.1434 -0.0843  0.2606
13278SOL    HW141285   4.242   2.615   8.514 -2.1034 -0.8795 -3.1120
13278SOL    HW241286   4.149   2.502   8.554 -1.0481 -0.2083  1.9018
13279SOL     OW41287   6.883   2.907   9.261  0.0741 -0.3569  0.6044
13279SOL    HW141288   6.815   2.974   9.276  1.5902  1.1312  1.1100
13279SOL    HW241289   6.898   2.868   9.347  0.9945  0.4668  0.8287
13280SOL     OW41290   1.768   7.605   0.247 -0.2882 -0.4003  0.0071
13280SOL    HW141291   1.677   7.611   0.275 -1.2283 -0.6564 -2.6713
13280SOL    HW241292   1.801   7.526   0.290 -1.9093 -1.3233 -0.3474
13281SOL     OW41293   0.474   3.538   8.613  0.2477  0.3538  0.0063
13281SOL    HW141294   0.451   3.631   8.610 -1.3650  0.0021 -2.8054
13281SOL    HW241295   0.567   3.536   8.633  0.0488  2.4863  1.3971
13282SOL     OW41296   8.492   5.149   8.323  0.3317 -0.5368  0.0395
13282SOL    HW141297   8.580   5.170   8.291  1.3493 -0.6419  2.5466
13282SOL    HW241298   8.471   5.066   8.280  1.8958 -1.0276  0.1551
13283SOL     OW41299   0.193   3.030   6.165 -0.3752  0.4502 -0.3804
13283SOL    HW141300   0.174   2.964   6.231  1.5330 -1.7988 -1.8759
13283SOL    HW241301   0.114   3.035   6.112 -1.1937  0.7908  0.8369
13284SOL     OW41302   2.098   3.964   4.601 -0.1832  0.2548  0.0353
13284SOL    HW141303   2.183   3.992   4.635 -0.1031 -0.4043  0.3895
13284SOL    HW241304   2.049   3.936   4.679  0.0656 -1.4313 -0.3864
13285SOL     OW41305   7.826   2.636   8.992  0.2624  0.3697 -0.1242
13285SOL    HW141306   7.842   2.603   9.081 -0.8176  0.7214  0.2219
13285SOL    HW241307   7.897   2.699   8.977  1.5556 -1.0859 -0.2678
13286SOL     OW41308   7.680   7.804   7.107 -0.3577 -0.1625 -1.0823
13286SOL    HW141309   7.627   7.730   7.138  0.3974 -0.9383 -1.5842
13286SOL    HW241310   7.733   7.829   7.183 -2.0034  1.1713 -0.3209
13287SOL     OW41311   0.433   0.630   1.067  0.1281  0.4100 -0.1885
13287SOL    HW141312   0.399   0.552   1.022  1.0344 -0.2815  0.2860
13287SOL    HW241313   0.372   0.644   1.139 -0.4021  0.5263 -0.6535
13288SOL     OW41314   7.398   3.022   7.226 -0.5398  0.5065 -0.0685
13288SOL    HW141315   7.377   2.938   7.265 -0.3716 -0.1126 -1.2470
13288SOL    HW241316   7.327   3.080   7.252 -2.3829 -0.8378 -1.8351
13289SOL     OW41317   5.738   5.129   6.328 -0.0295 -0.1527  0.4142
13289SOL    HW141318   5.776   5.188   6.264 -1.4091  1.2055  0.7758
13289SOL    HW241319   5.813   5.095   6.378  0.8504  0.6609 -0.3325
13290SOL     OW41320   1.396   9.062   8.725 -0.2032  0.1595  0.3583
13290SOL    HW141321   1.467   9.108   8.769 -0.4295  0.3138  0.5642
13290SOL    HW241322   1.396   9.097   8.636  1.1528 -1.1379 -0.2002
13291SOL     OW41323   7.304   1.194   7.624  0.6901  0.0915  0.2213
13291SOL    HW141324   7.264   1.281   7.618 -0.2316 -0.3165  0.2308
13291SOL    HW241325   7.382   1.200   7.569  0.9345  1.0808  0.6596
13292SOL     OW41326   0.775   3.176   9.017 -0.2848 -0.2727  0.3771
13292SOL    HW141327   0.869   3.163   9.003 -0.5852 -0.5499 -1.5417
13292SOL    HW241328   0.763   3.271   9.011 -0.4652 -0.3842 -2.0793
13293SOL     OW41329   7.460   6.001   1.520 -0.1859  0.1406  0.4582
13293SOL    HW141330   7.530   5.939   1.538 -0.7397 -0.2562  1.3053
13293SOL    HW241331   7.500   6.087   1.536  0.6813  0.0505 -1.0663
13294SOL     OW41332   8.546   8.655   4.279 -0.7600  0.1557  0.2847
13294SOL    HW141333   8.638   8.680   4.280 -0.3441 -1.2532 -0.0670
13294SOL    HW241334   8.499   8.736   4.260  0.4548  0.7463 -0.3102
13295SOL     OW41335   4.955   7.923   8.627  0.3934  0.1848 -0.1640
13295SOL    HW141336   5.041   7.889   8.651  0.3848  1.3617  1.7470
13295SOL    HW241337   4.894   7.875   8.683  0.3196  2.6635  2.0622
13296SOL     OW41338   1.731   0.060   5.239 -0.3903  0.0649 -1.1321
13296SOL    HW141339   1.813   0.101   5.212 -0.1068 -1.0107 -1.9824
13296SOL    HW241340   1.755   0.002   5.312 -0.0647 -1.4261 -2.3667
13297SOL     OW41341   4.614   8.649   0.359 -0.1492 -0.4902 -0.1619
13297SOL    HW141342   4.667   8.673   0.282 -0.3120 -1.4221 -0.5768
13297SOL    HW241343   4.564   8.573   0.330  0.0309 -1.0530  0.9731
13298SOL     OW41344   0.542   2.389   3.395  0.1418  0.2726 -0.0400
13298SOL    HW141345   0.461   2.427   3.430 -1.2988 -1.9435 -0.7139
13298SOL    HW241346   0.602   2.389   3.469 -0.7134  1.3408  0.6909
13299SOL     OW41347   4.543   8.170   1.758 -0.2609 -0.0181 -0.4135
13299SOL    HW141348   4.510   8.103   1.698 -1.0196  2.3052 -2.7409
13299SOL    HW241349   4.631   8.190   1.727 -0.2846  0.5201 -0.1545
13300SOL     OW41350   1.680   6.421   5.353  0.0650  0.4694 -0.5240
13300SOL    HW141351   1.684   6.327   5.341  0.3330  0.3660  0.3165
13300SOL    HW241352   1.771   6.451   5.341  0.2720  0.4079  0.8146
13301SOL     OW41353   8.968   3.505   1.790  0.2722 -0.4525 -0.3284
13301SOL    HW141354   9.009   3.432   1.743  3.1044  2.2893 -2.5860
13301SOL    HW241355   9.012   3.507   1.875  0.7582 -0.9156 -0.5608
13302SOL     OW41356   4.697   1.802   5.009  0.5605 -0.4463  0.7856
13302SOL    HW141357   4.691   1.712   5.040  0.5885 -0.2091  1.4970
13302SOL    HW241358   4.614   1.842   5.037  0.2139 -0.4385 -0.1814
13303SOL     OW41359   5.199   1.161   3.557  0.3551  0.0039 -0.0737
13303SOL    HW141360   5.178   1.233   3.497  1.4257 -0.2230 -0.7503
13303SOL    HW241361   5.294   1.164   3.566  0.2089  0.1918  1.8518
13304SOL     OW41362   0.467   8.655   5.527  0.4129  0.5613  0.1444
13304SOL    HW141363   0.492   8.743   5.557  1.5104  0.8258 -1.4239
13304SOL    HW241364   0.504   8.649   5.439  0.0963 -1.3772  0.1181
13305SOL     OW41365   8.244   0.566   8.652 -0.4742  0.5055  0.3040
13305SOL    HW141366   8.278   0.587   8.565 -4.2338  0.9126 -1.2521
13305SOL    HW241367   8.247   0.470   8.656 -0.8608  0.4534 -0.5370
13306SOL     OW41368   2.797   9.179   4.497 -0.2883 -0.2785 -0.3918
13306SOL    HW141369   2.742   9.257   4.490  2.2296  1.5131 -2.1953
13306SOL    HW241370   2.876   9.210   4.541  0.5711 -1.9376 -0.7113
13307SOL     OW41371   0.311   3.236   5.663  0.5345 -0.4246  0.0633
13307SOL    HW141372   0.266   3.215   5.744  0.7211  0.0487  0.2938
13307SOL    HW241373   0.345   3.152   5.631 -0.2196 -0.7371  0.0576
13308SOL     OW41374   6.114   0.539   9.099 -0.4812  0.5083  0.3992
13308SOL    HW141375   6.117   0.525   9.005 -1.1856 -0.0756  0.4514
13308SOL    HW241376   6.042   0.601   9.112  0.3366  1.4761  0.4746
13309SOL     OW41377   8.719   5.032   5.423 -0.2965  0.1855  0.0017
13309SOL    HW141378   8.791   5.076   5.469 -1.4627  0.4314  1.6706
13309SOL    HW241379   8.696   5.091   5.352  2.5747 -0.9058 -1.9980
13310SOL     OW41380   7.052   4.681   1.830  0.2534 -0.2244  0.7418
13310SOL    HW141381   7.100   4.600   1.846 -0.3476 -0.7190  0.0897
13310SOL    HW241382   7.118   4.742   1.796  0.3969 -0.9721 -0.3804
13311SOL     OW41383   6.818   3.030   7.085 -0.6123 -0.0281 -0.4139
13311SOL    HW141384   6.906   3.021   7.048 -0.7862  1.1656 -1.1879
13311SOL    HW241385   6.779   2.943   7.076  0.5106 -0.5989  0.0266
13312SOL     OW41386   3.209   0.238   5.600  0.4843 -0.2556  0.2199
13312SOL    HW141387   3.227   0.329   5.574  0.3388  0.2337  1.7336
13312SOL    HW241388   3.221   0.188   5.520  1.2493  1.0128 -0.5017
13313SOL     OW41389   7.430   7.862   3.002  0.5732 -0.2201 -0.1008
13313SOL    HW141390   7.384   7.821   2.929  0.7749  1.1297 -1.0126
13313SOL    HW241391   7.464   7.788   3.053 -0.0249 -1.1925 -1.0659
13314SOL     OW41392   5.548   3.639   1.021  0.2896 -0.0352 -0.1620
13314SOL    HW141393   5.559   3.548   0.997  0.0903 -0.0661 -0.1420
13314SOL    HW241394   5.459   3.661   0.992  0.7688  0.5054 -1.2632
13315SOL     OW41395   8.863   4.627   1.752 -0.2782 -0.0794 -0.4325
13315SOL    HW141396   8.833   4.696   1.812 -0.9752 -0.4320 -0.3583
13315SOL    HW241397   8.949   4.603   1.785 -0.6085 -0.1941  0.3750
13316SOL     OW41398   1.895   8.524   4.110  0.0811  0.4359  0.2587
13316SOL    HW141399   1.948   8.578   4.169 -1.4475  2.3318 -0.0071
13316SOL    HW241400   1.862   8.454   4.166  2.2670 -0.4162  0.5724
13317SOL     OW41401   2.719   5.644   5.566  0.4330 -0.2530 -0.4031
13317SOL    HW141402   2.774   5.704   5.516  2.6469 -0.8760  1.1447
13317SOL    HW241403   2.701   5.690   5.648  0.0079 -0.7159 -0.2282
13318SOL     OW41404   1.736   3.606   1.137 -0.4391  0.4536 -0.0756
13318SOL    HW141405   1.715   3.696   1.162  0.2553  1.3710 -2.4840
13318SOL    HW241406   1.654   3.572   1.100 -0.2567  0.7010 -0.7168
13319SOL     OW41407   8.411   1.217   5.871  0.5781  0.3908 -0.5262
13319SOL    HW141408   8.384   1.201   5.780  0.4273  1.1117 -0.6210
13319SOL    HW241409   8.497   1.258   5.863  1.5661 -1.5568 -0.2411
13320SOL     OW41410   6.752   7.097   1.455 -0.4717  0.4127  0.1099
13320SOL    HW141411   6.840   7.128   1.478 -0.1287 -0.2776 -0.2311
13320SOL    HW241412   6.696   7.129   1.525  0.1065  0.5908  0.4995
13321SOL     OW41413   4.364   7.854   0.334  0.2692  0.1786  0.0837
13321SOL    HW141414   4.417   7.903   0.397 -1.7068 -0.0875  2.0635
13321SOL    HW241415   4.282   7.904   0.327 -0.2182 -0.7216 -0.9809
13322SOL     OW41416   4.106   6.289   6.578  0.2535  0.3308  0.4936
13322SOL    HW141417   4.062   6.236   6.645  0.1360  0.1833  0.3001
13322SOL    HW241418   4.060   6.373   6.580 -0.4022  0.0041 -0.0776
13323SOL     OW41419   0.642   2.470   4.135 -0.2209 -0.0638  0.4154
13323SOL    HW141420   0.629   2.477   4.041 -1.9588 -1.1598  0.5330
13323SOL    HW241421   0.660   2.377   4.150 -0.2931  0.0413  1.1890
13324SOL     OW41422   1.695   7.987   1.451  0.2693 -0.4130 -0.0761
13324SOL    HW141423   1.695   8.072   1.407  0.7575 -0.3602  0.0205
13324SOL    HW241424   1.733   8.004   1.537 -1.8527 -0.2674  0.8953
13325SOL     OW41425   6.710   1.906   4.092  0.2167 -0.3199 -0.8342
13325SOL    HW141426   6.692   1.905   3.998 -0.4193  1.0321 -0.7474
13325SOL    HW241427   6.776   1.974   4.102  1.2809 -1.3821 -0.4460
13326SOL     OW41428   1.015   4.381   3.527  0.2388  0.4642  0.1897
13326SOL    HW141429   0.962   4.396   3.449  0.0436 -1.8854 -0.2064
13326SOL    HW241430   1.105   4.394   3.497  0.1057  0.6172 -0.1518
13327SOL     OW41431   1.166   6.260   8.572  0.2829 -0.1399 -0.2369
13327SOL    HW141432   1.214   6.339   8.548  0.7731 -0.4812 -0.3831
13327SOL    HW241433   1.113   6.239   8.495 -2.5518  1.9875  0.9126
13328SOL     OW41434   1.951   6.311   4.140 -0.7805  0.2105  0.1346
13328SOL    HW141435   1.898   6.324   4.062  0.8658 -0.3975 -1.1431
13328SOL    HW241436   2.026   6.369   4.128  0.0999 -0.7939  0.6542
13329SOL     OW41437   5.069   7.868   2.870 -0.0914 -0.5872  0.0871
13329SOL    HW141438   5.164   7.875   2.864  0.0574  2.1999  2.8220
13329SOL    HW241439   5.039   7.864   2.779  2.5832 -1.7725 -0.8505
13330SOL     OW41440   3.462   2.432   9.265  0.5580 -0.2496 -0.2017
13330SOL    HW141441   3.555   2.442   9.248  0.7673  0.1744  1.0893
13330SOL    HW241442   3.455   2.427   9.360 -0.8097  0.5087 -0.2280
13331SOL     OW41443   5.941   4.473   4.829  0.0797 -0.4323 -0.1843
13331SOL    HW141444   5.978   4.560   4.821 -0.8187  0.4563  3.6312
13331SOL    HW241445   5.846   4.487   4.826 -0.0751 -1.2386  0.4895
13332SOL     OW41446   4.945   2.725   8.454  0.5086 -0.3643  0.2838
13332SOL    HW141447   5.026   2.772   8.432  0.5542  0.3019  1.7726
13332SOL    HW241448   4.965   2.679   8.535  0.3581 -2.7733 -0.9685
13333SOL     OW41449   4.544   4.964   7.078  0.0318 -0.2743 -0.4075
13333SOL    HW141450   4.619   4.954   7.020  0.1297 -1.7814 -0.0643
13333SOL    HW241451   4.583   4.990   7.162 -0.1254  2.0963 -1.0019
13334SOL     OW41452   0.097   6.827   3.878  0.5589 -0.3530  0.3457
13334SOL    HW141453   0.116   6.801   3.968  1.6390 -0.1000  0.2134
13334SOL    HW241454   0.005   6.851   3.878 -0.2397 -3.1140  0.7286
13335SOL     OW41455   3.890   2.929   5.152  0.0560  0.2441  0.1850
13335SOL    HW141456   3.884   3.021   5.126  2.2021  0.0860 -1.1370
13335SOL    HW241457   3.931   2.886   5.077  2.6636 -1.0770  2.2214
13336SOL     OW41458   2.373   3.525   3.109 -0.5259  0.1368 -0.0210
13336SOL    HW141459   2.408   3.445   3.070  0.1876  0.0918  0.6910
13336SOL    HW241460   2.283   3.503   3.132 -0.0968 -0.7403  0.9052
13337SOL     OW41461   6.317   2.472   8.647  0.2905  0.0480  0.1369
13337SOL    HW141462   6.257   2.403   8.675  0.7550 -0.7467 -0.7460
13337SOL    HW241463   6.290   2.550   8.696  0.4185 -0.9982  1.9616
13338SOL     OW41464   6.090   3.864   8.287  0.1955  0.3171 -0.5210
13338SOL    HW141465   6.158   3.875   8.353  0.6491  0.9561 -1.0899
13338SOL    HW241466   6.019   3.921   8.316  0.5324  0.8678 -0.7598
13339SOL     OW41467   9.196   5.795   6.093  0.0399  0.4552 -0.2594
13339SOL    HW141468   9.223   5.885   6.076  1.2787  0.1268 -0.1222
13339SOL    HW241469   9.276   5.743   6.083 -0.5781 -0.5875  0.0079
13340SOL     OW41470   5.736   6.471   2.231 -0.0392  0.4300 -0.2085
13340SOL    HW141471   5.681   6.460   2.153 -1.1227 -1.0125  0.6865
13340SOL    HW241472   5.675   6.500   2.299  0.9523  1.9998  0.0563
13341SOL     OW41473   1.710   0.604   2.842  0.6403  0.5509 -0.1760
13341SOL    HW141474   1.768   0.553   2.898  0.4450  0.3361 -0.1660
13341SOL    HW241475   1.768   0.657   2.788  0.8351  0.5687  0.0521
13342SOL     OW41476   6.629   3.060   6.486  0.0458  0.3491  0.3367
13342SOL    HW141477   6.582   3.018   6.558  0.0523  1.0556  0.7716
13342SOL    HW241478   6.568   3.126   6.453 -0.2442 -0.4686 -0.8153
13343SOL     OW41479   6.089   7.010   8.774  0.7085 -0.4136 -0.0826
13343SOL    HW141480   6.149   7.010   8.848  0.3391 -0.7380  0.2208
13343SOL    HW241481   6.073   6.918   8.756 -0.9345 -0.3514  0.8599
13344SOL     OW41482   1.124   7.935   3.682  0.2118 -0.7277 -0.5432
13344SOL    HW141483   1.156   7.989   3.755 -2.5437  1.0723 -0.5258
13344SOL    HW241484   1.185   7.952   3.611  1.0034  0.1929  0.3337
13345SOL     OW41485   1.565   4.715   9.098 -0.2800  0.1630 -0.0579
13345SOL    HW141486   1.620   4.683   9.169 -1.1592  0.8194  0.9336
13345SOL    HW241487   1.476   4.712   9.132 -0.8966 -0.8309 -1.6204
13346SOL     OW41488   3.259   1.750   1.766 -0.1948  0.5566  0.6571
13346SOL    HW141489   3.313   1.826   1.788  0.6828 -0.0887  0.7856
13346SOL    HW241490   3.311   1.700   1.704  0.5183 -1.3956  2.6775
13347SOL     OW41491   3.990   1.668   6.571 -0.0191 -0.4611  0.2097
13347SOL    HW141492   3.927   1.694   6.639 -0.0113 -0.2593  0.1406
13347SOL    HW241493   4.054   1.739   6.570 -0.0701 -0.4184 -0.0744
13348SOL     OW41494   8.325   2.332   8.143  0.1057  0.1240 -0.3133
13348SOL    HW141495   8.266   2.275   8.193  1.0316 -0.8779 -0.3439
13348SOL    HW241496   8.393   2.274   8.110 -0.2430  0.8023 -2.4326
13349SOL     OW41497   5.749   3.869   0.518  0.0199  0.2623 -0.1694
13349SOL    HW141498   5.687   3.941   0.510 -0.8610 -0.4770 -0.0590
13349SOL    HW241499   5.796   3.887   0.600  1.1262  1.6961 -1.0651
13350SOL     OW41500   0.891   8.285   6.442 -0.3626  0.1421  0.0848
13350SOL    HW141501   0.939   8.329   6.372 -0.7315  0.6783  0.1708
13350SOL    HW241502   0.940   8.307   6.521 -1.0345  1.1243  0.2427
13351SOL     OW41503   1.769   6.642   8.309 -0.3625  0.2377  0.4310
13351SOL    HW141504   1.778   6.547   8.306  0.2044  0.2750  0.7076
13351SOL    HW241505   1.855   6.673   8.339 -0.3365  0.8719 -0.2773
13352SOL     OW41506   7.675   1.620   1.811 -0.0415  0.2475  0.1873
13352SOL    HW141507   7.690   1.553   1.743  1.0729  0.3791  0.2872
13352SOL    HW241508   7.612   1.579   1.871 -1.3127  0.2442 -1.0705
13353SOL     OW41509   0.931   5.333   2.040  0.6010  0.0151 -0.0414
13353SOL    HW141510   0.895   5.414   2.003 -0.5993 -0.6000 -0.2880
13353SOL    HW241511   0.881   5.263   1.997 -0.6153 -0.7626  2.4396
13354SOL     OW41512   6.431   1.599   2.683 -0.2208 -0.3401  0.2869
13354SOL    HW141513   6.409   1.536   2.614  0.7175 -1.1904  0.7315
13354SOL    HW241514   6.426   1.548   2.764 -2.5163  0.9335  1.0266
13355SOL     OW41515   8.745   0.821   6.665 -0.1925 -0.1101  0.0099
13355SOL    HW141516   8.746   0.867   6.581 -0.7014 -0.0843  0.0177
13355SOL    HW241517   8.837   0.823   6.694  0.3678 -1.8330 -1.4692
13356SOL     OW41518   1.968   7.492   8.003 -0.2646 -0.5071  0.0354
13356SOL    HW141519   1.997   7.519   7.916 -0.4413  0.0712  0.1489
13356SOL    HW241520   2.047   7.458   8.045 -0.2942 -1.3193 -0.5379
13357SOL     OW41521   6.461   5.860   4.578  0.0874 -0.2748  0.0620
13357SOL    HW141522   6.522   5.797   4.616  1.3448  1.0275  0.2561
13357SOL    HW241523   6.516   5.919   4.526 -0.9538  1.1323  0.4952
13358SOL     OW41524   6.975   0.642   6.803 -0.7169 -0.0897 -0.3982
13358SOL    HW141525   6.955   0.590   6.880  2.1238  0.1171  0.6002
13358SOL    HW241526   6.988   0.578   6.733  0.6061 -0.6067  0.2902
13359SOL     OW41527   6.620   5.946   0.814 -0.1775  0.4486  0.8381
13359SOL    HW141528   6.675   5.984   0.745  2.1603 -1.7684  1.3118
13359SOL    HW241529   6.552   5.898   0.767  2.5581 -2.7587 -0.2260
13360SOL     OW41530   4.540   3.503   0.784  0.1157  0.0240  0.3045
13360SOL    HW141531   4.471   3.449   0.746 -0.0940  0.3953  0.1495
13360SOL    HW241532   4.598   3.523   0.711 -0.2614  0.6971  0.1789
13361SOL     OW41533   8.469   2.389   4.024 -0.1248 -0.2287 -0.0076
13361SOL    HW141534   8.432   2.476   4.040  0.1300 -0.4441  1.9979
13361SOL    HW241535   8.562   2.404   4.007 -0.0228 -0.1333  0.6410
13362SOL     OW41536   5.053   0.151   6.854  0.6075  0.1189 -0.5442
13362SOL    HW141537   5.068   0.060   6.826 -0.2238  0.0452 -0.7801
13362SOL    HW241538   4.996   0.143   6.931 -1.1182  0.4876 -1.7278
13363SOL     OW41539   7.442   7.452   1.552 -0.0757  0.2089 -0.2617
13363SOL    HW141540   7.516   7.475   1.495  1.9938 -2.8743  0.9517
13363SOL    HW241541   7.452   7.510   1.628 -1.4420  2.6337 -1.7680
13364SOL     OW41542   3.686   2.247   8.015 -0.1171  0.1479 -0.1967
13364SOL    HW141543   3.653   2.205   8.094  0.5920  1.2392  0.7225
13364SOL    HW241544   3.608   2.276   7.968 -0.5926 -1.5861 -0.5528
13365SOL     OW41545   7.156   8.678   7.653  0.0131  0.2849 -0.5546
13365SOL    HW141546   7.212   8.610   7.617 -0.4866  0.6972 -2.1798
13365SOL    HW241547   7.198   8.760   7.630  0.3553  0.5822  0.9751
13366SOL     OW41548   6.308   5.786   7.362  0.3986 -0.2607  0.2141
13366SOL    HW141549   6.347   5.815   7.280  0.1929 -0.8399 -0.0987
13366SOL    HW241550   6.342   5.846   7.428 -1.2363  1.6720 -0.6208
13367SOL     OW41551   4.202   2.243   0.382  0.5143  0.0143  0.3075
13367SOL    HW141552   4.270   2.255   0.449  1.0131 -1.1464  0.0366
13367SOL    HW241553   4.251   2.230   0.301 -0.0437 -0.7483  0.0898
13368SOL     OW41554   8.980   1.721   2.334 -0.1494  0.2172  0.1776
13368SOL    HW141555   8.912   1.733   2.401 -0.8066 -0.9166 -0.2502
13368SOL    HW241556   9.061   1.750   2.377 -0.6313 -0.0047  1.2907
13369SOL     OW41557   4.303   0.816   2.801 -0.1119  0.4542 -0.6242
13369SOL    HW141558   4.221   0.768   2.817  0.2234  0.1984  0.4186
13369SOL    HW241559   4.291   0.899   2.847 -0.2147  0.8857 -1.4140
13370SOL     OW41560   1.702   3.329   7.285  0.0798 -0.1299 -0.2415
13370SOL    HW141561   1.690   3.331   7.190 -1.9121 -0.9328 -0.0512
13370SOL    HW241562   1.777   3.272   7.299 -0.4836 -1.1606 -1.2903
13371SOL     OW41563   6.716   2.961   8.991  0.1232  0.4917 -0.0454
13371SOL    HW141564   6.755   2.945   9.077 -0.0779 -2.2060 -0.3819
13371SOL    HW241565   6.790   2.973   8.932  0.5583 -2.7141 -0.3338
13372SOL     OW41566   1.493   8.902   7.073  0.4271 -0.5267  0.6357
13372SOL    HW141567   1.575   8.951   7.065  0.4233 -0.5981  0.0843
13372SOL    HW241568   1.520   8.815   7.101  0.9749 -1.6988 -2.9279
13373SOL     OW41569   3.479   7.181   5.901  0.1047  0.1350 -0.1671
13373SOL    HW141570   3.434   7.175   5.986 -1.0337 -0.7923 -0.7937
13373SOL    HW241571   3.528   7.262   5.905  1.0227 -0.4565  1.8281
13374SOL     OW41572   5.470   0.902   7.063  0.3097 -0.3759 -0.1545
13374SOL    HW141573   5.486   0.991   7.095 -3.0918  0.7573 -1.2100
13374SOL    HW241574   5.507   0.901   6.975  1.4764 -0.4821  0.3153
13375SOL     OW41575   1.868   3.063   0.264 -0.2173  0.3867 -0.2544
13375SOL    HW141576   1.859   3.112   0.346 -2.5202 -0.5146  0.1067
13375SOL    HW241577   1.963   3.054   0.252  0.2108  0.2297  2.5143
13376SOL     OW41578   4.557   0.933   2.090  0.4425 -0.0724 -0.3782
13376SOL    HW141579   4.567   0.846   2.129  0.8963  1.1112  2.4035
13376SOL    HW241580   4.491   0.976   2.145  0.7073  1.5677 -1.2883
13377SOL     OW41581   3.059   8.106   5.223  0.2627  0.3166 -0.0437
13377SOL    HW141582   3.139   8.142   5.262  1.8428 -0.7310 -2.0638
13377SOL    HW241583   3.091   8.047   5.155 -2.2498 -1.4524  0.1641
13378SOL     OW41584   7.737   8.742   3.634 -0.1075  0.0288 -0.0264
13378SOL    HW141585   7.719   8.648   3.628  1.9902 -0.7184  3.0597
13378SOL    HW241586   7.652   8.783   3.650 -0.9534 -1.4112 -0.6741
13379SOL     OW41587   5.210   0.954   3.933 -0.6912 -0.2473  0.3773
13379SOL    HW141588   5.165   0.936   3.851 -1.2348  0.1355  0.5800
13379SOL    HW241589   5.303   0.944   3.913 -0.6888  1.6644 -0.7589
13380SOL     OW41590   1.847   5.380   6.031  0.0815  0.1931  0.0366
13380SOL    HW141591   1.852   5.323   6.107 -0.1997 -0.5265 -0.4729
13380SOL    HW241592   1.908   5.341   5.968 -1.0634 -0.2902 -0.7935
13381SOL     OW41593   8.446   7.012   4.872  0.8205 -0.6902 -0.2840
13381SOL    HW141594   8.502   6.984   4.799  2.0545 -0.4888  0.5627
13381SOL    HW241595   8.506   7.049   4.936  0.0150 -2.5706  1.6933
13382SOL     OW41596   8.854   6.426   4.667 -1.1764  0.3986 -0.5793
13382SOL    HW141597   8.937   6.433   4.620 -0.3317 -3.0028  0.0777
13382SOL    HW241598   8.822   6.338   4.645 -2.8999  0.3405  1.7601
13383SOL     OW41599   2.102   6.771   0.460  0.0564  0.2887 -0.1407
13383SOL    HW141600   2.068   6.846   0.411 -2.3854 -1.3545 -1.1914
13383SOL    HW241601   2.183   6.747   0.415 -0.2426  1.0368 -1.1115
13384SOL     OW41602   1.408   5.445   5.350 -0.0828 -0.0506  0.2929
13384SOL    HW141603   1.444   5.519   5.399  1.6404  0.2102 -1.2459
13384SOL    HW241604   1.337   5.482   5.298  0.1005  0.3321  0.3129
13385SOL     OW41605   5.603   6.758   1.623 -0.3591 -0.0405 -0.1714
13385SOL    HW141606   5.601   6.691   1.554  1.2078 -0.5662  0.2695
13385SOL    HW241607   5.547   6.722   1.692 -1.6129  0.3064 -0.9639
13386SOL     OW41608   1.047   0.948   7.108 -0.2699  0.9159  0.5499
13386SOL    HW141609   1.037   0.874   7.168  1.5548  2.3491  2.7857
13386SOL    HW241610   0.957   0.975   7.089 -0.9438 -1.0946  0.6450
13387SOL     OW41611   3.085   3.231   2.471  0.4113  0.2996 -0.4708
13387SOL    HW141612   3.119   3.278   2.548 -4.5853  0.1941  2.1623
13387SOL    HW241613   3.045   3.300   2.418 -1.7897 -0.2079  0.4323
13388SOL     OW41614   6.389   3.178   7.577  0.1702 -0.2071 -1.1041
13388SOL    HW141615   6.445   3.251   7.604 -1.6193  0.6074  0.7094
13388SOL    HW241616   6.412   3.162   7.486  2.4966  0.8290 -0.7609
13389SOL     OW41617   6.670   4.273   0.840 -0.0616  1.0360 -0.0385
13389SOL    HW141618   6.628   4.192   0.813  1.4086  0.4113 -0.5895
13389SOL    HW241619   6.709   4.253   0.925  0.2512  1.1773 -0.1460
13390SOL     OW41620   5.698   7.669   0.302  0.0514 -0.4122  0.5491
13390SOL    HW141621   5.683   7.594   0.360 -1.7772 -0.6373 -0.1468
13390SOL    HW241622   5.720   7.741   0.362 -0.3210 -0.9852  1.3976
13391SOL     OW41623   6.264   4.928   1.444  0.5121 -0.6827  0.2222
13391SOL    HW141624   6.265   4.832   1.443 -2.9401 -0.8889 -2.4551
13391SOL    HW241625   6.195   4.952   1.505 -1.3902 -0.2153 -1.9585
13392SOL     OW41626   4.512   2.309   8.251 -0.2739 -0.0204  0.3671
13392SOL    HW141627   4.567   2.381   8.218 -1.4311  1.2789  1.1503
13392SOL    HW241628   4.423   2.334   8.226 -0.8641 -0.3845  2.0273
13393SOL     OW41629   4.060   4.983   6.402 -0.5343 -0.8960  0.2882
13393SOL    HW141630   3.987   4.948   6.454 -0.6904  0.7859  1.3174
13393SOL    HW241631   4.018   5.025   6.327 -0.7103  0.2846  1.0055
13394SOL     OW41632   2.856   1.266   3.144 -0.5886  0.1589 -0.4257
13394SOL    HW141633   2.867   1.349   3.190 -1.8982 -0.3102  0.7885
13394SOL    HW241634   2.915   1.273   3.068 -1.6516  2.7566 -1.1365
13395SOL     OW41635   6.495   7.589   3.080 -0.1754  0.1847 -0.1626
13395SOL    HW141636   6.515   7.675   3.043 -0.5003  0.1918 -0.3265
13395SOL    HW241637   6.454   7.609   3.164 -0.9004  0.2121 -0.5168
13396SOL     OW41638   4.185   0.868   0.693  0.0521  0.5424  0.1180
13396SOL    HW141639   4.263   0.848   0.745  1.1648 -0.4031 -1.8463
13396SOL    HW241640   4.132   0.789   0.697 -0.5347  0.9626  0.9277
13397SOL     OW41641   4.629   2.096   5.466 -0.2152  0.6921  0.6589
13397SOL    HW141642   4.695   2.141   5.520 -0.2186 -0.6158  1.8109
13397SOL    HW241643   4.679   2.031   5.417 -0.3657  1.1653 -0.1350
13398SOL     OW41644   9.235   7.559   6.821  0.6756 -0.6365  0.5085
13398SOL    HW141645   9.223   7.465   6.808 -0.7696 -0.2975 -1.0221
13398SOL    HW241646   9.232   7.596   6.733  1.0803  0.8649  1.0903
13399SOL     OW41647   7.487   9.079   5.621 -1.1514 -0.6747  0.5619
13399SOL    HW141648   7.433   9.112   5.548 -1.7600 -0.1343  1.2450
13399SOL    HW241649   7.521   9.158   5.663 -0.2957 -1.0037  0.4988
13400SOL     OW41650   5.511   5.837   1.515 -0.0219 -0.0113  0.4747
13400SOL    HW141651   5.500   5.760   1.460  2.5787 -0.7453  0.8793
13400SOL    HW241652   5.495   5.911   1.456 -0.3701 -0.8087 -0.4544
13401SOL     OW41653   6.875   8.981   4.239  0.3647  0.2567 -0.1271
13401SOL    HW141654   6.831   8.991   4.324  0.3322 -1.1334  0.0442
13401SOL    HW241655   6.921   8.897   4.246 -0.6053 -0.4732 -1.9136
13402SOL     OW41656   2.153   8.745   1.120  0.3822 -0.1081  0.4006
13402SOL    HW141657   2.208   8.749   1.042  0.8111  0.5085  0.7249
13402SOL    HW241658   2.208   8.703   1.186  0.1207 -0.3724  0.4485
13403SOL     OW41659   7.700   2.108   7.777 -0.2552 -0.0933 -0.0168
13403SOL    HW141660   7.734   2.177   7.834 -0.1089  0.2087 -0.4644
13403SOL    HW241661   7.746   2.120   7.694  0.8359 -1.6182  0.3281
13404SOL     OW41662   2.851   4.054   1.183  0.5079  0.2329  0.1838
13404SOL    HW141663   2.783   4.046   1.250  1.5226 -2.0717  1.0467
13404SOL    HW241664   2.878   3.964   1.164  0.1457  0.7182 -3.5376
13405SOL     OW41665   5.124   2.134   6.600 -0.4264  0.7874 -0.5877
13405SOL    HW141666   5.122   2.068   6.669  0.1256  0.2132 -1.1126
13405SOL    HW241667   5.072   2.207   6.635  1.7648  1.5049  1.4802
13406SOL     OW41668   4.180   5.787   4.234 -0.5377  0.0308 -0.0137
13406SOL    HW141669   4.173   5.733   4.313 -1.4552 -0.7311 -0.5991
13406SOL    HW241670   4.163   5.876   4.265  2.3693  0.2932  1.2288
13407SOL     OW41671   8.746   3.143   1.085 -0.4655 -0.0321  0.4636
13407SOL    HW141672   8.742   3.156   0.991  1.2881  0.1086  0.3862
13407SOL    HW241673   8.716   3.053   1.098  3.5797 -1.7825 -0.7886
13408SOL     OW41674   2.295   3.129   1.908 -0.2810 -0.1744  0.5147
13408SOL    HW141675   2.314   3.176   1.989  2.1232  0.0734 -0.1196
13408SOL    HW241676   2.325   3.187   1.839  0.7379 -1.6934 -0.3920
13409SOL     OW41677   8.562   0.094   5.682  0.0840  0.1781  0.0076
13409SOL    HW141678   8.596   0.057   5.601  1.6528 -1.0217  1.1437
13409SOL    HW241679   8.470   0.066   5.684  0.1161 -0.0432 -1.1927
13410SOL     OW41680   3.627   5.274   6.634  0.3576  0.6472 -0.2888
13410SOL    HW141681   3.642   5.345   6.573  0.6359  1.1629  0.3682
13410SOL    HW241682   3.709   5.224   6.634  0.0821  0.1785 -0.9247
13411SOL     OW41683   1.507   1.781   5.221 -0.0781  0.9236 -0.3580
13411SOL    HW141684   1.447   1.737   5.160  4.5282 -2.7156 -2.9751
13411SOL    HW241685   1.499   1.731   5.302  0.1786 -0.3373 -1.0769
13412SOL     OW41686   8.664   6.534   9.093 -0.2662 -0.1544 -0.3131
13412SOL    HW141687   8.719   6.610   9.111  0.3019 -0.3394 -1.1957
13412SOL    HW241688   8.723   6.471   9.052 -0.8624 -0.8471 -0.1349
13413SOL     OW41689   6.126   1.700   4.571 -0.1082 -0.1470 -0.1241
13413SOL    HW141690   6.125   1.648   4.491  1.5646  1.6322 -1.4070
13413SOL    HW241691   6.204   1.670   4.618 -0.4139 -0.3457  0.2677
13414SOL     OW41692   8.384   7.718   8.821  0.2662  0.3872 -0.0077
13414SOL    HW141693   8.432   7.679   8.749 -0.3604  0.5300 -0.5130
13414SOL    HW241694   8.330   7.786   8.780 -0.0393  0.5244  0.6030
13415SOL     OW41695   8.471   5.652   5.064  0.4040  0.1410 -0.5121
13415SOL    HW141696   8.482   5.557   5.054  0.4349  0.1668 -0.7390
13415SOL    HW241697   8.545   5.690   5.016 -0.4317  0.3079 -1.7191
13416SOL     OW41698   5.111   0.344   2.163 -0.0845  0.0766 -0.2164
13416SOL    HW141699   5.189   0.321   2.214 -0.8629 -1.1389  0.4797
13416SOL    HW241700   5.139   0.415   2.106  1.0041  1.0308  1.4480
13417SOL     OW41701   7.530   8.420   8.679 -0.0576 -0.3442  0.0716
13417SOL    HW141702   7.485   8.504   8.681  0.4468  0.0411 -2.1522
13417SOL    HW241703   7.465   8.358   8.714 -0.5458  0.8860  1.4312
13418SOL     OW41704   6.590   4.055   4.687  0.5924  0.2773  0.0493
13418SOL    HW141705   6.592   4.045   4.592  0.9020  1.9130 -0.1570
13418SOL    HW241706   6.527   4.126   4.702  3.1333  2.5357  0.7478
13419SOL     OW41707   7.501   0.034   7.430 -0.3022  0.5120  0.2789
13419SOL    HW141708   7.548   0.037   7.346 -0.6309 -1.6109 -0.0449
13419SOL    HW241709   7.498   0.125   7.459  3.2051  0.8896 -0.0942
13420SOL     OW41710   6.891   6.297   0.529  0.0292 -0.0545  0.0082
13420SOL    HW141711   6.832   6.239   0.576 -1.9131  1.3677 -0.5392
13420SOL    HW241712   6.961   6.316   0.592 -0.0693 -1.7487  0.6925
13421SOL     OW41713   2.800   1.268   3.554 -0.7691  0.6932 -0.3504
13421SOL    HW141714   2.823   1.181   3.520 -0.9157  0.7546 -0.6124
13421SOL    HW241715   2.762   1.313   3.478 -1.3653  0.7315 -0.0313
13422SOL     OW41716   7.896   4.267   4.671  0.1729  0.2294 -0.4348
13422SOL    HW141717   7.937   4.242   4.754 -0.3499  1.2806  0.1694
13422SOL    HW241718   7.966   4.261   4.606  1.2129  1.6254  0.4934
13423SOL     OW41719   3.033   7.715   6.000 -0.0278 -0.0811  0.3745
13423SOL    HW141720   3.031   7.679   6.089 -3.1994  0.6502  0.7001
13423SOL    HW241721   2.942   7.735   5.980  0.8984  2.2280 -2.0751
13424SOL     OW41722   1.583   0.554   0.806 -0.1934 -0.1822 -0.1656
13424SOL    HW141723   1.489   0.536   0.812  0.1137 -1.6848  0.4351
13424SOL    HW241724   1.615   0.492   0.741  0.4596  0.0603 -0.0789
13425SOL     OW41725   1.053   0.599   4.044  0.2875 -1.1647 -0.1341
13425SOL    HW141726   1.123   0.627   3.984  1.0058  0.9829  1.6050
13425SOL    HW241727   1.097   0.583   4.127 -0.9959 -2.0489  0.4115
13426SOL     OW41728   4.047   9.182   6.243  0.4005  0.4444  0.3581
13426SOL    HW141729   4.052   9.161   6.337 -2.2782 -1.0655  0.2735
13426SOL    HW241730   3.967   9.235   6.234 -0.6680 -1.3074 -1.2788
13427SOL     OW41731   7.920   0.783   4.017 -0.5372  0.3409  0.0707
13427SOL    HW141732   7.922   0.693   3.983 -0.3088 -0.5035  2.2068
13427SOL    HW241733   7.848   0.783   4.080  0.2059  1.3373  0.9490
13428SOL     OW41734   8.399   4.603   8.097 -0.5079  0.0661  0.2967
13428SOL    HW141735   8.419   4.583   8.005  0.2743  3.0068 -0.2713
13428SOL    HW241736   8.304   4.603   8.101 -0.5537  0.1796 -0.5832
13429SOL     OW41737   5.108   0.639   9.123  0.0069  0.0524  0.1245
13429SOL    HW141738   5.168   0.677   9.187 -0.3699 -0.5272  0.8360
13429SOL    HW241739   5.160   0.572   9.078  0.5434  1.0856 -0.8314
13430SOL     OW41740   5.303   2.448   5.452  0.0237  0.1872  0.5915
13430SOL    HW141741   5.253   2.391   5.511 -0.9777 -0.1881 -0.5661
13430SOL    HW241742   5.367   2.390   5.412 -1.2937 -0.3019 -0.9309
13431SOL     OW41743   4.717   7.390   4.708  0.5631 -0.1274  0.1407
13431SOL    HW141744   4.674   7.420   4.788  1.2026 -1.0389  0.8456
13431SOL    HW241745   4.707   7.294   4.709 -1.9258 -0.0369 -2.3209
13432SOL     OW41746   4.977   8.726   1.455  0.5374 -0.0850 -0.8126
13432SOL    HW141747   5.068   8.728   1.425  0.5554  0.0041 -0.7519
13432SOL    HW241748   4.982   8.750   1.548  0.4112  0.3030 -0.9059
13433SOL     OW41749   5.353   6.247   7.637  0.2691  0.2085 -0.1959
13433SOL    HW141750   5.445   6.224   7.650 -0.0421 -0.5859  0.6565
13433SOL    HW241751   5.349   6.342   7.653  1.0623  0.3823 -0.9778
13434SOL     OW41752   0.574   7.022   2.689  0.3456  0.5352  0.5476
13434SOL    HW141753   0.614   6.942   2.722 -0.0800 -0.3356 -0.9675
13434SOL    HW241754   0.486   7.022   2.727  0.2768  0.1578  0.3987
13435SOL     OW41755   8.587   3.475   9.098  0.0132 -0.5095  0.4999
13435SOL    HW141756   8.545   3.390   9.111 -0.1639 -0.6106 -0.6181
13435SOL    HW241757   8.601   3.509   9.186 -0.1060 -1.6020  0.9512
13436SOL     OW41758   4.508   2.119   2.849 -0.0566 -0.6980  0.5349
13436SOL    HW141759   4.554   2.041   2.879 -0.0962 -0.9365 -0.0001
13436SOL    HW241760   4.559   2.192   2.883 -0.4343 -0.9489  1.6535
13437SOL     OW41761   0.878   3.215   0.670  0.1742 -0.0761  0.4008
13437SOL    HW141762   0.809   3.149   0.663  0.5685 -0.5109  0.5243
13437SOL    HW241763   0.949   3.182   0.615  0.7307 -0.2253  1.1778
13438SOL     OW41764   5.147   3.953   8.037  0.6807  0.0141 -0.0270
13438SOL    HW141765   5.085   3.909   7.979  1.3362  1.0012 -1.5144
13438SOL    HW241766   5.112   3.937   8.125 -1.6100  0.4262 -0.7939
13439SOL     OW41767   4.683   3.959   9.150 -0.1463  0.2201  0.0753
13439SOL    HW141768   4.604   3.920   9.187 -0.8525  2.0208  0.5349
13439SOL    HW241769   4.739   3.884   9.128  0.1098 -1.0160  4.2505
13440SOL     OW41770   7.142   5.090   3.411 -0.2133 -0.5267  0.2328
13440SOL    HW141771   7.153   5.132   3.496 -0.1437 -3.1641  1.6510
13440SOL    HW241772   7.207   5.130   3.355  0.6329  0.3882  1.8061
13441SOL     OW41773   2.717   8.194   3.880 -0.5002  0.0236  0.7473
13441SOL    HW141774   2.639   8.164   3.926 -1.2825 -0.5220 -0.8624
13441SOL    HW241775   2.708   8.290   3.876 -1.3410 -0.0652  0.1917
13442SOL     OW41776   0.596   5.830   7.545  0.8393 -0.5052 -0.4904
13442SOL    HW141777   0.683   5.810   7.510  0.7754  2.6043 -2.9226
13442SOL    HW241778   0.609   5.906   7.600 -0.3278  0.0528 -0.9540
13443SOL     OW41779   4.771   4.732   8.086  0.4184 -0.1581 -0.6778
13443SOL    HW141780   4.816   4.714   8.003  2.0177 -0.4068  0.1991
13443SOL    HW241781   4.836   4.711   8.153 -1.3618 -1.5157  0.7207
13444SOL     OW41782   4.065   2.628   7.352 -0.1353 -0.6312 -0.2981
13444SOL    HW141783   4.045   2.550   7.403  2.0696 -0.8215  0.3654
13444SOL    HW241784   4.148   2.660   7.387 -0.2067  1.1507 -1.5798
13445SOL     OW41785   5.029   2.662   1.182 -0.4344 -0.0908  0.2834
13445SOL    HW141786   5.014   2.678   1.089  0.1368  1.1665  0.3800
13445SOL    HW241787   5.111   2.613   1.185  1.5780  2.9498  0.1914
13446SOL     OW41788   7.455   2.160   1.118  0.0727 -0.0217 -0.3130
13446SOL    HW141789   7.459   2.089   1.183  2.9763  1.1089  0.8816
13446SOL    HW241790   7.458   2.115   1.034  0.4175 -1.3793  0.3833
13447SOL     OW41791   3.751   3.088   5.697 -0.1106  0.6623  0.3894
13447SOL    HW141792   3.722   3.102   5.787  0.4006  0.7554  0.5463
13447SOL    HW241793   3.845   3.110   5.699 -0.1627  0.9710 -0.2292
13448SOL     OW41794   0.062   7.852   7.771 -0.1830  0.6746 -0.3174
13448SOL    HW141795   0.154   7.869   7.750  0.0372 -1.1971 -1.0964
13448SOL    HW241796   0.017   7.935   7.755  1.4757  1.8496  0.8487
13449SOL     OW41797   5.878   8.991   9.220 -0.1541  0.6280 -0.0349
13449SOL    HW141798   5.878   8.911   9.272  2.2431  0.3857 -0.2936
13449SOL    HW241799   5.804   8.982   9.161 -1.7692  0.0233  1.9780
13450SOL     OW41800   0.921   8.641   8.434  0.1435 -0.2912 -0.0623
13450SOL    HW141801   1.004   8.656   8.389  0.1915 -1.5942 -0.4627
13450SOL    HW241802   0.940   8.658   8.527  0.1427  2.0242 -0.4245
13451SOL     OW41803   8.682   6.717   8.243  0.4822  0.5104 -0.5526
13451SOL    HW141804   8.657   6.654   8.174  3.2067 -0.0411 -1.1618
13451SOL    HW241805   8.763   6.757   8.210  0.3236  2.3267  1.1089
13452SOL     OW41806   6.999   6.951   4.933 -0.2822  0.1465  0.6844
13452SOL    HW141807   7.086   6.922   4.957 -0.0072  0.1610 -0.2601
13452SOL    HW241808   6.941   6.878   4.956  0.3609 -1.1325 -1.4287
13453SOL     OW41809   0.191   5.216   8.397 -0.5237 -0.0901  0.2711
13453SOL    HW141810   0.278   5.224   8.436 -0.1019  2.2459 -0.9162
13453SOL    HW241811   0.133   5.262   8.458 -0.4820  0.4157 -0.0592
13454SOL     OW41812   2.406   2.529   7.801 -0.0434  0.4405  0.2507
13454SOL    HW141813   2.482   2.530   7.744  0.4227  0.1714  0.8601
13454SOL    HW241814   2.433   2.576   7.879 -0.0497 -0.7612  1.0152
13455SOL     OW41815   6.042   6.476   4.798  0.2703 -0.2509 -0.1908
13455SOL    HW141816   6.094   6.551   4.768 -0.9455 -0.1475 -2.1756
13455SOL    HW241817   6.096   6.400   4.777  0.5523 -0.0385 -0.2452
13456SOL     OW41818   8.583   3.286   1.399 -0.0254 -1.0020  0.5930
13456SOL    HW141819   8.551   3.340   1.471 -1.2787 -0.8388 -0.0666
13456SOL    HW241820   8.656   3.236   1.437  1.0041  0.9281  1.2914
13457SOL     OW41821   0.200   1.287   4.273 -0.3960  0.0013  0.3682
13457SOL    HW141822   0.211   1.382   4.275 -0.0264 -0.0424  0.6085
13457SOL    HW241823   0.210   1.260   4.364  2.8193 -0.6124 -0.0528
13458SOL     OW41824   3.651   5.340   7.233 -0.4296 -0.5166  0.0158
13458SOL    HW141825   3.740   5.328   7.263 -0.2610 -0.4516 -0.4412
13458SOL    HW241826   3.601   5.269   7.273 -0.1571 -0.5988  0.2066
13459SOL     OW41827   7.486   4.857   3.823  0.0989  0.3104 -0.2340
13459SOL    HW141828   7.568   4.883   3.865  0.3583  0.3516 -0.7589
13459SOL    HW241829   7.497   4.763   3.806 -0.4918  0.0235  0.8795
13460SOL     OW41830   7.283   2.607   5.340 -0.0309  0.1881 -0.1266
13460SOL    HW141831   7.211   2.547   5.360 -1.5848  1.8080 -0.5633
13460SOL    HW241832   7.285   2.667   5.415 -0.7023  1.5387 -1.1455
13461SOL     OW41833   1.668   4.367   8.832  0.5099 -0.7115 -0.2765
13461SOL    HW141834   1.720   4.351   8.911  1.3938 -1.2774 -0.9526
13461SOL    HW241835   1.646   4.280   8.799  1.2049 -0.5183 -1.3222
13462SOL     OW41836   3.583   4.190   4.713  0.3060  0.2855  0.2233
13462SOL    HW141837   3.540   4.275   4.715 -1.2194 -0.4315 -0.5321
13462SOL    HW241838   3.512   4.127   4.697  1.4736 -1.0688  0.1456
13463SOL     OW41839   8.587   6.647   6.030 -0.0002 -0.0405 -0.0883
13463SOL    HW141840   8.668   6.643   6.080  0.9261 -0.2974 -1.5262
13463SOL    HW241841   8.543   6.725   6.061  0.8938  0.2062  0.6002
13464SOL     OW41842   7.356   8.406   5.063  0.1641  0.0001 -0.1685
13464SOL    HW141843   7.317   8.337   5.117 -2.4010  0.9065 -0.7143
13464SOL    HW241844   7.373   8.365   4.979 -1.0429 -0.0959 -0.3844
13465SOL     OW41845   5.124   4.899   5.394  0.4811  0.3517 -0.0068
13465SOL    HW141846   5.205   4.933   5.433 -0.0923 -0.1645  1.7567
13465SOL    HW241847   5.055   4.955   5.429  0.0433  0.7606 -1.4560
13466SOL     OW41848   6.745   4.918   3.995 -0.2121 -0.0137  0.6293
13466SOL    HW141849   6.837   4.915   4.022  0.2880  3.0969 -0.2901
13466SOL    HW241850   6.748   4.901   3.901 -0.7250 -0.8633  0.7603
13467SOL     OW41851   7.111   7.446   6.299 -0.2001 -0.2805  0.1462
13467SOL    HW141852   7.026   7.476   6.268  0.0583 -1.1915 -1.5509
13467SOL    HW241853   7.094   7.362   6.340 -0.3886  0.4628  1.6524
13468SOL     OW41854   2.187   8.817   6.447  0.2969  0.2443 -0.0896
13468SOL    HW141855   2.143   8.902   6.444 -0.2990 -0.0631 -0.4467
13468SOL    HW241856   2.274   8.836   6.480 -0.5017  0.7128  1.9169
13469SOL     OW41857   4.829   8.346   3.648 -0.2037  0.4630  0.5036
13469SOL    HW141858   4.782   8.287   3.588 -0.0771  0.0099  0.8466
13469SOL    HW241859   4.765   8.370   3.714 -0.0023 -0.0450  0.8935
13470SOL     OW41860   9.123   3.405   6.613 -0.2042  0.1810 -0.0547
13470SOL    HW141861   9.087   3.330   6.566  0.7703 -0.0078 -0.5175
13470SOL    HW241862   9.051   3.468   6.615 -0.3623  0.0911 -1.5747
13471SOL     OW41863   8.388   0.153   2.174  0.2114  0.2784 -0.2890
13471SOL    HW141864   8.359   0.174   2.263 -0.2239  1.3572 -0.6677
13471SOL    HW241865   8.345   0.219   2.119  0.4695 -0.3814 -1.3017
13472SOL     OW41866   6.273   8.467   5.294  0.0648  0.1905  0.3804
13472SOL    HW141867   6.230   8.389   5.259 -0.8043  1.1009 -0.6338
13472SOL    HW241868   6.203   8.515   5.339  0.9318 -0.4184  2.5412
13473SOL     OW41869   8.980   6.984   2.695 -0.3780 -0.1084  0.3752
13473SOL    HW141870   8.892   7.004   2.725 -1.2073  1.2421 -2.6273
13473SOL    HW241871   8.971   6.904   2.642  0.6255 -1.1615  1.7137
13474SOL     OW41872   7.541   1.317   3.080  0.0199 -0.4815  0.3496
13474SOL    HW141873   7.586   1.399   3.098 -0.1925  0.1782 -1.8164
13474SOL    HW241874   7.612   1.254   3.063  0.1719 -0.6700  1.5990
13475SOL     OW41875   6.856   6.044   8.883 -0.2742  0.3870  0.2564
13475SOL    HW141876   6.944   6.042   8.846 -1.2065  0.8419 -2.1925
13475SOL    HW241877   6.865   6.094   8.964  1.6879  0.4802  0.0273
13476SOL     OW41878   7.982   8.435   5.328 -0.4948  0.6620 -0.6085
13476SOL    HW141879   7.907   8.428   5.387 -1.1086  1.4886 -1.2681
13476SOL    HW241880   7.974   8.358   5.271 -0.2940  0.2386 -0.0764
13477SOL     OW41881   7.354   8.586   2.852  0.4183  0.0668 -0.0219
13477SOL    HW141882   7.309   8.524   2.909  0.1338  0.2486 -0.0499
13477SOL    HW241883   7.359   8.542   2.767 -2.1926  1.1076 -0.8224
13478SOL     OW41884   4.076   0.615   8.868 -0.0307 -0.0902 -0.3922
13478SOL    HW141885   4.125   0.550   8.817  0.1203 -0.3687  0.1034
13478SOL    HW241886   4.140   0.652   8.929 -0.4565 -0.5573  0.3541
13479SOL     OW41887   5.058   8.090   4.892  0.2621 -0.0778  0.3487
13479SOL    HW141888   5.033   8.122   4.806 -1.8759  2.1813  1.6945
13479SOL    HW241889   5.154   8.086   4.889  0.5020  3.1936 -1.1577
13480SOL     OW41890   7.396   1.525   3.403  0.6351 -0.6046 -0.5697
13480SOL    HW141891   7.464   1.462   3.426  0.7338 -0.6819 -1.0588
13480SOL    HW241892   7.442   1.610   3.402  0.1345 -0.2305  1.8754
13481SOL     OW41893   7.982   5.979   7.516 -0.4950 -0.0945  0.1555
13481SOL    HW141894   7.977   5.894   7.473 -2.3173  0.3944 -0.6594
13481SOL    HW241895   8.076   5.992   7.531 -0.0117 -1.3260 -1.5334
13482SOL     OW41896   5.383   5.607   2.105 -0.0503 -0.1432  0.2139
13482SOL    HW141897   5.387   5.688   2.157 -2.1043 -0.1090  0.3916
13482SOL    HW241898   5.321   5.551   2.152 -1.3318 -0.4433 -1.7008
13483SOL     OW41899   6.698   4.866   8.344 -0.0659 -0.3276  0.2663
13483SOL    HW141900   6.780   4.914   8.333 -0.4548  0.2049 -0.4214
13483SOL    HW241901   6.654   4.875   8.259 -1.5062  0.6603  1.0787
13484SOL     OW41902   6.687   5.333   4.234  0.4500 -0.0405  0.0226
13484SOL    HW141903   6.601   5.336   4.277  0.4390  0.2286 -0.0193
13484SOL    HW241904   6.672   5.282   4.154 -0.1501  1.7535 -1.0588
13485SOL     OW41905   4.095   5.300   6.797  0.7069  0.2535  0.2470
13485SOL    HW141906   4.153   5.374   6.780  0.6127  0.1591 -0.5034
13485SOL    HW241907   4.124   5.233   6.735 -1.3959  0.8525 -1.4968
13486SOL     OW41908   3.316   3.836   2.796 -0.7146 -0.2967  0.0703
13486SOL    HW141909   3.334   3.927   2.819 -0.4863 -0.4347  0.4477
13486SOL    HW241910   3.281   3.797   2.876 -0.4886 -0.6251  0.0132
13487SOL     OW41911   0.154   2.539   0.085  0.2354  0.0506  0.0227
13487SOL    HW141912   0.116   2.591   0.156  0.8323 -0.2173  0.5553
13487SOL    HW241913   0.248   2.556   0.092  0.3163 -0.1481 -0.5737
13488SOL     OW41914   2.954   3.123   0.745  0.2965 -0.5231  0.5481
13488SOL    HW141915   3.012   3.158   0.676 -0.3047  0.0177  0.3043
13488SOL    HW241916   2.991   3.037   0.765 -0.0956 -1.1396 -1.1765
13489SOL     OW41917   5.868   3.390   7.788 -0.4062  0.4371 -0.8036
13489SOL    HW141918   5.923   3.455   7.833  0.1368 -0.1107 -0.6589
13489SOL    HW241919   5.876   3.413   7.695  0.5239  0.0415 -0.8377
13490SOL     OW41920   1.500   3.614   6.555  0.9682  0.0260  0.1846
13490SOL    HW141921   1.460   3.528   6.542  2.7882 -1.0122  1.0791
13490SOL    HW241922   1.441   3.658   6.617  1.0560 -1.3809  1.3179
13491SOL     OW41923   8.001   4.231   4.128 -0.3072  0.5156 -0.0388
13491SOL    HW141924   7.991   4.136   4.141 -0.5736  0.7150  1.4109
13491SOL    HW241925   8.055   4.259   4.202  0.0165  1.4618 -0.6173
13492SOL     OW41926   8.070   7.628   0.757  0.3213 -0.1321 -0.2480
13492SOL    HW141927   8.110   7.669   0.680  0.9507  0.5831  0.4449
13492SOL    HW241928   8.070   7.534   0.736  1.7332 -0.0924 -0.5731
13493SOL     OW41929   2.956   4.144   6.216  0.6629 -0.1255  0.0532
13493SOL    HW141930   3.025   4.103   6.268  0.0616  0.1057  1.0737
13493SOL    HW241931   2.977   4.237   6.218  0.3199 -0.0503  0.3973
13494SOL     OW41932   3.530   5.325   3.550 -0.1065 -1.0500  0.0282
13494SOL    HW141933   3.442   5.289   3.558 -1.5070  1.6868 -1.4610
13494SOL    HW241934   3.561   5.296   3.464 -0.2839 -0.6482 -0.1762
13495SOL     OW41935   3.599   2.531   5.224  0.1497  0.1099 -0.1033
13495SOL    HW141936   3.590   2.566   5.136 -1.7101 -0.2883 -0.1106
13495SOL    HW241937   3.634   2.604   5.276 -0.1043  0.7926 -0.8762
13496SOL     OW41938   8.829   5.318   9.086  0.6408 -0.0310 -0.1632
13496SOL    HW141939   8.778   5.242   9.115 -1.1406  0.1997 -2.4744
13496SOL    HW241940   8.856   5.360   9.168 -0.6254 -1.6364  1.1664
13497SOL     OW41941   0.024   0.299   4.998 -0.3790  0.5555 -0.0455
13497SOL    HW141942   0.101   0.251   5.028  0.2835  0.7001 -1.4443
13497SOL    HW241943  -0.021   0.325   5.079  1.2575  0.8275  0.8192
13498SOL     OW41944   0.546   3.895   3.836  0.7433  0.1108 -0.7014
13498SOL    HW141945   0.558   3.989   3.850  1.9196  0.2525 -2.2936
13498SOL    HW241946   0.477   3.890   3.769  0.0962 -0.2239 -0.0304
13499SOL     OW41947   1.949   0.429   7.525 -0.1897 -0.7423  0.2628
13499SOL    HW141948   1.989   0.420   7.612  0.0173  0.2581  0.2819
13499SOL    HW241949   1.965   0.520   7.501  2.5693 -1.7124 -2.1843
13500SOL     OW41950   5.536   3.077   1.129 -0.1170  0.1104  0.1021
13500SOL    HW141951   5.536   3.028   1.211  0.9647 -1.3289 -0.7012
13500SOL    HW241952   5.623   3.117   1.125  0.2205 -0.6700 -0.7818
13501SOL     OW41953   7.929   6.427   3.897 -0.4982  0.5247  0.1032
13501SOL    HW141954   8.000   6.461   3.951  0.2500 -0.2894 -0.3341
13501SOL    HW241955   7.945   6.464   3.810 -0.0965 -0.3270 -0.2012
13502SOL     OW41956   5.691   7.129   1.279  0.2275 -0.0490  0.4585
13502SOL    HW141957   5.709   7.191   1.208  2.3743 -0.7739  0.3180
13502SOL    HW241958   5.731   7.169   1.357 -1.4319  0.3643  1.1615
13503SOL     OW41959   2.848   5.112   5.197  0.1633  0.5258 -0.0101
13503SOL    HW141960   2.933   5.069   5.212  0.8825  1.8452 -0.1580
13503SOL    HW241961   2.794   5.044   5.158  1.3170 -0.2134 -0.3907
13504SOL     OW41962   3.010   4.484   2.917 -0.2270 -0.1567  0.3622
13504SOL    HW141963   3.097   4.524   2.929  0.1426 -0.5827 -0.7480
13504SOL    HW241964   3.012   4.405   2.971  1.1162 -1.6264 -1.6503
13505SOL     OW41965   6.454   4.744   4.900  0.1580 -0.3193  0.1980
13505SOL    HW141966   6.536   4.724   4.856  0.7933  1.3969  0.5208
13505SOL    HW241967   6.386   4.711   4.841  1.0519 -1.3094 -0.3050
13506SOL     OW41968   5.598   3.691   2.230  0.0894  0.0049 -0.0513
13506SOL    HW141969   5.608   3.695   2.135  0.5018 -0.2296 -0.0188
13506SOL    HW241970   5.678   3.651   2.261  0.6921  1.5741  0.5387
13507SOL     OW41971   4.665   5.286   7.051 -0.1631 -0.3622 -0.0227
13507SOL    HW141972   4.577   5.270   7.016 -0.0402 -1.8802  0.3290
13507SOL    HW241973   4.679   5.217   7.115  0.7141  0.7595  1.0394
13508SOL     OW41974   5.287   0.210   6.708  0.4674 -0.0738  0.4819
13508SOL    HW141975   5.286   0.302   6.683  0.2825 -0.1467  0.2224
13508SOL    HW241976   5.203   0.197   6.753  0.5706 -0.0723  0.6758
13509SOL     OW41977   7.709   3.594   3.712 -0.5573 -0.1154 -0.7894
13509SOL    HW141978   7.747   3.591   3.800  2.0898  1.7519 -1.7299
13509SOL    HW241979   7.720   3.506   3.678  0.1429 -0.3894  0.1062
13510SOL     OW41980   4.474   7.569   0.932  0.1836  0.5787  0.5517
13510SOL    HW141981   4.437   7.524   0.857 -2.1954  1.7484  0.9443
13510SOL    HW241982   4.563   7.592   0.904 -0.1768 -0.1750 -1.3829
13511SOL     OW41983   5.304   4.831   6.898  0.3071 -0.4840  0.2569
13511SOL    HW141984   5.350   4.913   6.915 -0.6022  0.0146  0.4004
13511SOL    HW241985   5.262   4.844   6.813  1.3460 -1.3594 -0.4054
13512SOL     OW41986   4.009   6.254   3.225 -0.2152 -0.2348  0.1510
13512SOL    HW141987   4.035   6.236   3.315  0.1702 -1.3707 -0.1755
13512SOL    HW241988   3.927   6.206   3.214 -1.5831  1.8682  0.6189
13513SOL     OW41989   6.701   5.221   2.007 -0.0532  0.7229  0.6112
13513SOL    HW141990   6.652   5.297   2.039  0.0969  1.0671  0.0550
13513SOL    HW241991   6.790   5.254   1.995  0.2054  0.2273  1.1635
13514SOL     OW41992   9.274   3.957   3.927 -0.2723  0.1861  0.5040
13514SOL    HW141993   9.343   3.913   3.876 -0.2680  0.6471  0.1042
13514SOL    HW241994   9.214   3.990   3.860 -0.6686  0.1359  0.8376
13515SOL     OW41995   8.304   3.800   8.532 -0.0465 -0.5493 -0.3077
13515SOL    HW141996   8.247   3.724   8.520  1.9322 -2.1254 -0.2994
13515SOL    HW241997   8.333   3.794   8.624 -0.2347  0.5099 -0.1660
13516SOL     OW41998   7.460   4.082   7.250 -0.1589  0.1502 -1.3165
13516SOL    HW141999   7.532   4.028   7.284  0.5715  1.3395 -0.9223
13516SOL    HW242000   7.500   4.168   7.234 -2.0219  1.7251  1.5865
13517SOL     OW42001   7.225   6.918   4.556  0.6743 -0.1517 -0.0345
13517SOL    HW142002   7.292   6.980   4.530  0.1899  0.0801 -0.7547
13517SOL    HW242003   7.213   6.862   4.480 -0.0536 -0.0939  0.0314
13518SOL     OW42004   6.472   7.245   3.734  0.1903  0.0023 -0.4761
13518SOL    HW142005   6.492   7.158   3.769  1.0395  0.2307 -0.3733
13518SOL    HW242006   6.377   7.254   3.746  0.0368 -1.0277 -0.7649
13519SOL     OW42007   8.860   1.923   1.457  0.3975 -0.0101  0.0766
13519SOL    HW142008   8.802   1.992   1.426 -2.6562 -2.5312 -0.3558
13519SOL    HW242009   8.814   1.886   1.532  1.4621 -2.1275 -0.2507
13520SOL     OW42010   2.396   9.176   6.153 -0.3247 -0.0475  0.0084
13520SOL    HW142011   2.318   9.198   6.102 -0.9807  1.6715  1.5910
13520SOL    HW242012   2.469   9.206   6.100 -0.8086 -0.6883 -1.0345
13521SOL     OW42013   0.610   1.302   7.605  0.7137 -0.4000  0.0641
13521SOL    HW142014   0.697   1.342   7.595  0.8330 -0.5509  0.5097
13521SOL    HW242015   0.627   1.208   7.605  0.7549 -0.4197  1.9552
13522SOL     OW42016   4.472   8.583   4.148  0.0217 -0.5555  0.0644
13522SOL    HW142017   4.415   8.578   4.224 -0.1248 -0.5559 -0.0457
13522SOL    HW242018   4.515   8.668   4.155 -2.7994  1.2312 -1.8380
13523SOL     OW42019   0.488   2.325   6.401  0.0327  0.5574  0.5126
13523SOL    HW142020   0.453   2.361   6.483  1.8020 -0.9395  2.0178
13523SOL    HW242021   0.547   2.394   6.368  1.3868  0.1714  1.9856
13524SOL     OW42022   5.992   4.516   3.441 -0.5154  0.1606 -0.2021
13524SOL    HW142023   6.024   4.446   3.498  0.2340 -0.1788 -1.0292
13524SOL    HW242024   5.897   4.510   3.447 -0.5090  1.1575  2.2744
13525SOL     OW42025   2.681   3.800   3.745  0.4378 -0.5227  0.7019
13525SOL    HW142026   2.638   3.862   3.804 -0.8645 -0.4929 -0.2342
13525SOL    HW242027   2.648   3.715   3.773 -0.6843 -0.4586 -0.3419
13526SOL     OW42028   5.882   2.304   6.151 -0.1076  0.3885  0.3268
13526SOL    HW142029   5.938   2.278   6.078 -0.6697 -0.0909  0.0607
13526SOL    HW242030   5.925   2.267   6.229  0.5911  1.0571  0.2722
13527SOL     OW42031   7.848   3.567   2.922 -0.2087 -0.4748 -0.0444
13527SOL    HW142032   7.794   3.521   2.858 -1.2581  0.2350  0.3066
13527SOL    HW242033   7.938   3.553   2.892 -0.7052  1.0941 -2.5352
13528SOL     OW42034   1.994   8.425   4.860  0.3113 -0.5231  0.2902
13528SOL    HW142035   2.054   8.366   4.814 -1.0878 -2.2090  0.5140
13528SOL    HW242036   1.912   8.417   4.813 -0.2736  0.2124  1.1502
13529SOL     OW42037   1.564   0.467   7.296 -0.3286  0.7165 -0.0778
13529SOL    HW142038   1.507   0.395   7.270  2.3527 -1.7503  0.4162
13529SOL    HW242039   1.518   0.508   7.370 -2.5222  0.3916 -1.1896
13530SOL     OW42040   2.441   3.945   8.229 -0.1199  0.1567 -0.0428
13530SOL    HW142041   2.490   3.908   8.156  0.5339  0.9447 -0.0167
13530SOL    HW242042   2.500   3.939   8.304 -1.0790 -1.3937  0.6452
13531SOL     OW42043   6.944   8.063   5.209 -0.0443 -0.3407  0.2606
13531SOL    HW142044   7.035   8.031   5.206  0.7461  1.7795 -2.2831
13531SOL    HW242045   6.891   7.983   5.207  1.7330 -1.6306  1.1512
13532SOL     OW42046   6.475   7.172   6.439  0.5472 -0.3610  0.4858
13532SOL    HW142047   6.515   7.151   6.524  1.0115 -4.6419 -0.5496
13532SOL    HW242048   6.537   7.138   6.374 -1.4809 -0.6615 -1.4082
13533SOL     OW42049   3.890   8.741   6.661 -0.1650  0.4341 -0.1050
13533SOL    HW142050   3.826   8.693   6.713 -1.1341 -0.8742 -2.3852
13533SOL    HW242051   3.914   8.816   6.717 -0.3199 -1.3932  2.6146
13534SOL     OW42052   8.094   0.652   9.256 -0.5071 -0.0842 -0.3098
13534SOL    HW142053   8.189   0.660   9.258 -0.6772  2.2332  0.7558
13534SOL    HW242054   8.066   0.708   9.185 -1.1658  0.5912  0.4616
13535SOL     OW42055   2.404   3.354   7.446  0.2646 -0.0491  0.3461
13535SOL    HW142056   2.467   3.374   7.515  1.6672 -0.2345 -0.8368
13535SOL    HW242057   2.379   3.440   7.411  1.9003 -0.0301 -0.9077
13536SOL     OW42058   7.387   6.448   7.670  0.2978 -0.4783  0.2815
13536SOL    HW142059   7.481   6.431   7.674  0.2179 -0.8399  0.7345
13536SOL    HW242060   7.350   6.395   7.740 -0.1414  0.4241  0.7504
13537SOL     OW42061   3.804   2.855   0.292 -0.1684 -0.3328 -0.0524
13537SOL    HW142062   3.800   2.793   0.364  0.1756 -0.7716 -0.4016
13537SOL    HW242063   3.892   2.893   0.298  0.2820 -1.1909 -0.8923
13538SOL     OW42064   8.399   0.852   5.794 -0.0088  0.0014  0.0815
13538SOL    HW142065   8.415   0.939   5.831 -0.7198  1.3994 -2.6206
13538SOL    HW242066   8.482   0.806   5.801  0.7111  1.3453  0.5193
13539SOL     OW42067   7.345   3.713   7.952 -0.2432  0.2592  0.1801
13539SOL    HW142068   7.405   3.761   8.009  0.7400  0.1998 -0.7672
13539SOL    HW242069   7.386   3.717   7.866 -2.0846  1.0622 -0.7273
13540SOL     OW42070   2.571   1.061   6.210  0.2758 -0.9668  0.1812
13540SOL    HW142071   2.639   1.049   6.144 -0.0968 -1.3275 -0.1406
13540SOL    HW242072   2.509   1.123   6.171  0.9397  0.1796  0.8826
13541SOL     OW42073   0.849   4.062   1.374  0.2095 -0.5109 -0.0925
13541SOL    HW142074   0.902   4.072   1.454  1.3713 -0.5713 -0.8258
13541SOL    HW242075   0.863   4.144   1.326 -2.1270  0.4180  0.6718
13542SOL     OW42076   4.744   5.548   0.184  0.5193  0.0623 -0.3372
13542SOL    HW142077   4.798   5.591   0.251 -0.5180 -1.1017  1.3513
13542SOL    HW242078   4.788   5.465   0.168  0.2908 -0.0475 -0.4029
13543SOL     OW42079   5.626   5.352   0.437 -0.8809 -0.1014  0.5401
13543SOL    HW142080   5.601   5.322   0.350  2.4600  1.2469 -1.0547
13543SOL    HW242081   5.715   5.385   0.427  0.2740 -1.2214  4.8029
13544SOL     OW42082   6.489   4.936   7.505  0.2149  0.0286 -0.0736
13544SOL    HW142083   6.544   4.863   7.476  0.7677  1.6679 -3.6201
13544SOL    HW242084   6.551   5.003   7.535 -0.0198  0.5042 -0.6174
13545SOL     OW42085   0.385   2.640   8.274 -0.2195 -0.0058  0.1181
13545SOL    HW142086   0.367   2.547   8.264  0.4390 -0.0636 -0.6597
13545SOL    HW242087   0.479   2.645   8.291 -0.1658  0.5346 -0.2918
13546SOL     OW42088   3.989   3.704   8.811 -0.2206  0.0632 -0.3209
13546SOL    HW142089   3.915   3.711   8.751 -1.5003  0.3638  1.2215
13546SOL    HW242090   4.055   3.765   8.776 -1.2711  0.8738 -0.9426
13547SOL     OW42091   5.591   2.330   8.160 -0.0808 -0.3707 -0.2498
13547SOL    HW142092   5.616   2.319   8.252 -0.4720  0.1644 -0.0753
13547SOL    HW242093   5.643   2.265   8.113 -0.3418 -1.0808  0.4260
13548SOL     OW42094   7.727   7.318   5.079 -0.1617 -0.0803  0.0960
13548SOL    HW142095   7.749   7.291   5.169  0.9900 -1.8606 -0.6432
13548SOL    HW242096   7.704   7.236   5.035 -0.9849  0.7998 -1.1694
13549SOL     OW42097   5.014   7.427   2.631 -0.5285  0.1135  0.3804
13549SOL    HW142098   5.083   7.456   2.572 -1.0512 -0.5258 -0.5675
13549SOL    HW242099   5.003   7.499   2.692 -0.0746  0.8491 -0.3830
13550SOL     OW42100   4.264   3.644   5.285 -0.4005 -0.3646 -0.0527
13550SOL    HW142101   4.248   3.724   5.235  1.5924  0.3385  0.3495
13550SOL    HW242102   4.179   3.600   5.286 -1.2300  1.0660 -1.4402
13551SOL     OW42103   0.369   7.271   4.485  0.3998  0.3243 -0.0047
13551SOL    HW142104   0.295   7.310   4.440  0.7442  0.5288 -0.4017
13551SOL    HW242105   0.405   7.342   4.539  0.4185  0.2788  0.0438
13552SOL     OW42106   5.851   0.383   2.599 -0.4732 -0.6707  0.0716
13552SOL    HW142107   5.919   0.447   2.621  0.8418 -1.3536 -1.7969
13552SOL    HW242108   5.894   0.298   2.608 -0.3570 -1.0566 -3.1180
13553SOL     OW42109   7.401   0.727   1.077  0.7367 -0.5889  0.6453
13553SOL    HW142110   7.365   0.815   1.078 -0.0590 -0.8779 -0.5445
13553SOL    HW242111   7.384   0.693   1.165 -2.3086 -0.8460  0.0682
13554SOL     OW42112   5.224   2.414   1.024  0.4089  0.4462  0.4923
13554SOL    HW142113   5.257   2.456   0.944  1.7524 -2.2767 -0.4872
13554SOL    HW242114   5.141   2.374   0.997 -0.3010  1.4426  1.1248
13555SOL     OW42115   6.519   8.613   4.923 -0.3262 -0.1616  0.0962
13555SOL    HW142116   6.610   8.596   4.947 -0.8103 -1.1326  1.3862
13555SOL    HW242117   6.478   8.644   5.004 -1.3722 -0.7339 -0.1935
13556SOL     OW42118   8.921   0.047   7.960 -0.2744  0.2282 -0.2813
13556SOL    HW142119   8.868   0.092   7.894 -1.9668 -1.5845 -0.2599
13556SOL    HW242120   9.006   0.035   7.919 -0.1502  2.2847 -0.7287
13557SOL     OW42121   0.868   5.645   9.075 -0.0595  0.0714 -0.5679
13557SOL    HW142122   0.791   5.701   9.074 -0.4911 -0.5123 -0.9143
13557SOL    HW242123   0.847   5.574   9.014 -0.2733 -1.4148  1.1200
13558SOL     OW42124   4.832   8.640   7.558  0.1941 -0.3319  0.1681
13558SOL    HW142125   4.757   8.595   7.520  0.2629  0.3155 -0.7733
13558SOL    HW242126   4.817   8.732   7.538  0.0628  0.0974  2.0493
13559SOL     OW42127   1.413   8.241   0.222  0.2560 -0.0407  1.0817
13559SOL    HW142128   1.368   8.323   0.206 -0.2734 -0.2840  1.3183
13559SOL    HW242129   1.506   8.263   0.213  0.0612 -0.0710 -1.9813
13560SOL     OW42130   6.971   4.233   6.301 -0.2330 -0.2055  0.2362
13560SOL    HW142131   6.895   4.229   6.358 -0.1356 -0.2842  0.3603
13560SOL    HW242132   7.044   4.256   6.359  0.1901 -1.9588  0.4585
13561SOL     OW42133   5.966   1.230   8.826  0.0997 -0.2639 -0.1334
13561SOL    HW142134   5.963   1.325   8.816  0.8451 -0.4401 -2.7458
13561SOL    HW242135   6.057   1.210   8.846  0.2410 -0.5009 -0.9704
13562SOL     OW42136   1.603   9.146   8.932 -0.0667  0.0613  0.5613
13562SOL    HW142137   1.675   9.173   8.874 -1.1151 -0.6722 -1.1756
13562SOL    HW242138   1.615   9.052   8.941 -1.6042 -0.3387 -1.0036
13563SOL     OW42139   1.786   5.987   8.195 -0.3620 -0.1485 -0.8885
13563SOL    HW142140   1.728   6.063   8.203 -2.1819 -1.5129 -0.6307
13563SOL    HW242141   1.728   5.912   8.200  1.4382 -1.5919 -0.8007
13564SOL     OW42142   5.063   1.590   8.462  0.1440  0.1739 -0.5550
13564SOL    HW142143   5.146   1.556   8.428  0.9826  1.7550 -0.1847
13564SOL    HW242144   5.068   1.576   8.556 -0.4520 -0.6113 -0.6316
13565SOL     OW42145   4.312   2.822   5.998  0.1432 -0.3769  0.0311
13565SOL    HW142146   4.348   2.897   6.047 -2.1889  0.7204  0.2032
13565SOL    HW242147   4.322   2.847   5.906 -0.1107 -0.1093  0.0755
13566SOL     OW42148   8.691   3.612   0.044  0.2269  0.0738 -0.0010
13566SOL    HW142149   8.663   3.689   0.095 -1.6824  1.1599 -2.4487
13566SOL    HW242150   8.769   3.642  -0.004  1.3289 -0.5708  1.3379
13567SOL     OW42151   8.605   4.857   7.338 -0.1450 -0.1005 -0.5814
13567SOL    HW142152   8.594   4.917   7.412  1.6652  0.1891 -0.4987
13567SOL    HW242153   8.650   4.908   7.271  2.1648 -1.5159 -0.2094
13568SOL     OW42154   0.210   7.920   2.178  0.7292  0.2473 -0.2159
13568SOL    HW142155   0.183   7.844   2.126  1.9295  0.3906 -1.0910
13568SOL    HW242156   0.148   7.989   2.154  1.3350  0.3446 -1.5628
13569SOL     OW42157   0.328   4.915   1.928  0.4132  0.3620 -0.3050
13569SOL    HW142158   0.315   4.846   1.994 -0.8320 -0.6155 -1.5236
13569SOL    HW242159   0.314   4.996   1.976  1.0683 -0.2404  0.9780
13570SOL     OW42160   6.639   0.716   8.442 -0.2801  0.4561 -0.4989
13570SOL    HW142161   6.606   0.627   8.455  0.8405  0.2869  1.6668
13570SOL    HW242162   6.727   0.704   8.406  0.4978  0.5788  1.2689
13571SOL     OW42163   0.363   2.659   0.642  0.2297 -0.2942  0.0320
13571SOL    HW142164   0.324   2.605   0.711  0.4661 -1.0915 -0.4512
13571SOL    HW242165   0.324   2.746   0.655 -1.2746 -0.9280 -0.0999
13572SOL     OW42166   4.233   5.226   2.127 -0.1519 -0.6408 -0.4377
13572SOL    HW142167   4.207   5.315   2.152 -0.4690 -0.4759 -1.3038
13572SOL    HW242168   4.204   5.171   2.200 -1.7085 -0.2810 -0.7358
13573SOL     OW42169   7.889   1.994   9.212 -0.5649 -0.0899  0.2503
13573SOL    HW142170   7.929   2.080   9.222 -2.9395  1.4267 -2.0492
13573SOL    HW242171   7.826   1.988   9.284 -1.4050  0.7594 -0.3932
13574SOL     OW42172   6.090   0.524   4.596  0.1759  0.0065  0.4650
13574SOL    HW142173   6.043   0.548   4.516  0.4298  0.5480  0.4774
13574SOL    HW242174   6.066   0.432   4.611  0.0055 -0.0532 -0.1468
13575SOL     OW42175   8.525   1.179   8.320 -0.4938  0.5403 -0.1771
13575SOL    HW142176   8.461   1.132   8.266  0.5895 -0.2891 -0.7637
13575SOL    HW242177   8.553   1.253   8.267 -1.4341  1.3155  0.3510
13576SOL     OW42178   2.150   1.769   5.241 -0.3015 -0.8126 -1.0714
13576SOL    HW142179   2.091   1.741   5.311 -0.5831 -0.9069 -1.3459
13576SOL    HW242180   2.163   1.691   5.187 -1.4553 -0.3103 -2.1006
13577SOL     OW42181   3.705   7.705   0.947 -0.2330 -0.6862  0.6661
13577SOL    HW142182   3.768   7.638   0.973  0.6624 -0.2444 -0.2739
13577SOL    HW242183   3.754   7.787   0.954 -0.6893 -0.3385 -0.1179
13578SOL     OW42184   1.408   2.936   2.856  0.2837  0.6108  0.1739
13578SOL    HW142185   1.367   2.851   2.875  1.1929  0.3766  1.1402
13578SOL    HW242186   1.359   2.969   2.780  0.3851 -1.0995 -0.6725
13579SOL     OW42187   8.087   5.986   7.205 -0.7621 -0.4407 -0.3565
13579SOL    HW142188   8.090   5.991   7.300 -1.7866 -1.9387 -0.2072
13579SOL    HW242189   8.081   6.077   7.176  0.5389  0.0875  0.9414
13580SOL     OW42190   6.515   0.086   6.904  0.0062 -0.4109 -0.3254
13580SOL    HW142191   6.427   0.125   6.900  0.5118  0.9745  1.3629
13580SOL    HW242192   6.568   0.140   6.846  0.1454 -0.1161  0.0733
13581SOL     OW42193   5.797   8.305   2.033 -0.1989  0.2467  0.1403
13581SOL    HW142194   5.812   8.255   1.953  1.1705  0.8733 -0.0251
13581SOL    HW242195   5.852   8.263   2.099  1.0773  1.5706 -0.0340
13582SOL     OW42196   2.771   4.710   8.270 -0.5515  0.4198  0.2873
13582SOL    HW142197   2.734   4.705   8.182  0.3595 -0.1669 -0.0791
13582SOL    HW242198   2.858   4.746   8.257 -0.4052  0.3123  0.9532
13583SOL     OW42199   6.571   5.763   5.227 -0.2586 -0.4812  0.3403
13583SOL    HW142200   6.574   5.858   5.236  1.8686 -0.5490  0.9114
13583SOL    HW242201   6.518   5.733   5.301 -0.2912  0.2147  0.6047
13584SOL     OW42202   1.880   2.104   1.485 -0.1855  0.1341  0.3175
13584SOL    HW142203   1.941   2.065   1.547 -1.2451  0.3879  1.5478
13584SOL    HW242204   1.860   2.033   1.424 -0.2668 -0.5618  1.1305
13585SOL     OW42205   7.721   6.670   3.991  0.3669  0.0838 -0.8231
13585SOL    HW142206   7.803   6.716   4.010 -0.0246  0.4352  0.0997
13585SOL    HW242207   7.655   6.740   3.990 -0.0202 -0.2832 -0.8663
13586SOL     OW42208   7.280   7.553   7.371 -0.6389 -0.4551 -0.3288
13586SOL    HW142209   7.241   7.640   7.379  0.9720  0.2215  0.6254
13586SOL    HW242210   7.217   7.494   7.412 -0.9514  0.5143  0.6192
13587SOL     OW42211   1.708   2.652   0.291 -0.1837 -0.0514 -0.1977
13587SOL    HW142212   1.645   2.672   0.222  0.3805  0.2366 -0.6316
13587SOL    HW242213   1.785   2.618   0.245  0.2774  0.3425  0.2678
13588SOL     OW42214   2.276   1.619   9.057 -0.5088  0.0144 -0.3689
13588SOL    HW142215   2.257   1.713   9.051 -0.2685  0.0425 -0.7058
13588SOL    HW242216   2.368   1.611   9.032 -0.3676 -0.2448  0.2239
13589SOL     OW42217   8.440   4.105   7.715  0.3050  0.5041 -0.1800
13589SOL    HW142218   8.515   4.061   7.675  0.0566 -0.2554  0.1661
13589SOL    HW242219   8.439   4.074   7.805 -2.2156 -2.0009 -0.9045
13590SOL     OW42220   2.897   4.874   3.610 -0.2350 -0.2230  0.7697
13590SOL    HW142221   2.956   4.831   3.671  0.3215  1.2519  1.3133
13590SOL    HW242222   2.848   4.802   3.569  2.4115 -1.5848 -0.2456
13591SOL     OW42223   3.863   5.462   5.133  0.1259  0.3898  0.2789
13591SOL    HW142224   3.863   5.462   5.229 -1.6545  0.7495  0.3061
13591SOL    HW242225   3.870   5.370   5.109 -0.1119  0.2384  0.7719
13592SOL     OW42226   3.910   6.349   8.208 -0.4562 -0.1895  0.1022
13592SOL    HW142227   3.842   6.299   8.254 -0.0823  0.8200  1.8452
13592SOL    HW242228   3.992   6.308   8.234 -0.2873 -0.2351 -0.4940
13593SOL     OW42229   7.474   8.415   1.873 -0.6372 -0.1751 -0.3990
13593SOL    HW142230   7.403   8.466   1.833 -1.6591 -1.2634 -0.0407
13593SOL    HW242231   7.430   8.339   1.911  0.4782  0.0664  1.5150
13594SOL     OW42232   8.543   8.122   1.785  0.2348  0.1758 -0.3723
13594SOL    HW142233   8.513   8.071   1.711  0.6633 -0.2167 -0.2796
13594SOL    HW242234   8.617   8.072   1.821 -1.3842 -0.8625  1.7422
13595SOL     OW42235   3.053   9.086   1.540 -0.7520 -0.3816 -0.2926
13595SOL    HW142236   2.990   9.133   1.485 -0.6551  0.0205 -0.0704
13595SOL    HW242237   3.047   9.130   1.625 -0.0764 -0.2535 -0.3076
13596SOL     OW42238   5.490   8.841   4.770  0.3918  0.1523  0.5048
13596SOL    HW142239   5.407   8.876   4.803 -0.7909 -3.1189  1.3986
13596SOL    HW242240   5.557   8.889   4.818 -0.9735  2.1662  0.5156
13597SOL     OW42241   3.288   6.178   3.111  0.9923 -0.1663 -0.5094
13597SOL    HW142242   3.285   6.234   3.189  0.9771 -1.5231  0.4923
13597SOL    HW242243   3.381   6.162   3.097  1.0995  1.3640 -1.7498
13598SOL     OW42244   6.886   5.711   7.002 -0.4343 -0.3287 -0.3278
13598SOL    HW142245   6.884   5.778   7.069 -1.4546  0.2475 -0.8986
13598SOL    HW242246   6.806   5.726   6.951  0.7567 -0.1369 -2.2489
13599SOL     OW42247   1.378   9.169   7.568  0.8659  1.0833 -0.3694
13599SOL    HW142248   1.362   9.262   7.551  3.6046  2.2898  2.6498
13599SOL    HW242249   1.458   9.149   7.520  0.2654  0.1810 -1.0478
13600SOL     OW42250   5.630   3.696   6.684 -0.6501  0.3062  0.6703
13600SOL    HW142251   5.663   3.786   6.679  0.5997 -0.0647  1.8172
13600SOL    HW242252   5.681   3.655   6.753  1.7452 -2.5162 -2.4486
13601SOL     OW42253   5.903   6.536   1.677 -0.1574  0.8128  0.0017
13601SOL    HW142254   5.828   6.483   1.704 -1.5818  2.2182 -1.0040
13601SOL    HW242255   5.929   6.584   1.755 -0.1366  0.1442  0.4133
13602SOL     OW42256   7.404   5.381   8.989  0.1188 -0.1143  0.0582
13602SOL    HW142257   7.341   5.320   9.028 -0.2494 -0.2070 -0.6617
13602SOL    HW242258   7.363   5.408   8.907  1.2483 -0.5662 -0.6735
13603SOL     OW42259   8.160   1.772   2.520  0.6174  0.2498 -0.1771
13603SOL    HW142260   8.087   1.780   2.581  0.1766  0.7355 -0.7520
13603SOL    HW242261   8.169   1.678   2.506  1.4476  0.0499  1.4651
13604SOL     OW42262   3.335   2.298   1.909  0.4003  0.0775 -0.0576
13604SOL    HW142263   3.323   2.335   1.997  1.1080  1.0353 -0.3465
13604SOL    HW242264   3.284   2.217   1.910 -2.1866  1.5907  0.2471
13605SOL     OW42265   8.297   0.878   7.509 -0.0401 -1.0278 -0.0551
13605SOL    HW142266   8.320   0.790   7.479  0.5078 -0.9259  0.0535
13605SOL    HW242267   8.203   0.874   7.525  0.0551 -1.7229  0.3746
13606SOL     OW42268   7.780   7.735   3.139  0.1439 -0.1471 -0.2461
13606SOL    HW142269   7.712   7.675   3.109  2.0273 -2.3193 -0.4540
13606SOL    HW242270   7.813   7.695   3.220 -0.6568  2.3450  1.4115
13607SOL     OW42271   2.005   5.417   3.710 -0.0003 -0.9576 -0.2746
13607SOL    HW142272   1.944   5.384   3.777 -1.0695 -2.9381 -2.0892
13607SOL    HW242273   1.986   5.511   3.705  0.6020 -0.5918  2.5997
13608SOL     OW42274   8.202   2.399   4.582 -0.5467 -0.2215  0.1880
13608SOL    HW142275   8.168   2.396   4.492  0.1314 -0.0883 -0.0782
13608SOL    HW242276   8.194   2.491   4.608 -0.0559 -0.1191 -0.0108
13609SOL     OW42277   3.847   8.231   3.743  0.1527 -0.3389  0.6827
13609SOL    HW142278   3.785   8.250   3.813 -0.0361 -0.1046  0.4547
13609SOL    HW242279   3.800   8.172   3.684 -0.1863  0.5748  0.0267
13610SOL     OW42280   7.905   6.871   3.566 -0.1658 -0.4675  0.3206
13610SOL    HW142281   7.840   6.807   3.595 -1.0856  1.4029  2.6124
13610SOL    HW242282   7.945   6.903   3.646 -0.4765  2.5869 -0.6313
13611SOL     OW42283   9.222   7.496   3.403 -0.1035 -0.4638  0.2866
13611SOL    HW142284   9.127   7.498   3.394 -0.4089  0.8350  2.8857
13611SOL    HW242285   9.240   7.550   3.480  2.7521 -0.6837 -0.1255
13612SOL     OW42286   2.992   2.501   6.526  0.3127 -0.0926  0.1300
13612SOL    HW142287   2.981   2.596   6.526 -0.1254 -0.1402 -0.1849
13612SOL    HW242288   3.062   2.485   6.589 -0.3416  0.3543  0.9976
13613SOL     OW42289   7.092   7.112   6.104  0.5929 -0.0405  0.0234
13613SOL    HW142290   7.185   7.133   6.108  0.2514  1.4278  0.9809
13613SOL    HW242291   7.074   7.068   6.187  0.0816  1.3730  0.6970
13614SOL     OW42292   0.953   5.937   1.242 -0.2089  0.0776  0.3526
13614SOL    HW142293   0.869   5.972   1.212 -0.3422  1.1559  1.8611
13614SOL    HW242294   0.970   5.983   1.325  1.7241 -0.3277  0.2344
13615SOL     OW42295   8.526   3.727   4.963  0.5018  0.4089 -0.4087
13615SOL    HW142296   8.613   3.766   4.952  1.5793 -1.0031  2.2148
13615SOL    HW242297   8.503   3.695   4.876  2.2009  1.5913 -1.3554
13616SOL     OW42298   7.336   8.142   6.291  0.2496 -0.0209  0.3124
13616SOL    HW142299   7.244   8.165   6.280  0.9190  2.8219 -0.0620
13616SOL    HW242300   7.384   8.207   6.240  2.4788 -2.0038 -0.3275
13617SOL     OW42301   3.426   2.841   3.165  0.6873  0.0409 -0.0618
13617SOL    HW142302   3.373   2.872   3.092 -0.9368  0.3040  1.1630
13617SOL    HW242303   3.510   2.818   3.126 -0.5506 -1.1409 -2.2292
13618SOL     OW42304   5.098   8.513   0.319  0.4638  0.3619 -0.2962
13618SOL    HW142305   5.012   8.477   0.298  0.8748 -1.6715  1.2239
13618SOL    HW242306   5.079   8.588   0.376 -0.3032  0.7283 -1.0036
13619SOL     OW42307   4.312   6.097   5.194 -0.0401 -0.2542  0.0323
13619SOL    HW142308   4.222   6.109   5.224 -0.0332 -1.2200  0.4605
13619SOL    HW242309   4.355   6.048   5.264  1.0846  0.9873  0.2506
13620SOL     OW42310   7.444   2.844   5.193  0.4433  0.3447  0.1000
13620SOL    HW142311   7.419   2.926   5.237 -1.3837 -0.6564  1.0581
13620SOL    HW242312   7.373   2.829   5.130  2.2789  0.9847 -2.2622
13621SOL     OW42313   6.780   8.495   4.015  0.1040  0.6687 -0.4069
13621SOL    HW142314   6.739   8.415   4.048  1.7596  0.7240  2.0157
13621SOL    HW242315   6.710   8.539   3.966 -0.9938 -1.9516 -1.3766
13622SOL     OW42316   7.630   6.605   4.914  0.1421 -0.4542  0.4987
13622SOL    HW142317   7.622   6.513   4.890  0.1501 -0.2817 -0.2092
13622SOL    HW242318   7.628   6.651   4.830 -0.1599  0.2086  0.8627
13623SOL     OW42319   6.613   2.965   5.972 -0.3858 -0.3180 -0.4948
13623SOL    HW142320   6.653   3.050   5.957 -0.9009  0.0734  0.2863
13623SOL    HW242321   6.533   2.984   6.022 -0.0279 -1.3216  0.5234
13624SOL     OW42322   4.840   2.395   7.777  0.3569  0.0469 -0.6462
13624SOL    HW142323   4.910   2.459   7.769  0.7060 -0.2610 -0.1342
13624SOL    HW242324   4.885   2.310   7.779 -0.0552 -0.1760 -0.6897
13625SOL     OW42325   3.127   4.900   7.508  0.4447  0.4762  0.4750
13625SOL    HW142326   3.119   4.984   7.553 -1.5491  0.7785 -0.3175
13625SOL    HW242327   3.072   4.840   7.558  0.8959 -0.0470  0.3511
13626SOL     OW42328   7.248   1.516   1.310 -0.7231  0.3664 -0.5475
13626SOL    HW142329   7.240   1.447   1.375 -0.0621 -0.0377 -0.8845
13626SOL    HW242330   7.176   1.501   1.249  1.1547 -1.9800 -2.4048
13627SOL     OW42331   4.412   7.096   6.590  0.3256 -0.1993 -0.1501
13627SOL    HW142332   4.376   7.097   6.501  0.9083 -2.1858 -0.4671
13627SOL    HW242333   4.353   7.037   6.638  1.7547 -1.6221 -0.0686
13628SOL     OW42334   1.374   5.871   2.980  0.6379 -0.3431  0.3226
13628SOL    HW142335   1.379   5.799   3.043  0.9173 -0.6105 -0.0061
13628SOL    HW242336   1.463   5.905   2.976  0.4585  0.1864  0.6625
13629SOL     OW42337   4.940   6.070   4.131  0.0740 -0.4771 -0.3521
13629SOL    HW142338   5.009   6.008   4.108  0.1112 -0.8497  0.7233
13629SOL    HW242339   4.920   6.114   4.049  2.9421  1.0123 -0.4075
13630SOL     OW42340   6.885   2.827   2.384 -0.4460 -0.3788 -0.0521
13630SOL    HW142341   6.871   2.922   2.391 -0.2858 -0.4489  2.1657
13630SOL    HW242342   6.828   2.790   2.452 -1.0477 -1.9496 -1.3664
13631SOL     OW42343   6.549   0.051   0.658  0.2045 -0.7203  0.7046
13631SOL    HW142344   6.583   0.115   0.721 -1.4493  0.6822  0.2503
13631SOL    HW242345   6.541   0.100   0.576 -0.8622 -1.5687  0.2716
13632SOL     OW42346   0.621   3.984   1.807  0.3192 -0.2981 -0.0918
13632SOL    HW142347   0.628   3.918   1.738  0.3729 -1.7134  1.1824
13632SOL    HW242348   0.654   3.939   1.885  0.0521  1.1622  0.9025
13633SOL     OW42349   6.247   9.081   8.964 -0.3715 -0.1490  0.2287
13633SOL    HW142350   6.293   9.080   9.047  0.5599  1.8431 -0.2104
13633SOL    HW242351   6.198   8.998   8.962  0.1946 -0.5764  2.3758
13634SOL     OW42352   3.242   3.147   5.607  0.5869  0.2535 -0.1733
13634SOL    HW142353   3.148   3.150   5.622  0.2027  3.2724 -2.2821
13634SOL    HW242354   3.261   3.054   5.592 -1.5736 -0.7358  2.4733
13635SOL     OW42355   3.591   6.756   6.893 -0.2774 -0.9653  0.0607
13635SOL    HW142356   3.511   6.809   6.896 -0.6839 -1.5804  0.0985
13635SOL    HW242357   3.643   6.795   6.823 -1.0120 -1.1292 -0.5807
13636SOL     OW42358   7.832   6.809   7.076 -0.0620 -0.4701 -0.1992
13636SOL    HW142359   7.842   6.771   6.989 -2.5028  1.2417 -1.3396
13636SOL    HW242360   7.847   6.903   7.064 -3.6656  0.3452  0.3929
13637SOL     OW42361   2.464   5.933   4.044 -0.1387 -0.3857 -0.6296
13637SOL    HW142362   2.423   5.861   4.092 -1.7380  0.8172 -0.0923
13637SOL    HW242363   2.466   5.904   3.953 -0.4154 -1.2490 -0.3693
13638SOL     OW42364   0.802   8.008   5.279  0.2157  0.0250  0.1821
13638SOL    HW142365   0.808   8.101   5.258  0.0190 -0.4353 -2.2724
13638SOL    HW242366   0.773   8.006   5.370  1.3129  2.3262  0.6745
13639SOL     OW42367   4.484   4.806   0.954  0.1093 -0.3416 -0.5856
13639SOL    HW142368   4.539   4.813   0.876 -0.9958  0.0870 -1.3464
13639SOL    HW242369   4.412   4.866   0.938 -1.1421 -1.6576 -0.0791
13640SOL     OW42370   0.861   4.746   0.642 -0.0503 -0.0929 -0.1013
13640SOL    HW142371   0.947   4.755   0.683 -0.2867  2.2581  0.0206
13640SOL    HW242372   0.841   4.653   0.648  2.2432 -0.6133  0.3343
13641SOL     OW42373   4.014   8.755   3.112 -0.0910  0.1919 -0.1915
13641SOL    HW142374   3.997   8.743   3.019 -3.4623 -0.5428  0.3854
13641SOL    HW242375   3.986   8.673   3.153  0.5341  0.7915  1.5415
13642SOL     OW42376   8.881   4.355   7.699  0.5235  0.0851 -0.0633
13642SOL    HW142377   8.847   4.363   7.610 -0.6485  1.0141  0.4562
13642SOL    HW242378   8.897   4.445   7.727  2.1534 -0.2617  0.2108
13643SOL     OW42379   6.055   5.101   1.588  0.3099  0.4584  0.4418
13643SOL    HW142380   6.100   5.051   1.657  1.4639  0.9001  0.0229
13643SOL    HW242381   6.099   5.185   1.586 -1.8333  1.6816  1.3620
13644SOL     OW42382   0.742   8.959   3.825  0.2264 -0.1456  0.6056
13644SOL    HW142383   0.819   9.010   3.852  0.2447 -0.5935  1.4518
13644SOL    HW242384   0.720   8.907   3.903 -0.9650  0.0085  0.3784
13645SOL     OW42385   8.672   7.852   1.864  0.6145  0.6640  0.3949
13645SOL    HW142386   8.723   7.785   1.908 -0.0513  2.1654  3.7837
13645SOL    HW242387   8.693   7.933   1.912 -0.1169  2.5264 -2.2232
13646SOL     OW42388   5.808   7.074   6.026 -0.2975  0.2301  0.1090
13646SOL    HW142389   5.869   7.022   6.078 -0.4378  1.6091  1.7422
13646SOL    HW242390   5.837   7.165   6.038 -0.6521  0.6447 -1.8489
13647SOL     OW42391   5.054   6.939   4.568 -0.4308  0.6743  0.0740
13647SOL    HW142392   4.986   6.895   4.619 -0.4523  0.7636  0.1222
13647SOL    HW242393   5.008   6.974   4.492 -0.9025  2.7903  1.2557
13648SOL     OW42394   0.071   6.293   0.146 -0.6764 -0.3118 -0.3422
13648SOL    HW142395   0.072   6.370   0.203  0.7394 -0.8951  0.4578
13648SOL    HW242396   0.082   6.219   0.205  2.2151 -0.8590 -1.4120
13649SOL     OW42397   8.015   4.789   7.920 -0.3930 -0.1910 -0.2895
13649SOL    HW142398   7.933   4.740   7.919  0.0158 -0.8875 -0.1481
13649SOL    HW242399   7.995   4.869   7.870 -0.5940 -1.2862 -2.0552
13650SOL     OW42400   2.740   5.280   4.994  0.0044 -0.0299 -0.2263
13650SOL    HW142401   2.757   5.216   5.062 -3.6031  0.5119  1.3581
13650SOL    HW242402   2.713   5.359   5.041  2.2120  2.0629 -2.1899
13651SOL     OW42403   2.408   7.076   6.223  0.9937  0.1012 -0.2576
13651SOL    HW142404   2.379   6.985   6.212  2.1532 -0.2387 -0.6291
13651SOL    HW242405   2.424   7.084   6.317  0.5948  0.0172 -0.1800
13652SOL     OW42406   5.604   6.272   5.983  0.5208 -0.0083  0.3618
13652SOL    HW142407   5.680   6.225   5.950  1.0947  0.7635  0.5586
13652SOL    HW242408   5.628   6.365   5.977  0.3425  0.1875  2.1657
13653SOL     OW42409   7.243   0.405   8.056  0.3750  0.0581 -0.4197
13653SOL    HW142410   7.259   0.463   7.982 -0.9436 -0.9612 -1.5572
13653SOL    HW242411   7.310   0.337   8.048  0.0859 -0.1816 -0.8313
13654SOL     OW42412   2.222   5.963   5.969 -0.3850  0.3382 -0.0724
13654SOL    HW142413   2.182   5.945   5.884  1.3364  1.1087 -1.1183
13654SOL    HW242414   2.243   5.876   6.004 -1.2291  0.0053 -0.3650
13655SOL     OW42415   2.752   7.780   1.924 -0.4731 -0.0814  0.0920
13655SOL    HW142416   2.806   7.769   1.846 -0.6132  1.1315 -0.2027
13655SOL    HW242417   2.736   7.691   1.956  3.4720 -0.4951  1.4337
13656SOL     OW42418   0.456   4.086   5.310 -0.1354  0.3571 -0.2226
13656SOL    HW142419   0.388   4.019   5.318 -0.0975  0.2985 -0.3835
13656SOL    HW242420   0.409   4.165   5.284 -0.2248  0.4817  0.2995
13657SOL     OW42421   2.527   1.396   8.789 -0.0168 -0.4684 -0.0764
13657SOL    HW142422   2.476   1.440   8.721  0.4555  0.9407  0.4483
13657SOL    HW242423   2.596   1.351   8.741 -0.4179 -0.5152 -0.6249
13658SOL     OW42424   0.054   9.158   6.096 -0.1858  0.2257  0.6602
13658SOL    HW142425   0.025   9.211   6.171  0.3044  0.1261  0.9218
13658SOL    HW242426   0.093   9.080   6.135 -1.5886 -0.7185  0.2660
13659SOL     OW42427   0.666   6.196   4.636  0.2829  0.6237  0.5674
13659SOL    HW142428   0.666   6.254   4.712 -2.0981  1.0660  0.3386
13659SOL    HW242429   0.598   6.131   4.655  0.0257  0.4025 -0.9149
13660SOL     OW42430   3.478   3.149   2.861  0.4526  0.0138  0.3469
13660SOL    HW142431   3.410   3.103   2.909  0.1581  0.1512  0.0671
13660SOL    HW242432   3.542   3.081   2.838 -1.4409 -0.9386 -2.7248
13661SOL     OW42433   2.658   5.049   8.912  0.3415  0.0146 -0.1814
13661SOL    HW142434   2.593   5.005   8.967  2.1934 -2.2006  0.4146
13661SOL    HW242435   2.608   5.085   8.839 -1.4846 -2.5413 -0.3249
13662SOL     OW42436   5.926   8.404   4.220 -0.7449  0.3701 -0.3779
13662SOL    HW142437   5.954   8.484   4.176  0.1000 -1.2356 -2.9674
13662SOL    HW242438   5.926   8.337   4.152 -0.7047 -2.0391  1.8111
13663SOL     OW42439   0.019   0.218   0.304 -0.1335 -0.0907 -0.0466
13663SOL    HW142440   0.062   0.154   0.247  0.0731  0.8031 -0.9223
13663SOL    HW242441  -0.059   0.244   0.256  0.4491  1.2612 -0.3192
13664SOL     OW42442   7.958   2.039   1.526  0.2562 -0.3927 -0.4028
13664SOL    HW142443   7.896   2.057   1.596 -0.4742  0.5921 -1.2736
13664SOL    HW242444   7.913   1.978   1.468  0.6420 -0.7651 -0.3156
13665SOL     OW42445   5.304   0.474   1.935 -0.0591  0.2859 -0.1463
13665SOL    HW142446   5.374   0.415   1.963 -0.2046  0.6484  1.0809
13665SOL    HW242447   5.308   0.547   1.998 -3.1302 -0.8652  1.6215
13666SOL     OW42448   5.393   7.666   1.625  0.1268  0.3758  0.7440
13666SOL    HW142449   5.447   7.602   1.578  0.6541  0.6234  1.0078
13666SOL    HW242450   5.361   7.725   1.557  0.1775  0.2251  0.5873
13667SOL     OW42451   2.047   0.164   6.422  0.1244  0.0943  0.3099
13667SOL    HW142452   2.054   0.215   6.342 -2.0584 -0.0721 -0.0587
13667SOL    HW242453   2.133   0.123   6.432 -0.2880 -2.2185 -3.5910
13668SOL     OW42454   4.693   4.252   9.201 -0.2732  0.6775 -0.5187
13668SOL    HW142455   4.727   4.163   9.212  0.1991  0.8023 -0.9320
13668SOL    HW242456   4.603   4.240   9.173 -0.8658  0.3428  1.3736
13669SOL     OW42457   4.016   4.460   8.775 -0.2135 -0.2083 -0.2368
13669SOL    HW142458   4.069   4.447   8.696  0.3195  0.9490 -0.0870
13669SOL    HW242459   4.025   4.554   8.794  0.7704 -0.6942  1.9684
13670SOL     OW42460   1.960   5.100   8.085 -0.1055  0.2756  0.0965
13670SOL    HW142461   1.888   5.040   8.065 -0.8052  0.0871  2.7400
13670SOL    HW242462   1.936   5.139   8.170  1.1969  2.9553 -0.6400
13671SOL     OW42463   1.517   2.002   7.941 -0.0871 -0.0717  0.1066
13671SOL    HW142464   1.497   1.977   8.031  2.1992 -1.9124  0.1885
13671SOL    HW242465   1.453   2.071   7.921 -1.1287 -0.1030  2.8566
13672SOL     OW42466   1.055   8.113   1.962 -1.0402  0.6883  0.1344
13672SOL    HW142467   1.062   8.058   2.040  1.0848  0.0794 -0.4311
13672SOL    HW242468   1.131   8.170   1.966  0.5769 -1.0632 -2.7055
13673SOL     OW42469   7.159   6.352   3.284 -0.7579 -0.0720  0.4194
13673SOL    HW142470   7.098   6.336   3.356  3.0355  1.8701  4.4801
13673SOL    HW242471   7.165   6.447   3.278  0.6545 -0.2064 -1.0058
13674SOL     OW42472   7.133   7.893   7.989  0.7367  0.2652  0.0076
13674SOL    HW142473   7.134   7.982   7.954  0.1818  0.7045  1.0508
13674SOL    HW242474   7.212   7.852   7.955  0.6228  0.9216 -1.0802
13675SOL     OW42475   5.614   5.059   7.442  0.2273  0.1614 -0.5123
13675SOL    HW142476   5.637   4.975   7.403 -1.5310  0.5567 -2.5585
13675SOL    HW242477   5.518   5.063   7.436  0.1848  1.8320  0.6049
13676SOL     OW42478   3.801   5.293   1.166 -0.1103  0.3196 -0.0456
13676SOL    HW142479   3.868   5.277   1.234 -0.0779 -0.6002 -0.2809
13676SOL    HW242480   3.835   5.368   1.118  0.1327  0.6559  0.6245
13677SOL     OW42481   7.643   6.850   9.266  0.1984 -0.0932  0.3528
13677SOL    HW142482   7.601   6.887   9.188 -0.1722 -0.1154  0.5360
13677SOL    HW242483   7.661   6.758   9.243  0.1832 -0.0717  0.2565
13678SOL     OW42484   1.119   4.914   8.711 -0.8290  0.3043 -0.3964
13678SOL    HW142485   1.075   4.986   8.666  0.2010  1.3112  0.1673
13678SOL    HW242486   1.158   4.862   8.641 -2.6645 -0.4811 -0.8978
13679SOL     OW42487   7.553   1.997   7.449 -0.1609  0.1444 -0.2435
13679SOL    HW142488   7.476   1.988   7.393 -0.8572  1.7140  0.3992
13679SOL    HW242489   7.602   2.070   7.411  0.1371  0.2304  0.2924
13680SOL     OW42490   9.049   8.882   1.763  0.3538 -1.0911  0.1635
13680SOL    HW142491   9.069   8.960   1.711  0.7433  0.9600  3.0834
13680SOL    HW242492   8.954   8.875   1.760  0.1168  0.7566  1.3316
13681SOL     OW42493   9.067   9.072   6.622  0.1604  0.2335  0.3326
13681SOL    HW142494   9.056   9.153   6.573  0.8176  1.1436  1.6501
13681SOL    HW242495   9.146   9.085   6.674  0.9070 -1.6823 -0.2362
13682SOL     OW42496   7.851   7.659   8.644 -0.0444  0.7932  0.0300
13682SOL    HW142497   7.762   7.657   8.676  0.2214  0.1154  0.7489
13682SOL    HW242498   7.875   7.751   8.644 -0.3566  0.8787  0.9334
13683SOL     OW42499   4.922   3.026   2.833  0.0815  0.7404 -0.1623
13683SOL    HW142500   4.981   3.041   2.906  0.1484  1.6187 -0.3934
13683SOL    HW242501   4.966   2.960   2.779  1.1926  1.8969 -0.7025
13684SOL     OW42502   2.028   2.605   8.760 -0.5093 -0.0721 -0.2607
13684SOL    HW142503   2.058   2.644   8.678  0.8450 -0.5167 -0.0106
13684SOL    HW242504   1.977   2.528   8.733  0.1138 -0.3409 -0.6893
13685SOL     OW42505   6.287   7.951   1.681  0.1963  0.6076 -0.1946
13685SOL    HW142506   6.287   7.868   1.634 -0.5219  0.0961  0.6810
13685SOL    HW242507   6.239   8.011   1.624  0.1962  0.2617 -0.5605
13686SOL     OW42508   8.409   4.632   0.965  0.3014  0.2765  0.2865
13686SOL    HW142509   8.436   4.576   1.037 -0.2507  1.8567  1.7747
13686SOL    HW242510   8.374   4.571   0.900  3.3434 -1.4399  0.0777
13687SOL     OW42511   9.202   6.165   0.635  0.4804  0.7505 -0.3291
13687SOL    HW142512   9.134   6.180   0.700  1.0172 -1.2359  0.7635
13687SOL    HW242513   9.156   6.124   0.561  0.3646  0.1036  0.0978
13688SOL     OW42514   0.984   3.178   5.067 -0.1140 -0.2264 -0.6320
13688SOL    HW142515   1.057   3.147   5.120 -1.0969 -2.0378 -0.2315
13688SOL    HW242516   0.908   3.169   5.125 -0.7431  1.1311 -1.2048
13689SOL     OW42517   6.143   3.608   9.084  0.4131  0.0773  0.1970
13689SOL    HW142518   6.051   3.626   9.064  0.4499  0.0527  0.0037
13689SOL    HW242519   6.189   3.687   9.057  0.6434 -0.4829 -1.1387
13690SOL     OW42520   5.027   3.127   3.885  0.2674  0.0541 -0.2530
13690SOL    HW142521   5.009   3.198   3.946  0.0845 -0.7971  0.7225
13690SOL    HW242522   5.004   3.048   3.934 -1.0053 -0.5962 -1.8427
13691SOL     OW42523   6.983   0.986   2.672 -0.0523 -0.1255 -0.0322
13691SOL    HW142524   6.943   0.899   2.677 -0.5566  0.1247  0.2630
13691SOL    HW242525   6.912   1.047   2.692  0.4658  0.3241  0.4661
13692SOL     OW42526   7.859   2.689   4.689  0.2951 -1.0151  0.1772
13692SOL    HW142527   7.866   2.639   4.770  0.4461  0.6754  1.2465
13692SOL    HW242528   7.783   2.746   4.702  0.2414 -0.7931 -0.9401
13693SOL     OW42529   8.152   7.813   3.079 -0.0436 -0.5808  0.2205
13693SOL    HW142530   8.240   7.829   3.114 -0.0341 -0.6582  0.2323
13693SOL    HW242531   8.093   7.855   3.142  0.0041 -0.1958  0.0060
13694SOL     OW42532   2.828   1.480   2.733  0.3785  0.0376  0.9722
13694SOL    HW142533   2.922   1.500   2.733 -0.1889  3.2299  1.8592
13694SOL    HW242534   2.789   1.549   2.680 -1.6332 -0.4046  1.8069
13695SOL     OW42535   0.020   4.220   8.365 -0.1965 -0.0319 -0.4675
13695SOL    HW142536   0.038   4.286   8.298 -0.7649  0.3383 -0.2629
13695SOL    HW242537  -0.062   4.180   8.338 -0.7380  0.5213  0.3057
13696SOL     OW42538   3.916   4.243   1.717  0.2032 -0.1315  0.0070
13696SOL    HW142539   3.857   4.318   1.728  0.6486  0.0504  1.2832
13696SOL    HW242540   3.861   4.167   1.735 -0.5077 -0.2282 -2.2585
13697SOL     OW42541   0.811   2.448   7.583  0.1877 -0.2489 -0.4019
13697SOL    HW142542   0.866   2.511   7.630 -0.7277 -0.5704  1.1511
13697SOL    HW242543   0.866   2.417   7.511  0.0779  3.6932 -2.4463
13698SOL     OW42544   2.168   6.784   0.129  0.1439 -0.0407 -0.5671
13698SOL    HW142545   2.136   6.767   0.040  1.7289  1.4864 -1.5024
13698SOL    HW242546   2.245   6.840   0.116  1.3255 -1.0212  1.7144
13699SOL     OW42547   8.175   8.553   6.194  0.4949  0.0585 -0.4819
13699SOL    HW142548   8.133   8.527   6.276 -0.3491 -0.3675 -1.0241
13699SOL    HW242549   8.120   8.513   6.126  0.0809  1.9431 -1.3181
13700SOL     OW42550   0.827   2.890   6.583 -0.0367 -0.2832 -0.3502
13700SOL    HW142551   0.886   2.965   6.596  0.0414 -0.5547  1.0682
13700SOL    HW242552   0.794   2.871   6.671 -0.3826 -1.6529 -0.7548
13701SOL     OW42553   3.601   3.579   3.234  0.2914 -0.1037  0.0830
13701SOL    HW142554   3.522   3.582   3.287 -0.1537 -1.9521 -0.3729
13701SOL    HW242555   3.599   3.492   3.194  2.4165 -0.1075 -0.1555
13702SOL     OW42556   0.279   5.267   1.085  0.5674  0.3488  0.2756
13702SOL    HW142557   0.315   5.303   1.166 -0.2971  1.7616  0.0590
13702SOL    HW242558   0.356   5.238   1.035  1.1634  0.2797  1.2055
13703SOL     OW42559   7.077   6.347   6.918 -0.0173 -0.4894 -0.5674
13703SOL    HW142560   7.149   6.397   6.881  1.2558 -0.6864  1.4911
13703SOL    HW242561   7.098   6.256   6.899  0.1751 -0.5369 -0.1195
13704SOL     OW42562   0.152   8.992   8.661 -0.1263  0.3894  0.4734
13704SOL    HW142563   0.165   8.959   8.750 -0.6918 -0.5775  0.2081
13704SOL    HW242564   0.059   8.976   8.643  0.0087  0.4850 -0.3310
13705SOL     OW42565   7.530   6.264   4.966 -0.4700 -0.0064  0.0977
13705SOL    HW142566   7.597   6.229   5.024  1.0945 -0.2272 -1.7626
13705SOL    HW242567   7.503   6.189   4.913 -1.7243  0.2375  0.3624
13706SOL     OW42568   5.193   7.727   4.059 -0.4546  0.5383  0.3306
13706SOL    HW142569   5.137   7.650   4.060  1.3454 -0.8577 -0.1181
13706SOL    HW242570   5.174   7.772   4.141 -2.9325  0.7267 -0.2760
13707SOL     OW42571   1.252   2.674   4.684 -0.4363  0.4655  0.0019
13707SOL    HW142572   1.157   2.689   4.676 -0.9660 -1.1815  2.1922
13707SOL    HW242573   1.292   2.754   4.648 -2.6418  1.4092 -0.5434
13708SOL     OW42574   0.059   2.870   7.063  0.2226  0.2891  0.5294
13708SOL    HW142575   0.130   2.851   7.124  1.5047  1.7632 -0.4320
13708SOL    HW242576   0.072   2.961   7.039 -1.4070  0.2934 -0.4696
13709SOL     OW42577   8.006   8.915   0.476 -0.3784 -0.1075 -0.1525
13709SOL    HW142578   7.913   8.909   0.498 -0.5303  0.5328 -0.5848
13709SOL    HW242579   8.007   8.923   0.380 -0.1047  3.1821  0.0112
13710SOL     OW42580   7.244   1.872   0.166 -0.3089  0.1071 -0.2996
13710SOL    HW142581   7.303   1.913   0.102  0.1182  0.2149  0.1638
13710SOL    HW242582   7.290   1.792   0.192 -0.8502 -0.3565 -0.7233
13711SOL     OW42583   5.804   3.237   3.295 -0.4623 -0.6870 -1.0054
13711SOL    HW142584   5.843   3.230   3.208 -1.9280 -0.6508 -1.7062
13711SOL    HW242585   5.717   3.197   3.285 -1.3134  0.8083 -0.0188
13712SOL     OW42586   4.012   5.305   0.794  0.2938 -0.4088  0.0246
13712SOL    HW142587   4.013   5.258   0.711 -0.7771 -0.1703 -0.1418
13712SOL    HW242588   3.937   5.269   0.842  0.0588  0.4164  0.3021
13713SOL     OW42589   2.248   6.613   4.494 -0.2351 -0.1875 -0.3543
13713SOL    HW142590   2.156   6.587   4.494 -0.3192  0.1186 -0.7646
13713SOL    HW242591   2.251   6.692   4.548  0.1050 -1.2943  1.3687
13714SOL     OW42592   8.384   1.176   6.857  0.2360  0.7020  0.2298
13714SOL    HW142593   8.477   1.154   6.856 -0.3474 -2.3895  1.4479
13714SOL    HW242594   8.369   1.213   6.943  0.3686  1.4034 -0.0467
13715SOL     OW42595   2.269   0.837   6.353  0.4255  0.8001 -0.1043
13715SOL    HW142596   2.189   0.846   6.300  0.4652  3.2729  0.1249
13715SOL    HW242597   2.237   0.814   6.440 -0.3277  3.5865  0.4713
13716SOL     OW42598   4.000   2.421   7.533 -0.1653  0.3450 -0.5606
13716SOL    HW142599   4.058   2.399   7.607  0.3413  0.5302 -0.8965
13716SOL    HW242600   3.924   2.364   7.545 -0.2857  0.6824  0.3460
13717SOL     OW42601   8.152   8.388   8.965  0.0425  0.0617  0.2987
13717SOL    HW142602   8.063   8.358   8.948 -0.0192 -0.0556  0.8386
13717SOL    HW242603   8.196   8.380   8.880 -0.4025 -0.0667  0.0774
13718SOL     OW42604   2.129   8.104   8.596 -0.1313  0.4635  0.6252
13718SOL    HW142605   2.202   8.043   8.606 -1.1126 -1.6998 -3.2596
13718SOL    HW242606   2.171   8.185   8.565  0.7763 -0.6870 -1.3864
13719SOL     OW42607   5.219   1.164   2.549  0.5429 -0.2869  0.1388
13719SOL    HW142608   5.297   1.217   2.564 -0.1309  0.7541  0.0570
13719SOL    HW242609   5.238   1.080   2.591  1.5516  0.0881  0.4437
13720SOL     OW42610   1.409   3.491   0.898  0.8201 -0.2609 -0.1203
13720SOL    HW142611   1.341   3.437   0.858  2.1410 -0.3299 -2.3805
13720SOL    HW242612   1.463   3.429   0.948 -0.2570 -0.3092  1.0513
13721SOL     OW42613   5.618   6.199   7.714 -0.3257 -0.0144 -0.1908
13721SOL    HW142614   5.624   6.154   7.798 -0.0218 -0.2642 -0.3463
13721SOL    HW242615   5.694   6.257   7.712  0.4627 -1.0450 -0.8988
13722SOL     OW42616   4.605   3.602   2.340 -0.9549  0.3854  0.3500
13722SOL    HW142617   4.516   3.593   2.374 -0.4264 -0.5768  1.5037
13722SOL    HW242618   4.662   3.567   2.408  0.2201 -0.5620 -1.0382
13723SOL     OW42619   7.784   7.709   9.147  0.0299  0.3029 -1.0439
13723SOL    HW142620   7.821   7.795   9.125  0.1193  0.6296  0.3430
13723SOL    HW242621   7.711   7.728   9.204  1.0586 -0.6057  0.6507
13724SOL     OW42622   0.790   0.106   2.525 -0.3065 -0.2322  0.0863
13724SOL    HW142623   0.758   0.016   2.517 -0.3176 -0.2872  0.6862
13724SOL    HW242624   0.882   0.101   2.503 -0.0916 -0.5627  1.0094
13725SOL     OW42625   3.608   8.979   9.010  0.5198 -0.0410 -0.1364
13725SOL    HW142626   3.541   8.911   9.015 -1.1617  1.5567  0.3450
13725SOL    HW242627   3.582   9.033   8.936 -0.5997  2.3761  1.8559
13726SOL     OW42628   8.835   7.007   4.321 -0.4237 -0.5728 -0.3447
13726SOL    HW142629   8.799   6.927   4.359  2.4570 -1.2622  1.2068
13726SOL    HW242630   8.844   7.067   4.395  0.6374 -0.0950 -0.8405
13727SOL     OW42631   6.473   3.582   5.313  0.3188 -0.2646 -0.6502
13727SOL    HW142632   6.470   3.582   5.217  0.4439  1.5767 -0.6773
13727SOL    HW242633   6.560   3.616   5.334  0.4766 -1.1107  0.1355
13728SOL     OW42634   7.490   4.011   7.747 -0.3466 -0.5037  0.3557
13728SOL    HW142635   7.432   4.079   7.783 -1.2071 -1.9645  1.8974
13728SOL    HW242636   7.550   3.990   7.819 -0.3973 -1.6565  0.0879
13729SOL     OW42637   5.192   8.792   2.780 -0.5534 -0.1377 -0.2672
13729SOL    HW142638   5.101   8.794   2.809 -0.7688  0.0524 -0.9352
13729SOL    HW242639   5.242   8.819   2.857 -1.0325 -0.5546  0.1981
13730SOL     OW42640   7.707   4.778   7.642  0.0870  0.0226  0.4978
13730SOL    HW142641   7.803   4.781   7.644  0.0925  2.2999 -0.0283
13730SOL    HW242642   7.683   4.722   7.716  1.8026 -0.5337  0.6839
13731SOL     OW42643   4.610   3.792   4.920  0.4366  0.4386 -0.1834
13731SOL    HW142644   4.615   3.697   4.912  0.5450  0.3232  1.1402
13731SOL    HW242645   4.562   3.820   4.842 -0.0244 -0.7371 -0.3363
13732SOL     OW42646   8.490   7.830   5.023 -0.0989 -0.5381  0.5079
13732SOL    HW142647   8.430   7.757   5.031  0.0635 -0.7834 -0.3848
13732SOL    HW242648   8.435   7.908   5.033 -0.4292 -0.7678  0.4808
13733SOL     OW42649   8.559   4.919   0.086 -0.0713 -0.0523 -0.3249
13733SOL    HW142650   8.555   4.844   0.026  1.5323 -0.6697  0.2693
13733SOL    HW242651   8.491   4.979   0.054 -2.5464 -2.4045  0.1045
13734SOL     OW42652   3.500   7.874   6.163  0.3631 -0.1263  0.2466
13734SOL    HW142653   3.531   7.871   6.254  0.9565  2.2055  0.1693
13734SOL    HW242654   3.453   7.792   6.152  1.2270 -0.9836  2.3123
13735SOL     OW42655   3.851   7.204   7.283  0.1105 -0.2164 -0.6889
13735SOL    HW142656   3.881   7.201   7.374 -0.1468 -0.2326 -0.6040
13735SOL    HW242657   3.823   7.115   7.264 -2.5833  0.3728  0.1523
13736SOL     OW42658   0.929   3.895   2.540  0.3672 -0.1909 -0.3565
13736SOL    HW142659   0.909   3.825   2.478  2.4758  0.7127 -2.2224
13736SOL    HW242660   0.863   3.962   2.522 -0.0673 -0.6242 -0.4120
13737SOL     OW42661   3.616   7.376   4.878 -0.2546  0.3219  0.3507
13737SOL    HW142662   3.566   7.376   4.960  1.1794  0.2965  1.2660
13737SOL    HW242663   3.668   7.457   4.882 -1.2828  1.1071 -1.2790
13738SOL     OW42664   3.937   5.640   5.487 -0.0884 -0.1143 -0.1041
13738SOL    HW142665   3.942   5.684   5.402 -0.1637 -2.2461 -1.2927
13738SOL    HW242666   4.019   5.590   5.493  0.2333  0.5397  1.4243
13739SOL     OW42667   3.241   4.972   9.112 -0.5904  0.1085  0.6166
13739SOL    HW142668   3.312   4.916   9.143 -0.3796 -0.2860 -0.5170
13739SOL    HW242669   3.279   5.060   9.110 -0.4072  0.0348  0.8502
13740SOL     OW42670   3.716   1.390   5.587 -0.0645 -0.1697 -0.3750
13740SOL    HW142671   3.778   1.349   5.527  0.7957 -1.0149  1.0443
13740SOL    HW242672   3.738   1.483   5.585  0.6834 -0.3493 -0.5129
13741SOL     OW42673   9.248   5.798   8.174  0.1684 -0.3354  0.3380
13741SOL    HW142674   9.158   5.768   8.172 -0.3718  1.1856 -1.0306
13741SOL    HW242675   9.287   5.756   8.251 -1.8062 -0.6949  1.1859
13742SOL     OW42676   0.285   1.751   7.043  0.2779 -0.0589 -0.4781
13742SOL    HW142677   0.214   1.798   7.086 -0.2274 -0.1464 -1.1903
13742SOL    HW242678   0.260   1.659   7.050  0.7915 -0.1532  0.0904
13743SOL     OW42679   4.529   2.588   6.010  0.2872  0.3019  0.3356
13743SOL    HW142680   4.527   2.672   5.965 -1.6750  0.0844 -0.0744
13743SOL    HW242681   4.571   2.528   5.948  0.6642  0.7370  0.1717
13744SOL     OW42682   3.777   8.922   8.615 -0.3467  0.2046  0.2067
13744SOL    HW142683   3.733   8.919   8.530 -0.9102  0.8937  0.4643
13744SOL    HW242684   3.864   8.885   8.599 -1.0425 -1.2962 -0.2865
13745SOL     OW42685   2.196   5.449   6.845 -0.0827  0.1128 -0.1016
13745SOL    HW142686   2.234   5.456   6.932 -0.2017  0.1522 -0.0517
13745SOL    HW242687   2.190   5.540   6.814 -2.7240  0.4063  1.0184
13746SOL     OW42688   0.315   0.007   7.779  0.4296  0.4658 -0.1618
13746SOL    HW142689   0.305  -0.024   7.689 -0.5965 -0.8178  0.3546
13746SOL    HW242690   0.258   0.083   7.785 -0.1229  0.0827 -0.4053
13747SOL     OW42691   2.542   9.123   7.863 -0.4579 -0.2306 -0.0875
13747SOL    HW142692   2.493   9.205   7.857  2.4485  1.6501  0.0492
13747SOL    HW242693   2.571   9.120   7.954 -1.2832 -1.9387  0.1514
13748SOL     OW42694   2.322   5.258   0.854  0.4608  0.4787 -0.0637
13748SOL    HW142695   2.386   5.188   0.842  0.0143 -0.2509  1.5300
13748SOL    HW242696   2.264   5.226   0.923 -0.9474  1.6028 -0.6774
13749SOL     OW42697   4.689   6.014   7.018  0.4755 -0.2936  0.4620
13749SOL    HW142698   4.679   6.038   6.926 -1.6229 -0.0951  0.7042
13749SOL    HW242699   4.670   5.921   7.021 -2.0182  0.1491  0.9739
13750SOL     OW42700   6.997   6.990   6.355 -0.3501  0.2176 -0.1247
13750SOL    HW142701   7.013   6.918   6.417 -1.8990  1.0808  1.3515
13750SOL    HW242702   6.915   6.966   6.312 -0.5312  0.7950 -0.0984
13751SOL     OW42703   9.110   4.027   5.237 -0.6493 -0.1785 -0.5194
13751SOL    HW142704   9.050   4.079   5.290 -0.0669 -0.0386  0.0236
13751SOL    HW242705   9.197   4.051   5.270 -0.4089 -3.0784  1.2853
13752SOL     OW42706   7.568   5.756   0.734  0.1933 -0.1407  0.3029
13752SOL    HW142707   7.525   5.772   0.818 -0.2240 -3.5182  0.8772
13752SOL    HW242708   7.511   5.796   0.669 -1.0519 -0.0367  1.4242
13753SOL     OW42709   7.252   0.141   0.155  0.0276  0.4072  0.3171
13753SOL    HW142710   7.184   0.191   0.110  0.4324  0.2346 -0.4867
13753SOL    HW242711   7.332   0.156   0.104  0.1776 -0.9831  0.1020
13754SOL     OW42712   0.418   8.100   2.558  0.2672 -0.0691 -0.3646
13754SOL    HW142713   0.487   8.037   2.539 -1.0471 -1.6185 -0.2839
13754SOL    HW242714   0.416   8.158   2.482  1.5471 -0.0870 -0.4224
13755SOL     OW42715   8.576   3.623   3.320 -0.2330  0.0457  0.1401
13755SOL    HW142716   8.497   3.606   3.372 -0.9226 -0.4583 -1.0329
13755SOL    HW242717   8.612   3.703   3.357 -2.0235  1.0212 -0.1187
13756SOL     OW42718   1.379   0.516   5.047  0.1387 -0.1224  0.6282
13756SOL    HW142719   1.409   0.439   4.999 -0.3071  0.0704  0.0158
13756SOL    HW242720   1.456   0.572   5.054  0.4384 -0.5855  0.9925
13757SOL     OW42721   0.071   3.826   7.939 -0.6645  0.1669 -0.1556
13757SOL    HW142722  -0.002   3.789   7.889 -0.5145  1.2127 -1.1820
13757SOL    HW242723   0.055   3.920   7.940 -0.0283  0.2853  0.7789
13758SOL     OW42724   6.312   6.750   6.438  0.0574  0.4723  0.2728
13758SOL    HW142725   6.229   6.763   6.392  0.3580  2.1056  0.1291
13758SOL    HW242726   6.305   6.805   6.516  1.4234  1.5434 -0.3196
13759SOL     OW42727   8.122   7.597   2.892  0.6878  0.2039  0.1810
13759SOL    HW142728   8.201   7.561   2.934 -0.2415  0.3910  2.2157
13759SOL    HW242729   8.086   7.657   2.957  0.6277  2.7115 -2.0072
13760SOL     OW42730   8.378   1.029   0.639 -0.4463  0.2088 -0.2275
13760SOL    HW142731   8.421   1.101   0.684 -0.1217 -0.6324  0.8626
13760SOL    HW242732   8.358   1.063   0.552 -0.3614  1.6222  0.2806
13761SOL     OW42733   8.050   6.944   5.513  0.0433  0.4845 -0.8776
13761SOL    HW142734   8.110   7.017   5.495  0.0658  0.4788 -0.8242
13761SOL    HW242735   8.099   6.867   5.486  0.2746  0.4308 -0.3002
13762SOL     OW42736   6.903   5.469   5.206 -0.1317  0.6061 -0.6164
13762SOL    HW142737   6.873   5.431   5.288  0.7975 -0.1042 -0.5825
13762SOL    HW242738   6.958   5.401   5.167  3.0700  2.4361  0.2703
13763SOL     OW42739   8.109   1.308   3.064 -0.0678  0.4637  0.4420
13763SOL    HW142740   8.065   1.385   3.101 -0.0716  1.2121 -1.0418
13763SOL    HW242741   8.105   1.322   2.969  0.0339 -1.3237  0.1514
13764SOL     OW42742   1.371   9.060   3.137  0.3586 -0.2920 -0.1747
13764SOL    HW142743   1.397   9.022   3.220  0.6209  0.6056  0.1592
13764SOL    HW242744   1.275   9.057   3.138  0.3669 -0.4834  0.0588
13765SOL     OW42745   5.207   2.351   3.452  0.0226  0.2506  0.0451
13765SOL    HW142746   5.201   2.373   3.545  1.3896  0.5925  0.0759
13765SOL    HW242747   5.297   2.322   3.440 -0.6554 -1.6197 -0.8137
13766SOL     OW42748   0.058   0.734   5.579  0.2040 -0.3033  0.1539
13766SOL    HW142749   0.002   0.658   5.596  1.3150 -0.7958  1.9121
13766SOL    HW242750   0.041   0.757   5.488 -1.8206 -1.2653  0.2386
13767SOL     OW42751   5.640   8.273   6.498 -0.5608 -0.0395 -0.6466
13767SOL    HW142752   5.556   8.311   6.471 -1.4711 -0.7856  0.9888
13767SOL    HW242753   5.659   8.315   6.582  1.1128  0.6677 -1.3395
13768SOL     OW42754   8.766   6.142   5.539 -0.2357 -0.1339 -0.2364
13768SOL    HW142755   8.777   6.210   5.472 -0.0883  1.3298  1.1984
13768SOL    HW242756   8.828   6.166   5.608  0.4443 -2.2571 -0.0592
13769SOL     OW42757   5.022   3.813   5.873  0.1538 -0.5966 -0.4601
13769SOL    HW142758   4.971   3.855   5.943 -1.5829 -0.1276 -1.9338
13769SOL    HW242759   5.070   3.884   5.832  1.8565 -0.9902  0.7042
13770SOL     OW42760   8.495   6.304   9.055 -0.0882 -0.1215  0.1657
13770SOL    HW142761   8.523   6.393   9.076 -0.4399  0.1319 -0.4010
13770SOL    HW242762   8.441   6.314   8.976 -2.8403 -0.3818  1.8703
13771SOL     OW42763   6.592   7.355   1.168 -0.5884 -0.1949 -0.5504
13771SOL    HW142764   6.669   7.404   1.196 -0.8481 -0.4953  0.7417
13771SOL    HW242765   6.599   7.271   1.211 -1.3430 -0.4457 -0.8846
13772SOL     OW42766   4.152   8.422   7.693  0.3472 -0.5901  0.3020
13772SOL    HW142767   4.170   8.502   7.743 -2.6719  1.7779 -1.9928
13772SOL    HW242768   4.219   8.421   7.625 -0.0541  0.5610 -0.1475
13773SOL     OW42769   5.902   8.891   2.398  0.9273  0.3390 -0.3590
13773SOL    HW142770   5.917   8.854   2.311 -2.1066  0.3457 -1.0142
13773SOL    HW242771   5.837   8.833   2.438 -0.8047  2.5430  0.2274
13774SOL     OW42772   2.588   0.915   2.553 -0.4304 -0.2314 -0.3834
13774SOL    HW142773   2.558   0.885   2.640  0.0286 -1.7510 -0.7162
13774SOL    HW242774   2.513   0.962   2.517 -1.4707 -1.5719 -0.0703
13775SOL     OW42775   2.368   8.908   2.968  0.0947 -0.3263  0.3153
13775SOL    HW142776   2.369   8.885   2.875  1.8429  2.0610 -0.3429
13775SOL    HW242777   2.422   8.840   3.010  0.8544 -0.3945 -0.7228
13776SOL     OW42778   6.138   2.153   3.593  0.0558 -0.1316  0.0838
13776SOL    HW142779   6.138   2.241   3.631 -1.1821 -0.7989  1.7889
13776SOL    HW242780   6.210   2.107   3.636 -0.4724 -0.4763  0.6280
13777SOL     OW42781   7.863   1.555   4.427  0.0117  0.0941 -0.1595
13777SOL    HW142782   7.767   1.553   4.421  0.0473 -0.8738 -0.6372
13777SOL    HW242783   7.888   1.462   4.427  0.9905  0.3498 -0.8250
13778SOL     OW42784   8.959   8.604   4.118  0.6513 -0.0197 -0.7045
13778SOL    HW142785   9.014   8.556   4.179  0.4816 -0.0186 -0.5512
13778SOL    HW242786   8.948   8.544   4.044 -1.4809 -1.1941  0.4534
13779SOL     OW42787   8.884   5.125   3.348  0.3488  0.6506  0.5578
13779SOL    HW142788   8.825   5.067   3.396  1.4982 -0.3063  0.8618
13779SOL    HW242789   8.865   5.212   3.382 -1.0753  0.4013  0.4400
13780SOL     OW42790   0.993   6.316   5.797  0.1017 -0.3123  0.1192
13780SOL    HW142791   0.940   6.381   5.750 -2.5086 -1.9733  0.5091
13780SOL    HW242792   0.941   6.235   5.792  0.9261 -1.2273  3.5803
13781SOL     OW42793   4.664   8.183   0.412  0.4949  0.3458  0.1717
13781SOL    HW142794   4.689   8.093   0.394 -2.3526 -0.6100  0.4316
13781SOL    HW242795   4.636   8.183   0.504 -1.0363  1.0553 -0.2534
13782SOL     OW42796   5.773   3.078   4.533 -0.5787 -0.6115 -0.1014
13782SOL    HW142797   5.797   3.004   4.478 -0.6182 -1.8022  1.4155
13782SOL    HW242798   5.751   3.148   4.472  1.2265 -1.2616 -1.5662
13783SOL     OW42799   1.021   5.621   4.344 -0.4231 -0.0580 -0.4849
13783SOL    HW142800   1.114   5.605   4.330  0.0220 -0.1296  2.0510
13783SOL    HW242801   0.977   5.559   4.287  1.0613  0.1337 -1.9102
13784SOL     OW42802   5.582   6.010   7.313  0.2089 -0.5276  0.1302
13784SOL    HW142803   5.537   5.999   7.397  0.6605  1.2533  0.6608
13784SOL    HW242804   5.671   6.036   7.337  0.5372 -0.6480 -0.9123
13785SOL     OW42805   8.765   2.170   1.361  0.1854 -0.7711  0.0295
13785SOL    HW142806   8.780   2.259   1.394  1.6719 -1.1419  0.4435
13785SOL    HW242807   8.784   2.176   1.268  2.0639 -0.9724  0.3425
13786SOL     OW42808   8.820   0.205   5.313 -0.1975 -0.0323  0.6361
13786SOL    HW142809   8.768   0.222   5.391 -3.7139 -1.8575 -1.0946
13786SOL    HW242810   8.839   0.111   5.316  0.6363  0.0867 -0.1742
13787SOL     OW42811   7.216   7.729   4.780 -0.0690 -0.1852 -0.4893
13787SOL    HW142812   7.251   7.814   4.752  0.8482 -0.3345  0.1609
13787SOL    HW242813   7.216   7.676   4.701  1.7142 -0.3506 -0.4189
13788SOL     OW42814   7.681   3.299   3.593 -0.0233 -0.1604  0.0832
13788SOL    HW142815   7.606   3.280   3.650  0.2002 -0.5008  0.2753
13788SOL    HW242816   7.744   3.230   3.615  0.2665  0.0106 -0.2151
13789SOL     OW42817   5.655   8.828   0.392  0.6679  0.7726 -0.3452
13789SOL    HW142818   5.705   8.782   0.459  1.0407 -0.0010 -1.1262
13789SOL    HW242819   5.586   8.873   0.439 -0.1647 -1.1743  0.3941
13790SOL     OW42820   4.276   7.374   8.674  0.0815  0.1331  0.2398
13790SOL    HW142821   4.245   7.423   8.750 -1.0902 -0.5381  0.2181
13790SOL    HW242822   4.283   7.440   8.605  1.0034  0.7193  0.8606
13791SOL     OW42823   8.288   1.820   3.529  0.0725 -0.0806 -0.3495
13791SOL    HW142824   8.338   1.901   3.540 -1.1305  0.7397 -0.6131
13791SOL    HW242825   8.214   1.846   3.474  0.1245 -1.5758 -1.1779
13792SOL     OW42826   2.667   4.092   3.317  0.5527  0.2148  0.2433
13792SOL    HW142827   2.719   4.035   3.374  0.0696 -0.3748  0.1022
13792SOL    HW242828   2.661   4.175   3.365  3.7381  1.2148 -0.8172
13793SOL     OW42829   1.018   3.744   1.381  0.1559 -0.8474 -0.6762
13793SOL    HW142830   1.078   3.770   1.451 -1.5080  0.7176  0.2393
13793SOL    HW242831   1.063   3.768   1.300  0.5949  0.7246  0.0078
13794SOL     OW42832   8.762   5.199   0.539 -0.1893  0.3286 -0.4438
13794SOL    HW142833   8.828   5.134   0.563 -0.6119 -1.2530 -3.1395
13794SOL    HW242834   8.808   5.282   0.539  1.2498 -0.4469 -0.1256
13795SOL     OW42835   4.020   7.791   4.793 -0.2990  0.3431  0.6239
13795SOL    HW142836   3.944   7.819   4.742  0.0495  1.0367  0.4727
13795SOL    HW242837   4.071   7.870   4.805  1.1610 -0.3743 -0.5489
13796SOL     OW42838   1.299   2.362   8.540 -0.5403  0.2689  0.1154
13796SOL    HW142839   1.252   2.354   8.623 -0.5981 -0.1612  0.0430
13796SOL    HW242840   1.268   2.445   8.503  2.8326  2.9788  2.6479
13797SOL     OW42841   3.952   6.981   6.770  0.1253  0.1613  0.1466
13797SOL    HW142842   4.033   6.958   6.723  1.1493  4.4070 -0.6139
13797SOL    HW242843   3.974   6.970   6.862  2.0854  2.1322  0.0119
13798SOL     OW42844   3.612   4.218   0.057 -0.0555 -0.0706 -0.0814
13798SOL    HW142845   3.608   4.164   0.136 -1.3044  0.5638  0.3080
13798SOL    HW242846   3.701   4.254   0.058  1.5241 -3.5104 -1.3445
13799SOL     OW42847   6.318   3.713   1.380 -0.2419 -0.0541 -0.2645
13799SOL    HW142848   6.365   3.668   1.450  2.2008  0.4280 -1.5107
13799SOL    HW242849   6.265   3.779   1.426  2.8200  1.6297  1.1290
13800SOL     OW42850   0.450   9.041   6.157 -0.3745 -0.2497  0.3632
13800SOL    HW142851   0.480   8.959   6.119 -0.2958 -0.1890  0.2916
13800SOL    HW242852   0.379   9.070   6.099 -0.7857 -0.5554  0.7151
13801SOL     OW42853   0.109   1.779   0.505  0.6691 -0.3695  0.0586
13801SOL    HW142854   0.170   1.737   0.445 -1.5667 -1.7621 -1.4115
13801SOL    HW242855   0.071   1.851   0.456 -1.5155 -1.7952 -0.5116
13802SOL     OW42856   7.510   5.940   9.110  0.5389  0.0342  0.2907
13802SOL    HW142857   7.484   5.895   9.030  2.6544  0.0726 -0.4819
13802SOL    HW242858   7.594   5.981   9.088  1.5857 -0.6219  2.7562
13803SOL     OW42859   2.730   4.647   8.679 -0.0967  0.1141 -0.0611
13803SOL    HW142860   2.814   4.667   8.638 -1.3755  3.6803 -1.3416
13803SOL    HW242861   2.740   4.673   8.770  0.1387  0.7262 -0.2591
13804SOL     OW42862   2.653   2.114   1.917 -0.2947  0.2531  0.3276
13804SOL    HW142863   2.708   2.037   1.907 -0.0875  0.2901  1.1463
13804SOL    HW242864   2.570   2.090   1.876 -0.3898 -0.5735  0.9927
13805SOL     OW42865   9.242   3.330   0.718 -0.0157  0.6950  0.2184
13805SOL    HW142866   9.170   3.321   0.780 -0.4755 -0.2092 -0.4212
13805SOL    HW242867   9.318   3.353   0.772 -0.5552  0.6247  1.0242
13806SOL     OW42868   5.571   7.449   1.498  0.1200 -0.3162  0.0833
13806SOL    HW142869   5.572   7.536   1.457  0.5102 -0.3259  0.0671
13806SOL    HW242870   5.658   7.414   1.481 -0.5388 -1.3676 -1.2750
13807SOL     OW42871   3.534   4.148   8.394 -0.0885 -0.6586 -0.3780
13807SOL    HW142872   3.618   4.143   8.349 -0.7047  1.1794 -1.8620
13807SOL    HW242873   3.531   4.237   8.430 -2.1784  0.0716 -2.1066
13808SOL     OW42874   4.257   2.058   7.753  0.0107 -0.1622  0.1784
13808SOL    HW142875   4.207   2.128   7.795 -0.8496 -0.4473 -0.3530
13808SOL    HW242876   4.348   2.088   7.758 -0.1137  0.0380  1.7983
13809SOL     OW42877   3.452   3.709   7.773 -0.0311  0.6688  0.3999
13809SOL    HW142878   3.416   3.646   7.836 -0.7820  0.2375 -0.4455
13809SOL    HW242879   3.545   3.686   7.767 -0.5397 -1.2563 -0.8986
13810SOL     OW42880   2.095   0.336   8.529 -0.0493 -0.3033  0.1805
13810SOL    HW142881   2.175   0.301   8.570  1.7123  2.5580 -0.4935
13810SOL    HW242882   2.047   0.374   8.602 -0.8738 -2.0471  0.5935
13811SOL     OW42883   6.776   1.560   7.204  0.0444 -1.0494  0.1393
13811SOL    HW142884   6.727   1.517   7.274 -1.8364 -1.3003 -1.2624
13811SOL    HW242885   6.840   1.494   7.177 -0.9135 -1.9277 -0.0697
13812SOL     OW42886   3.213   5.559   1.837 -0.1154  0.1575 -0.2295
13812SOL    HW142887   3.247   5.551   1.926 -2.1195  1.0808  0.6901
13812SOL    HW242888   3.139   5.499   1.834 -0.3433  0.4675 -1.1281
13813SOL     OW42889   3.728   6.941   7.932  0.4418 -0.8202 -0.2998
13813SOL    HW142890   3.692   6.887   7.862  1.8617 -0.8703 -1.0427
13813SOL    HW242891   3.780   6.880   7.985  1.2601 -0.3904 -0.5789
13814SOL     OW42892   2.370   2.401   4.052 -0.2746 -0.0968  0.1429
13814SOL    HW142893   2.342   2.312   4.073 -1.3844  0.1997 -0.0016
13814SOL    HW242894   2.393   2.398   3.960 -1.5350  0.0283 -0.1992
13815SOL     OW42895   2.788   3.094   5.223  0.7856 -0.4735 -0.5351
13815SOL    HW142896   2.729   3.150   5.172 -0.0230 -1.1807 -0.4088
13815SOL    HW242897   2.747   3.008   5.220  0.3413 -0.4131  1.8543
13816SOL     OW42898   1.882   0.836   5.935  0.3435 -0.5585 -0.0252
13816SOL    HW142899   1.846   0.762   5.885 -0.4001  0.3598 -0.8799
13816SOL    HW242900   1.913   0.897   5.868  1.8262 -0.4794  0.6794
13817SOL     OW42901   7.857   2.516   2.166  0.0467  0.0508  1.2515
13817SOL    HW142902   7.775   2.531   2.213 -0.6547  0.3958 -0.0496
13817SOL    HW242903   7.836   2.448   2.102  0.6951  0.3571  0.7042
13818SOL     OW42904   9.086   0.527   1.825  0.3175  0.1904 -0.5506
13818SOL    HW142905   9.059   0.514   1.916 -0.7791 -0.8991 -1.0027
13818SOL    HW242906   9.030   0.598   1.794 -1.1734 -1.1332 -1.0743
13819SOL     OW42907   0.054   7.621   0.176 -0.2771 -0.2117 -0.2109
13819SOL    HW142908   0.006   7.702   0.162 -0.9059 -0.4883  0.2699
13819SOL    HW242909   0.066   7.584   0.088  0.8488  0.8543 -0.5246
13820SOL     OW42910   0.639   2.455   6.705  0.2038 -0.3548  0.7793
13820SOL    HW142911   0.721   2.406   6.717  0.0458 -1.1501 -1.0938
13820SOL    HW242912   0.572   2.387   6.700 -0.1388  0.0853 -0.8913
13821SOL     OW42913   5.214   6.387   3.419 -0.4255 -0.0054  0.5767
13821SOL    HW142914   5.197   6.443   3.343  1.1194 -0.5480 -0.2342
13821SOL    HW242915   5.129   6.351   3.443 -0.7216 -1.4772 -2.2688
13822SOL     OW42916   8.185   5.473   1.434  0.2633 -0.3420 -0.1491
13822SOL    HW142917   8.103   5.423   1.428  1.9542 -3.3529 -0.1072
13822SOL    HW242918   8.204   5.476   1.527  1.1986 -1.4909 -0.2848
13823SOL     OW42919   4.121   5.699   8.268  1.0507  0.2433 -0.3423
13823SOL    HW142920   4.200   5.658   8.303 -0.1846 -2.0094  0.0378
13823SOL    HW242921   4.085   5.750   8.341  1.8357  0.8206 -0.3514
13824SOL     OW42922   7.143   1.554   6.433 -0.0026  0.6401  0.4233
13824SOL    HW142923   7.084   1.509   6.493  1.2843 -0.2462  1.0717
13824SOL    HW242924   7.121   1.519   6.347 -0.2906  0.1744  0.6825
13825SOL     OW42925   8.136   4.125   0.197  0.3967 -0.0591 -0.4106
13825SOL    HW142926   8.040   4.118   0.198  0.4524 -1.3293 -1.7189
13825SOL    HW242927   8.152   4.219   0.191 -0.7895  0.1478 -0.7588
13826SOL     OW42928   1.192   2.870   7.273 -0.4909  0.6916  0.4700
13826SOL    HW142929   1.201   2.929   7.348  0.3511  0.9936  0.1421
13826SOL    HW242930   1.281   2.842   7.253 -0.7022  0.6422 -0.4429
13827SOL     OW42931   1.870   4.142   0.413  0.6457 -0.3358  0.1298
13827SOL    HW142932   1.854   4.224   0.460  0.8067 -0.0563 -0.2957
13827SOL    HW242933   1.956   4.113   0.443  2.7068  1.9479 -2.9047
13828SOL     OW42934   0.515   6.454   6.256  0.0434 -0.1046 -0.0881
13828SOL    HW142935   0.563   6.532   6.286 -2.7040  1.7612 -0.2252
13828SOL    HW242936   0.480   6.415   6.336 -0.0230 -0.2238 -0.1752
13829SOL     OW42937   2.789   8.982   0.688 -0.0443  0.6770 -0.0276
13829SOL    HW142938   2.793   8.890   0.714  0.1896  0.7372  0.1512
13829SOL    HW242939   2.858   8.991   0.622  0.7194  0.9927  0.7994
13830SOL     OW42940   1.389   7.541   8.804 -0.5944 -0.1968  0.1253
13830SOL    HW142941   1.358   7.596   8.731  0.1497  0.7341  0.4975
13830SOL    HW242942   1.314   7.485   8.823 -0.3101 -1.5927 -2.3934
13831SOL     OW42943   6.044   1.220   5.626 -0.7154  0.3433  0.7842
13831SOL    HW142944   5.970   1.244   5.571 -0.6433 -0.4497  0.3205
13831SOL    HW242945   6.040   1.280   5.700 -1.8743  0.2720  0.7969
13832SOL     OW42946   4.329   8.290   8.755 -0.0584  0.3321  0.1167
13832SOL    HW142947   4.423   8.297   8.768  0.1843  1.0330 -1.7602
13832SOL    HW242948   4.303   8.376   8.722 -1.2553 -0.0491  0.0131
13833SOL     OW42949   2.853   3.568   3.287  0.1932  0.3407 -0.4180
13833SOL    HW142950   2.841   3.527   3.202 -0.0893 -0.5347  0.0326
13833SOL    HW242951   2.927   3.520   3.326  1.1611  1.5634 -0.6619
13834SOL     OW42952   4.479   5.119   0.632 -0.4743  0.1037  0.0240
13834SOL    HW142953   4.394   5.098   0.669 -1.8721  1.9283 -1.9302
13834SOL    HW242954   4.486   5.215   0.640 -0.4541  0.4858 -3.3977
13835SOL     OW42955   4.303   1.548   3.560 -0.6265 -0.0985  0.0651
13835SOL    HW142956   4.235   1.615   3.569 -0.4961 -0.1632  1.6757
13835SOL    HW242957   4.269   1.489   3.492 -1.6671  0.4682  0.0766
13836SOL     OW42958   4.766   7.118   8.276 -0.3730  0.0169  0.4015
13836SOL    HW142959   4.787   7.147   8.187  0.6382 -0.1655  0.5634
13836SOL    HW242960   4.702   7.182   8.307 -0.0748  0.6025 -0.1491
13837SOL     OW42961   6.452   5.065   7.252  0.0345  0.0460 -0.0380
13837SOL    HW142962   6.418   5.013   7.325 -2.1795  1.9796  0.4403
13837SOL    HW242963   6.396   5.042   7.178  0.5015  0.1078 -0.4169
13838SOL     OW42964   8.802   8.726   2.709 -0.4564 -0.2103  0.2090
13838SOL    HW142965   8.730   8.687   2.660  1.8162 -2.3461 -1.7507
13838SOL    HW242966   8.825   8.805   2.660 -1.0496  0.1127  0.4529
13839SOL     OW42967   6.059   3.917   0.399  0.1260  0.2800  0.5020
13839SOL    HW142968   6.053   3.868   0.481  1.3436  0.8558  0.9509
13839SOL    HW242969   6.035   4.006   0.423  0.3171  0.4152  0.1915
13840SOL     OW42970   6.530   1.056   2.257  0.4198 -0.0220  0.2445
13840SOL    HW142971   6.489   1.101   2.184  0.6367  0.4300  0.3989
13840SOL    HW242972   6.465   1.059   2.327  0.4958  0.1891  0.3053
13841SOL     OW42973   5.925   7.160   1.949  0.1959  0.1662  0.1936
13841SOL    HW142974   5.951   7.251   1.934 -1.6403  0.6902 -0.0766
13841SOL    HW242975   5.942   7.115   1.866 -0.5953  0.7195 -0.2850
13842SOL     OW42976   1.376   8.537   0.500  0.1402  0.1270  0.2393
13842SOL    HW142977   1.410   8.451   0.527  0.6777 -0.7242 -2.7722
13842SOL    HW242978   1.440   8.600   0.534  0.4469 -0.7569  1.3587
13843SOL     OW42979   7.983   7.783   4.917 -0.6217 -0.3578 -0.2803
13843SOL    HW142980   8.016   7.696   4.940  0.1535 -0.7579 -2.5862
13843SOL    HW242981   7.915   7.765   4.852 -0.6645  0.7367 -0.5431
13844SOL     OW42982   3.263   2.667   8.337  0.0314  0.4710 -0.1119
13844SOL    HW142983   3.283   2.706   8.422  0.0388  2.6686 -1.0515
13844SOL    HW242984   3.168   2.656   8.337 -0.0138  0.8362  0.0401
13845SOL     OW42985   2.711   1.216   6.427 -0.3470  0.1159 -0.0956
13845SOL    HW142986   2.686   1.236   6.337 -0.7020  0.3759  0.0532
13845SOL    HW242987   2.725   1.121   6.428 -1.6165 -0.0946 -0.1386
13846SOL     OW42988   6.821   2.662   1.523 -0.0276 -0.4570  0.2834
13846SOL    HW142989   6.814   2.728   1.454 -2.4957 -1.3320 -0.4215
13846SOL    HW242990   6.778   2.585   1.487  0.6172 -1.6800  1.9864
13847SOL     OW42991   3.118   3.971   6.349 -0.2269 -0.2119  0.1730
13847SOL    HW142992   3.186   3.932   6.294  1.2853  1.2937  0.8891
13847SOL    HW242993   3.162   4.043   6.394 -2.2211  0.5817  0.9582
13848SOL     OW42994   2.887   8.349   7.198 -0.1360  0.6391 -0.1847
13848SOL    HW142995   2.820   8.294   7.237 -1.3772  0.9145 -1.7964
13848SOL    HW242996   2.911   8.304   7.117  0.6216  1.2302 -0.3009
13849SOL     OW42997   1.358   1.350   5.717  0.7997 -0.5289 -0.2021
13849SOL    HW142998   1.351   1.287   5.789  3.9964  0.1276  0.8551
13849SOL    HW242999   1.401   1.426   5.756  1.2609  0.4641 -2.4652
13850SOL     OW43000   8.195   3.829   1.033  0.1382 -0.5133  0.0775
13850SOL    HW143001   8.169   3.830   0.940  1.3524 -0.2158 -0.2722
13850SOL    HW243002   8.135   3.767   1.074 -2.3732  1.4764 -0.3132
13851SOL     OW43003   0.676   2.842   0.052 -0.4643  0.5254  0.2062
13851SOL    HW143004   0.694   2.771  -0.010 -1.2403  0.4232  0.0936
13851SOL    HW243005   0.608   2.807   0.109  1.8081 -0.2797  2.6318
13852SOL     OW43006   2.747   8.139   8.381 -0.8515 -0.1529 -0.1973
13852SOL    HW143007   2.822   8.096   8.339 -1.0647 -1.4217  0.6546
13852SOL    HW243008   2.711   8.072   8.440 -0.1091  1.7330  2.5905
13853SOL     OW43009   8.436   1.895   5.593 -0.5725  0.5559 -0.0910
13853SOL    HW143010   8.349   1.912   5.630  0.0333 -0.6045  2.0520
13853SOL    HW243011   8.490   1.968   5.624 -0.1607 -0.1927  1.0023
13854SOL     OW43012   5.472   8.085   4.600 -0.3189  0.2364  0.2690
13854SOL    HW143013   5.418   8.140   4.543  0.9141  1.7310  0.4904
13854SOL    HW243014   5.521   8.028   4.541 -2.5441 -1.6523  0.0771
13855SOL     OW43015   4.944   0.048   2.042 -0.0078 -0.0286 -0.5031
13855SOL    HW143016   4.993  -0.032   2.023 -0.1785 -0.2151 -0.1490
13855SOL    HW243017   5.007   0.118   2.024  0.2354 -0.2501 -0.5279
13856SOL     OW43018   4.300   2.574   8.023  0.0327  0.2902  0.1532
13856SOL    HW143019   4.231   2.509   8.033  0.1405  0.2494  0.6495
13856SOL    HW243020   4.335   2.558   7.936 -1.0502  0.7697 -0.3869
13857SOL     OW43021   2.563   3.889   6.495  0.5041  0.1955  0.2405
13857SOL    HW143022   2.629   3.944   6.454 -1.9768  1.3736 -2.5705
13857SOL    HW243023   2.572   3.804   6.451  1.4423 -0.3022  1.3598
13858SOL     OW43024   4.780   7.838   8.870 -0.2100  0.4758 -0.3652
13858SOL    HW143025   4.830   7.782   8.930 -2.8445 -0.4766  1.1409
13858SOL    HW243026   4.723   7.777   8.823 -1.6334  1.6695 -0.2498
13859SOL     OW43027   4.618   5.414   8.786  0.4935 -0.0826  0.1657
13859SOL    HW143028   4.681   5.459   8.730 -0.4583  1.5104  0.3239
13859SOL    HW243029   4.607   5.472   8.861 -1.3300 -0.1892  0.0262
13860SOL     OW43030   2.235   0.685   4.205 -0.0636  0.0119  0.1679
13860SOL    HW143031   2.176   0.676   4.280 -0.3769  0.9194  0.0455
13860SOL    HW243032   2.261   0.595   4.184  0.3839 -0.2161  1.6287
13861SOL     OW43033   5.825   3.227   1.659  0.3729  0.0532  0.9646
13861SOL    HW143034   5.895   3.238   1.724 -0.0954  2.3418  1.1754
13861SOL    HW243035   5.782   3.146   1.684  2.1112 -0.7045  1.6367
13862SOL     OW43036   8.361   0.789   0.218  0.2232  0.1476  0.0023
13862SOL    HW143037   8.438   0.813   0.166 -0.2979 -0.3476 -1.0268
13862SOL    HW243038   8.342   0.699   0.191  0.0328 -0.1689  1.1780
13863SOL     OW43039   6.791   3.185   5.929 -0.1497 -0.1304 -0.2872
13863SOL    HW143040   6.874   3.176   5.882 -0.6716 -1.2635 -1.0264
13863SOL    HW243041   6.814   3.174   6.021  0.8463  1.8301 -0.2487
13864SOL     OW43042   4.459   8.618   7.944  0.4866 -0.2538  0.2956
13864SOL    HW143043   4.392   8.671   7.900 -1.1735 -1.9546  0.5978
13864SOL    HW243044   4.443   8.529   7.911  3.5007 -0.5664 -0.6288
13865SOL     OW43045   5.534   5.273   1.653  0.1024 -0.2108  0.6596
13865SOL    HW143046   5.541   5.179   1.664  0.0213 -0.1938  0.8680
13865SOL    HW243047   5.448   5.295   1.688 -0.6380 -0.2918 -1.0043
13866SOL     OW43048   8.123   0.894   1.724 -0.1267  0.0300 -0.1275
13866SOL    HW143049   8.132   0.972   1.670 -1.5691  0.5135  0.2810
13866SOL    HW243050   8.105   0.927   1.812  2.4848 -0.7388  0.7843
13867SOL     OW43051   4.035   2.608   5.713  0.1992  0.1200  0.1532
13867SOL    HW143052   4.081   2.568   5.787  0.3874 -1.1681 -0.6192
13867SOL    HW243053   4.057   2.552   5.639 -0.1303  1.2762 -0.8518
13868SOL     OW43054   5.090   0.675   1.238 -0.3611  0.0275  0.1315
13868SOL    HW143055   5.024   0.607   1.243  0.5678 -1.2224 -2.7683
13868SOL    HW243056   5.160   0.645   1.296 -0.3314 -1.0900 -0.4580
13869SOL     OW43057   6.055   5.063   3.690  0.4125  0.3885  0.5927
13869SOL    HW143058   5.991   5.061   3.618  2.0106 -1.6690 -0.9287
13869SOL    HW243059   6.103   4.981   3.680  1.8035  0.8155  3.0646
13870SOL     OW43060   8.307   3.921   4.778  0.0824 -0.4356  0.5829
13870SOL    HW143061   8.374   3.895   4.841  0.0435  0.4433  1.0114
13870SOL    HW243062   8.356   3.951   4.702  0.2104  0.5331  1.0262
13871SOL     OW43063   3.607   2.733   7.742  0.4275  0.4978  0.0185
13871SOL    HW143064   3.679   2.713   7.683  1.1428  1.9600  0.3617
13871SOL    HW243065   3.573   2.817   7.712  0.4815  1.0181  1.3548
13872SOL     OW43066   4.346   0.060   3.234 -0.4268  1.2104  0.0273
13872SOL    HW143067   4.383  -0.025   3.209 -2.0831  0.3368  0.3888
13872SOL    HW243068   4.387   0.122   3.173  1.8794  0.4103  0.6473
13873SOL     OW43069   6.367   1.869   3.033  0.2787  0.2140 -0.1982
13873SOL    HW143070   6.457   1.840   3.015  0.9817  0.5244  2.4900
13873SOL    HW243071   6.369   1.963   3.014 -0.1109 -0.1163 -2.1362
13874SOL     OW43072   6.469   1.709   7.144 -0.0106  1.2576 -0.0014
13874SOL    HW143073   6.457   1.620   7.110  0.1353  0.3792  2.0818
13874SOL    HW243074   6.518   1.754   7.076 -0.2352 -0.1997 -1.1860
13875SOL     OW43075   4.545   6.505   9.008 -0.0511 -0.0263  0.3512
13875SOL    HW143076   4.527   6.556   8.929  0.9622 -1.4101 -0.8300
13875SOL    HW243077   4.500   6.422   8.993 -0.4348 -0.0448  1.5682
13876SOL     OW43078   3.875   1.767   2.257  0.3034 -0.4430  0.1882
13876SOL    HW143079   3.852   1.721   2.177  1.3998  0.1399 -0.4842
13876SOL    HW243080   3.802   1.826   2.273 -0.3445 -1.2218  0.1396
13877SOL     OW43081   6.209   3.292   0.367 -0.0414  0.5639  0.1253
13877SOL    HW143082   6.170   3.294   0.279 -1.9650 -0.2551  0.9091
13877SOL    HW243083   6.142   3.330   0.423  0.8393  0.3197  1.3758
13878SOL     OW43084   5.751   3.266   6.879  0.1518 -0.5801  0.4101
13878SOL    HW143085   5.788   3.341   6.926  1.8209 -0.3479 -1.1835
13878SOL    HW243086   5.730   3.203   6.948  0.3045  0.6615  1.6449
13879SOL     OW43087   4.106   0.124   5.702 -0.2880  0.1093  0.7292
13879SOL    HW143088   4.041   0.193   5.712 -0.8863 -0.3283 -0.0051
13879SOL    HW243089   4.084   0.059   5.768  0.1557  0.5157  1.2894
13880SOL     OW43090   3.677   3.073   0.349 -0.4357  0.1227 -0.1586
13880SOL    HW143091   3.709   2.986   0.325  0.5053  0.5191 -0.4059
13880SOL    HW243092   3.625   3.101   0.273  0.3869  0.3157 -0.6690
13881SOL     OW43093   3.691   6.753   8.879  0.4491  0.0111 -0.2793
13881SOL    HW143094   3.601   6.754   8.846  0.4324 -0.5582 -0.2582
13881SOL    HW243095   3.745   6.757   8.800  0.4233  1.3037 -0.2640
13882SOL     OW43096   4.084   4.922   2.358  0.2876  0.4349  0.1620
13882SOL    HW143097   4.169   4.954   2.329 -0.7344  2.6830 -0.6043
13882SOL    HW243098   4.104   4.846   2.413  2.6908  0.2765 -0.8261
13883SOL     OW43099   7.939   0.019   6.515  0.2154  0.0078 -0.2296
13883SOL    HW143100   8.013   0.078   6.529 -0.0324 -0.0114  1.2760
13883SOL    HW243101   7.913  -0.010   6.602 -2.5164  1.1727 -0.5329
13884SOL     OW43102   7.745   3.320   5.555 -0.3020 -0.6681  0.2586
13884SOL    HW143103   7.702   3.293   5.473  1.7020 -1.1780 -0.6868
13884SOL    HW243104   7.737   3.415   5.556  1.2239 -0.4626 -1.5316
13885SOL     OW43105   7.535   2.865   7.678 -0.5040  0.0146 -0.5459
13885SOL    HW143106   7.457   2.842   7.627 -0.9792 -0.9117  0.5478
13885SOL    HW243107   7.514   2.836   7.767  0.3089  1.5859  0.1802
13886SOL     OW43108   8.714   7.883   0.884 -0.1576 -1.0110  0.1980
13886SOL    HW143109   8.642   7.913   0.829  0.2812  0.1969  0.2474
13886SOL    HW243110   8.676   7.871   0.971 -0.1405  0.5059  0.4434
13887SOL     OW43111   5.292   7.169   2.560  0.2774  0.5370  0.1699
13887SOL    HW143112   5.386   7.166   2.546  0.0108 -1.0331 -1.7905
13887SOL    HW243113   5.255   7.126   2.483 -1.9059 -1.3384  2.0889
13888SOL     OW43114   2.246   7.143   7.919 -0.4550  0.3593  0.3499
13888SOL    HW143115   2.256   7.237   7.905  1.5379 -0.0164 -1.0470
13888SOL    HW243116   2.326   7.104   7.884 -0.5612 -1.7539  2.2186
13889SOL     OW43117   8.547   1.621   2.552  0.0109  0.1353  0.7839
13889SOL    HW143118   8.493   1.696   2.579  1.0764  1.1841  0.0658
13889SOL    HW243119   8.605   1.605   2.626 -1.7072 -1.4894  1.8823
13890SOL     OW43120   2.629   2.877   8.751 -0.3125 -0.4269  0.0503
13890SOL    HW143121   2.653   2.897   8.660  1.0861 -0.6669  0.3370
13890SOL    HW243122   2.672   2.945   8.802 -0.2224 -0.8994  0.6109
13891SOL     OW43123   0.246   6.942   3.686 -0.1208  0.3934  0.2427
13891SOL    HW143124   0.281   6.876   3.626  0.3790  1.0893 -0.2540
13891SOL    HW243125   0.193   6.893   3.749  0.0354 -0.4434 -0.2704
13892SOL     OW43126   7.755   7.669   0.456  0.2812 -0.0279 -0.2062
13892SOL    HW143127   7.739   7.705   0.368  1.6189  0.6791 -0.1863
13892SOL    HW243128   7.706   7.587   0.457 -0.7125  0.5232 -1.1968
13893SOL     OW43129   8.968   4.256   2.511  0.4626 -0.1791  0.2495
13893SOL    HW143130   9.050   4.207   2.511  0.6362  0.0858 -0.6653
13893SOL    HW243131   8.995   4.348   2.521  0.4719  0.1350 -2.1321
13894SOL     OW43132   0.816   3.842   6.355 -0.1005  0.1825  0.2240
13894SOL    HW143133   0.877   3.860   6.427 -2.0361  1.8720  1.5615
13894SOL    HW243134   0.818   3.920   6.301 -0.8476  0.1510  0.1344
13895SOL     OW43135   7.305   8.468   0.335 -0.3364  0.3589  0.3297
13895SOL    HW143136   7.276   8.530   0.402  0.8545  1.2383  0.0609
13895SOL    HW243137   7.288   8.382   0.373 -2.5947  0.8126  0.4654
13896SOL     OW43138   0.691   0.776   3.192 -0.0831 -0.6306 -0.3427
13896SOL    HW143139   0.605   0.793   3.232  0.2137 -1.2347  0.5872
13896SOL    HW243140   0.752   0.830   3.243 -0.0442  0.7003 -1.7450
13897SOL     OW43141   3.461   3.641   6.840 -0.5482  0.0798 -0.1582
13897SOL    HW143142   3.505   3.711   6.889 -1.0135  1.3316 -1.4399
13897SOL    HW243143   3.420   3.687   6.766 -0.9490 -1.5574 -0.9857
13898SOL     OW43144   8.287   7.134   6.173  0.5417  0.0375  0.0936
13898SOL    HW143145   8.337   7.075   6.118  0.9737  1.4154 -1.0524
13898SOL    HW243146   8.216   7.165   6.117 -1.4418 -1.5506  1.5483
13899SOL     OW43147   2.489   7.163   3.200 -0.1247 -0.0760  0.8919
13899SOL    HW143148   2.450   7.136   3.283 -0.0118 -1.2313  0.5951
13899SOL    HW243149   2.480   7.086   3.144 -1.3805  1.1029 -0.6100
13900SOL     OW43150   5.666   7.347   1.884 -0.5493  0.0459  0.4663
13900SOL    HW143151   5.584   7.392   1.868 -0.5327  0.2856  1.0361
13900SOL    HW243152   5.652   7.258   1.849 -1.4174 -0.2416  1.4993
13901SOL     OW43153   8.280   7.937   3.924 -0.3239  0.0398  0.1476
13901SOL    HW143154   8.297   7.908   3.834 -0.2660  0.6030 -0.0274
13901SOL    HW243155   8.185   7.950   3.927 -0.3499 -0.1511  0.2262
13902SOL     OW43156   3.280   2.127   0.866  0.4613 -0.0884  0.2283
13902SOL    HW143157   3.360   2.179   0.873  0.4062  0.2723 -1.4440
13902SOL    HW243158   3.222   2.179   0.810 -1.1812 -0.0859  1.8414
13903SOL     OW43159   7.769   4.652   2.860  0.5908  0.0888  0.2032
13903SOL    HW143160   7.842   4.705   2.892  0.3305  0.8781 -0.4881
13903SOL    HW243161   7.733   4.702   2.787 -0.4881 -0.4182  0.3750
13904SOL     OW43162   4.381   3.607   9.100 -0.3987 -0.0529  0.3349
13904SOL    HW143163   4.409   3.653   9.021  2.3092  1.1102  1.7968
13904SOL    HW243164   4.406   3.516   9.086  1.2260  0.3722  0.2706
13905SOL     OW43165   8.253   5.100   2.235 -0.2188 -0.4087 -0.0528
13905SOL    HW143166   8.270   5.132   2.146 -0.6517 -1.7356 -0.6456
13905SOL    HW243167   8.337   5.068   2.266 -0.4500 -1.8016 -0.7942
13906SOL     OW43168   3.763   0.565   4.122 -0.9660  0.1641 -0.4629
13906SOL    HW143169   3.770   0.657   4.095  0.4885  0.8590  1.9795
13906SOL    HW243170   3.853   0.533   4.124 -0.6460  0.5871  4.3605
13907SOL     OW43171   5.680   2.365   4.529 -0.0844 -0.5378  0.3888
13907SOL    HW143172   5.660   2.365   4.436  0.6483  0.6408  0.2067
13907SOL    HW243173   5.701   2.274   4.549  0.3212 -0.7062 -0.7262
13908SOL     OW43174   0.822   6.452   1.278  0.8125 -0.0839  0.6144
13908SOL    HW143175   0.774   6.383   1.324 -0.7654  1.1683  0.9347
13908SOL    HW243176   0.788   6.451   1.189 -0.7731  1.5660  1.1312
13909SOL     OW43177   1.685   1.183   0.583 -0.0140  0.2701  0.2020
13909SOL    HW143178   1.668   1.100   0.627  1.5138  1.1622  2.6963
13909SOL    HW243179   1.657   1.250   0.646 -2.3940  1.7616 -2.2266
13910SOL     OW43180   3.999   8.429   8.019  0.6219  0.1039  0.5258
13910SOL    HW143181   3.953   8.486   7.957 -1.4661  0.1189  1.9851
13910SOL    HW243182   3.930   8.375   8.057  2.2837 -2.0921  0.5947
13911SOL     OW43183   7.178   8.079   5.426  0.6233  0.0801 -0.1294
13911SOL    HW143184   7.215   8.004   5.380 -0.2829 -0.3680 -0.1585
13911SOL    HW243185   7.091   8.050   5.453  1.1217  0.3317  1.8745
13912SOL     OW43186   2.162   6.994   4.527  0.1486 -0.3625  0.1418
13912SOL    HW143187   2.149   7.019   4.618 -1.3761 -0.5141 -0.0053
13912SOL    HW243188   2.095   7.042   4.478  0.7426 -0.5159 -0.8664
13913SOL     OW43189   4.487   4.780   0.377  0.1089  0.4006  0.3327
13913SOL    HW143190   4.566   4.763   0.326 -0.0404 -0.8607  0.4995
13913SOL    HW243191   4.509   4.858   0.429  0.8258  0.7476 -0.4540
13914SOL     OW43192   5.072   8.757   0.866 -0.1989 -1.0695  0.0418
13914SOL    HW143193   4.981   8.740   0.888 -0.3679 -0.9640 -0.5671
13914SOL    HW243194   5.104   8.673   0.831 -0.3402 -0.8273 -0.6661
13915SOL     OW43195   6.825   0.531   6.391  0.4526  0.1682  0.2488
13915SOL    HW143196   6.894   0.533   6.324  0.8100  0.3598  0.6165
13915SOL    HW243197   6.790   0.620   6.392  0.8556  0.3249  0.7305
13916SOL     OW43198   1.039   7.972   0.281 -0.1060 -0.5506  0.3603
13916SOL    HW143199   0.945   7.970   0.296 -0.2684 -1.9503 -0.6364
13916SOL    HW243200   1.068   7.882   0.300  1.4400  0.3968  2.9507
13917SOL     OW43201   4.169   5.907   1.825 -0.0970 -0.0809  0.1929
13917SOL    HW143202   4.156   5.889   1.732 -2.5417  0.2404  0.4129
13917SOL    HW243203   4.086   5.946   1.854  1.0555  1.0266  2.2231
13918SOL     OW43204   3.780   6.815   5.324  0.1749  0.3028  0.0816
13918SOL    HW143205   3.806   6.880   5.389  1.0108  0.5640 -0.5027
13918SOL    HW243206   3.759   6.866   5.246  1.3463 -0.1503 -0.5448
13919SOL     OW43207   6.192   5.040   2.949  0.0766 -0.4005 -0.0283
13919SOL    HW143208   6.274   4.992   2.962 -0.0728 -0.8614 -0.7669
13919SOL    HW243209   6.172   5.031   2.856 -1.2603 -1.0288  0.2867
13920SOL     OW43210   3.452   7.427   1.953 -0.5584 -0.6938  0.3914
13920SOL    HW143211   3.388   7.399   2.019  0.3665 -0.9491  1.2043
13920SOL    HW243212   3.535   7.389   1.983  0.2590  0.8559  0.1703
13921SOL     OW43213   3.015   1.873   8.548 -0.4183  0.7547 -0.1400
13921SOL    HW143214   2.985   1.791   8.587 -0.4412  0.6544 -0.3649
13921SOL    HW243215   2.951   1.891   8.478  0.7664 -0.1566 -1.5299
13922SOL     OW43216   5.337   5.530   1.525 -0.0952  0.3428 -0.1621
13922SOL    HW143217   5.331   5.608   1.580  1.4997  0.5123 -0.1994
13922SOL    HW243218   5.344   5.457   1.587  0.3279  0.4093 -0.1300
13923SOL     OW43219   0.238   8.867   9.097 -0.5489 -0.2842 -1.1196
13923SOL    HW143220   0.190   8.898   9.020 -1.6051 -1.4923 -0.9867
13923SOL    HW243221   0.328   8.896   9.082 -1.1473  1.3718 -1.7543
13924SOL     OW43222   0.815   8.699   9.129 -0.0382  0.3993  0.2232
13924SOL    HW143223   0.819   8.607   9.103  0.4246  0.4218  0.2225
13924SOL    HW243224   0.732   8.707   9.176 -0.1839  0.0322  0.0308
13925SOL     OW43225   7.975   1.018   6.842  0.2452  0.1476  0.1699
13925SOL    HW143226   7.881   1.006   6.828  0.7272 -1.7875 -1.8418
13925SOL    HW243227   8.013   1.017   6.755  2.2750 -0.2989  1.0038
13926SOL     OW43228   2.576   6.495   7.112  0.4447  0.5414  0.4752
13926SOL    HW143229   2.589   6.514   7.205  1.2274 -2.2353  1.0341
13926SOL    HW243230   2.503   6.434   7.109  0.8864  0.0303 -0.6579
13927SOL     OW43231   7.540   6.822   7.202  0.1132  0.3625 -0.6672
13927SOL    HW143232   7.480   6.748   7.198  0.3946  0.1698 -1.4846
13927SOL    HW243233   7.615   6.796   7.150  0.1667  1.2692 -1.0677
13928SOL     OW43234   0.414   4.367   1.233 -0.3967  0.3139  0.4329
13928SOL    HW143235   0.349   4.324   1.289 -1.1468 -0.1065 -0.7226
13928SOL    HW243236   0.372   4.448   1.206 -0.1484  0.3904  0.2761
13929SOL     OW43237   3.157   4.524   8.158  0.5650 -0.9379 -0.0288
13929SOL    HW143238   3.067   4.512   8.190  0.7741 -0.8347  0.6296
13929SOL    HW243239   3.148   4.535   8.064 -0.1863 -0.2216  0.1116
13930SOL     OW43240   7.202   1.771   3.781 -0.4285  0.3900  0.1680
13930SOL    HW143241   7.216   1.677   3.792 -2.1660  0.1780  0.9869
13930SOL    HW243242   7.155   1.798   3.860 -1.1189  1.6828 -0.6339
13931SOL     OW43243   5.387   2.669   4.946  0.4522 -0.4567  0.2521
13931SOL    HW143244   5.420   2.757   4.934 -1.0459 -0.0150 -1.0521
13931SOL    HW243245   5.423   2.640   5.029 -0.5488  2.1279  1.6886
13932SOL     OW43246   0.466   6.565   4.026 -0.3147  0.2977 -0.3419
13932SOL    HW143247   0.552   6.535   3.996 -0.1603 -1.1558  1.3892
13932SOL    HW243248   0.483   6.599   4.114 -1.8422 -2.3096  1.0602
13933SOL     OW43249   1.999   4.454   6.505 -0.2373 -0.2262  0.0232
13933SOL    HW143250   2.065   4.499   6.453  0.7938 -0.4189  1.1190
13933SOL    HW243251   1.942   4.524   6.537  0.5601  0.1704  0.6081
13934SOL     OW43252   5.025   5.061   5.988 -0.3562 -0.7856  0.2159
13934SOL    HW143253   4.935   5.093   5.978 -0.0559 -0.1908 -0.7075
13934SOL    HW243254   5.068   5.086   5.906  0.8890 -0.2546  1.0086
13935SOL     OW43255   1.915   6.456   8.552  0.1675 -1.0279  0.1044
13935SOL    HW143256   1.992   6.507   8.579  0.8423 -0.6999 -2.2459
13935SOL    HW243257   1.949   6.394   8.487 -1.6820 -0.1973 -1.7685
13936SOL     OW43258   3.823   5.331   6.213  0.2302  0.8528 -0.0681
13936SOL    HW143259   3.756   5.287   6.162  0.1457  0.8266  0.0657
13936SOL    HW243260   3.849   5.268   6.280  0.1293  0.9933  0.1061
13937SOL     OW43261   1.066   0.107   6.610  0.2717  1.1078 -0.3459
13937SOL    HW143262   1.142   0.072   6.657  0.1942  1.0104 -0.2908
13937SOL    HW243263   1.103   0.155   6.536  0.3708  0.5568 -0.6603
13938SOL     OW43264   2.372   3.015   3.168 -0.8072  0.0874  0.5663
13938SOL    HW143265   2.313   2.979   3.234  0.5321 -0.5562  1.4631
13938SOL    HW243266   2.317   3.072   3.115 -1.8552  0.9348  2.4627
13939SOL     OW43267   2.017   7.034   7.792  0.1712  0.2922  0.9284
13939SOL    HW143268   2.079   7.051   7.863 -2.3011  1.3245  3.0415
13939SOL    HW243269   1.940   7.086   7.816 -1.4588 -0.7921 -1.6007
13940SOL     OW43270   6.065   3.033   0.086  0.0342 -0.0920 -0.4800
13940SOL    HW143271   6.021   3.056   0.168 -0.4205 -1.5384 -0.2926
13940SOL    HW243272   6.072   2.938   0.088 -1.0789 -0.2959 -2.6469
13941SOL     OW43273   3.839   9.073   5.157 -0.5559  0.0698 -0.3177
13941SOL    HW143274   3.931   9.049   5.149 -0.2964 -0.0913  2.3460
13941SOL    HW243275   3.795   8.993   5.185 -1.1305  0.6672  0.5138
13942SOL     OW43276   5.581   6.930   3.180 -0.4658 -0.0786 -0.4704
13942SOL    HW143277   5.581   6.987   3.257 -1.0874  0.5753 -0.9536
13942SOL    HW243278   5.592   6.842   3.217  1.2567  0.3766  0.2293
13943SOL     OW43279   1.128   3.110   1.868  0.8891 -0.0769  0.0214
13943SOL    HW143280   1.213   3.067   1.859  1.7451  1.8108 -1.8705
13943SOL    HW243281   1.148   3.194   1.909 -0.0156  0.4700 -0.6221
13944SOL     OW43282   3.416   6.168   8.120 -0.0768  0.0513  0.0019
13944SOL    HW143283   3.471   6.206   8.188 -1.6026  1.1617  0.6772
13944SOL    HW243284   3.429   6.226   8.044 -1.1283  1.0085  0.5159
13945SOL     OW43285   6.976   0.444   2.553 -0.2694  0.0707  0.1060
13945SOL    HW143286   6.964   0.437   2.459 -0.1925 -3.0812  0.2225
13945SOL    HW243287   6.892   0.417   2.591  0.1589 -0.1854  0.9165
13946SOL     OW43288   3.625   1.426   3.865 -0.1024 -0.0764  0.2009
13946SOL    HW143289   3.568   1.478   3.808  1.1415 -0.6192 -1.6344
13946SOL    HW243290   3.689   1.488   3.897 -0.3238  0.0764  0.3512
13947SOL     OW43291   6.448   1.430   9.023 -0.1113 -0.1045  0.0733
13947SOL    HW143292   6.531   1.406   9.064  0.5674  0.5956 -0.8728
13947SOL    HW243293   6.436   1.522   9.045 -0.9353 -0.3365  0.6693
13948SOL     OW43294   4.542   0.794   8.851  0.0892  0.1521  0.3047
13948SOL    HW143295   4.507   0.751   8.928 -1.0485  0.8743  0.2175
13948SOL    HW243296   4.536   0.888   8.871 -0.2365  0.3497 -0.6500
13949SOL     OW43297   4.554   5.677   4.568 -0.4662 -0.3954 -0.5125
13949SOL    HW143298   4.616   5.749   4.580 -0.0819 -0.3771 -2.2799
13949SOL    HW243299   4.475   5.719   4.535 -0.4690 -0.7008 -0.9014
13950SOL     OW43300   3.529   2.986   7.008 -0.2950 -0.2994 -0.1987
13950SOL    HW143301   3.436   3.006   7.018 -0.3730 -1.0465  0.6497
13950SOL    HW243302   3.547   2.920   7.074  0.9384  0.1145 -0.0919
13951SOL     OW43303   5.320   5.194   3.452  0.0669 -0.6169  0.0317
13951SOL    HW143304   5.369   5.263   3.407  0.6637 -0.0083  1.5244
13951SOL    HW243305   5.387   5.131   3.479 -0.1439 -0.5378  0.7756
13952SOL     OW43306   6.408   8.758   0.095  0.1872  0.6088 -0.1471
13952SOL    HW143307   6.325   8.779   0.138 -0.0125  0.8625 -0.6517
13952SOL    HW243308   6.474   8.803   0.147  0.3471 -1.7873  1.9419
13953SOL     OW43309   6.764   7.748   0.650 -0.1849  0.5444 -0.3067
13953SOL    HW143310   6.821   7.703   0.589  0.8239  3.8779 -2.0233
13953SOL    HW243311   6.817   7.758   0.730 -0.2504 -0.7404 -0.0791
13954SOL     OW43312   8.980   1.268   4.142 -0.7653 -0.3292  0.0081
13954SOL    HW143313   9.065   1.283   4.100 -1.0881 -0.8034 -0.8566
13954SOL    HW243314   8.989   1.182   4.184 -0.6824 -0.1882  0.2800
13955SOL     OW43315   3.669   1.280   5.263 -0.1577  0.5958  0.3257
13955SOL    HW143316   3.752   1.234   5.266 -0.7161 -0.5129 -0.5213
13955SOL    HW243317   3.612   1.224   5.210 -1.3086  1.5446  0.5109
13956SOL     OW43318   2.241   6.178   6.535 -0.3194 -0.3224  0.2011
13956SOL    HW143319   2.218   6.249   6.595  0.8523  1.0132 -0.8557
13956SOL    HW243320   2.248   6.221   6.449  2.5626 -1.2171 -0.1258
13957SOL     OW43321   0.273   0.481   4.963 -0.4574 -0.4773  0.1745
13957SOL    HW143322   0.242   0.511   4.877 -1.6654 -2.2753 -0.0567
13957SOL    HW243323   0.280   0.386   4.955 -1.2129 -0.7538  2.2632
13958SOL     OW43324   7.584   8.453   7.131 -0.1745  0.1170 -0.4825
13958SOL    HW143325   7.598   8.522   7.066  0.7813  1.8441  1.4574
13958SOL    HW243326   7.519   8.490   7.192 -0.4846 -1.1522  0.0005
13959SOL     OW43327   3.582   4.475   3.321 -0.2520 -0.3073  0.0632
13959SOL    HW143328   3.674   4.456   3.338  0.0708  0.0002 -1.1986
13959SOL    HW243329   3.569   4.564   3.354 -1.2219 -1.7356  4.0335
13960SOL     OW43330   8.481   0.459   3.951 -0.5315 -0.3476  0.1017
13960SOL    HW143331   8.429   0.498   4.021  0.4619 -1.0440  1.2476
13960SOL    HW243332   8.564   0.507   3.952  0.4577 -1.9739  1.1018
13961SOL     OW43333   8.603   0.401   1.162  0.2833  0.4471 -0.0593
13961SOL    HW143334   8.519   0.412   1.117  0.8122 -0.3999 -1.3044
13961SOL    HW243335   8.607   0.308   1.183  1.6304  0.1414 -1.5272
13962SOL     OW43336   6.612   3.918   1.282 -0.1777 -0.2316 -0.2721
13962SOL    HW143337   6.669   3.924   1.206 -0.2917 -1.9849 -0.5508
13962SOL    HW243338   6.526   3.897   1.245 -0.4545 -0.0810  0.2798
13963SOL     OW43339   2.111   1.611   0.038 -0.5279  0.1480 -0.4713
13963SOL    HW143340   2.148   1.613  -0.050 -0.1621  1.5550 -0.3209
13963SOL    HW243341   2.016   1.616   0.024 -0.5910 -1.4122 -0.8034
13964SOL     OW43342   4.253   0.799   0.329  0.2326  0.4815  0.0179
13964SOL    HW143343   4.342   0.825   0.308  0.0292  0.5728 -0.7676
13964SOL    HW243344   4.218   0.873   0.379  1.6125 -0.8808  3.3244
13965SOL     OW43345   0.852   1.912   1.179 -0.5699 -0.1956  0.3333
13965SOL    HW143346   0.811   1.977   1.123  0.9216  0.7861  0.3327
13965SOL    HW243347   0.946   1.924   1.167 -0.2304 -1.7627  1.0127
13966SOL     OW43348   1.876   8.196   6.557  0.7303  0.2152 -0.2555
13966SOL    HW143349   1.806   8.143   6.519  0.9586 -1.1458  1.1295
13966SOL    HW243350   1.946   8.195   6.491  0.3672 -0.4386 -0.6373
13967SOL     OW43351   0.689   9.135   9.108 -0.3396 -0.5145  0.3992
13967SOL    HW143352   0.650   9.079   9.176 -0.9315 -2.2731 -1.2721
13967SOL    HW243353   0.776   9.156   9.142 -0.7216 -1.0779  1.8351
13968SOL     OW43354   0.359   0.195   7.460  0.2527 -0.2306 -0.5241
13968SOL    HW143355   0.359   0.291   7.463  0.2777 -0.2409 -0.0421
13968SOL    HW243356   0.290   0.172   7.398  0.2296  0.1006 -0.6220
13969SOL     OW43357   0.871   5.791   6.175 -0.0755  0.2671  0.1735
13969SOL    HW143358   0.886   5.699   6.151  1.4970  0.6635 -0.4597
13969SOL    HW243359   0.791   5.789   6.228 -0.5420 -1.3555 -0.5313
13970SOL     OW43360   1.616   0.739   0.128 -0.2797 -0.5951 -0.3729
13970SOL    HW143361   1.621   0.777   0.040 -0.5520 -2.7723 -1.3926
13970SOL    HW243362   1.704   0.749   0.163 -0.1285  0.1689 -0.9442
13971SOL     OW43363   1.499   8.052   6.246 -0.2891  0.0512 -0.4721
13971SOL    HW143364   1.517   8.116   6.314  1.5524 -0.1152 -0.7560
13971SOL    HW243365   1.544   7.973   6.275 -1.8668 -0.9107 -0.5127
13972SOL     OW43366   1.747   1.719   3.779 -0.3602  0.3470 -0.7644
13972SOL    HW143367   1.708   1.634   3.756 -1.4539  0.5561  0.2451
13972SOL    HW243368   1.699   1.783   3.726  0.3744  0.3706 -1.4253
13973SOL     OW43369   7.241   7.102   7.409 -0.0950  0.4801 -0.0231
13973SOL    HW143370   7.306   7.157   7.365  0.9723  0.6971  1.7566
13973SOL    HW243371   7.160   7.118   7.361  0.9619  0.8461 -1.7739
13974SOL     OW43372   3.422   7.212   0.610  0.4598 -0.0619 -0.1588
13974SOL    HW143373   3.335   7.206   0.650  0.3219 -2.9448 -0.6117
13974SOL    HW243374   3.404   7.232   0.518  0.1346 -1.4581 -0.4355
13975SOL     OW43375   1.940   1.300   3.337  0.0168  0.0730 -0.0266
13975SOL    HW143376   2.011   1.356   3.304 -0.9237  1.4783  0.2681
13975SOL    HW243377   1.934   1.322   3.430 -1.6076  0.8955 -0.3015
13976SOL     OW43378   5.733   5.787   6.163 -0.4350 -0.7312  0.2297
13976SOL    HW143379   5.669   5.716   6.168  0.5739 -1.8877 -1.9582
13976SOL    HW243380   5.814   5.750   6.197 -0.3701  0.0291  0.9384
13977SOL     OW43381   4.770   9.156   5.843  0.8482 -0.4200  0.4897
13977SOL    HW143382   4.803   9.173   5.932  1.1318  1.7268  0.0124
13977SOL    HW243383   4.741   9.241   5.811  1.5073 -0.9775 -1.7953
13978SOL     OW43384   3.996   8.056   8.753 -0.0747  0.2786 -0.3215
13978SOL    HW143385   3.915   8.078   8.707 -0.6239  0.0569  0.5122
13978SOL    HW243386   3.972   8.056   8.846  0.7032 -0.5009 -0.1051
13979SOL     OW43387   2.024   4.223   5.915 -0.4568 -0.3226  0.0757
13979SOL    HW143388   1.953   4.286   5.904 -0.0812 -0.1857 -1.9313
13979SOL    HW243389   1.990   4.142   5.876 -0.8455 -1.3796  2.3942
13980SOL     OW43390   8.607   7.850   6.132  0.3030  0.5056  0.3145
13980SOL    HW143391   8.640   7.859   6.221  0.1767 -0.3702  0.4634
13980SOL    HW243392   8.651   7.771   6.099  0.5654  0.9787 -0.4981
13981SOL     OW43393   5.713   2.810   6.749  0.3986  0.1568 -0.0301
13981SOL    HW143394   5.727   2.859   6.830 -0.4467  0.9166 -0.3351
13981SOL    HW243395   5.774   2.736   6.755  1.9880  1.4190  0.2786
13982SOL     OW43396   8.803   1.767   5.275 -0.0175  0.1009  0.1085
13982SOL    HW143397   8.821   1.703   5.207 -0.2420  0.7696 -0.6016
13982SOL    HW243398   8.778   1.716   5.352  0.9551 -0.6912 -0.0890
13983SOL     OW43399   6.698   7.395   3.626  0.0875 -0.3984 -0.2657
13983SOL    HW143400   6.734   7.362   3.543  0.9596 -0.7470  0.2432
13983SOL    HW243401   6.616   7.346   3.637 -0.3323  0.0540 -1.1914
13984SOL     OW43402   9.030   5.102   1.934  0.1515  0.1437  0.0317
13984SOL    HW143403   8.976   5.075   2.008  0.9706 -1.2885  0.1423
13984SOL    HW243404   9.019   5.032   1.869 -0.9156  1.5908 -1.4215
13985SOL     OW43405   6.988   7.321   5.830 -0.3479 -0.6375 -0.5814
13985SOL    HW143406   6.911   7.331   5.773 -0.1067  1.1166 -0.6529
13985SOL    HW243407   6.952   7.316   5.919 -0.5254  1.4389 -0.5009
13986SOL     OW43408   5.776   5.373   5.996  0.1554  0.1207 -0.2233
13986SOL    HW143409   5.736   5.288   5.979 -0.7876  0.5454 -0.1543
13986SOL    HW243410   5.844   5.355   6.060 -0.1943 -0.5472 -0.0361
13987SOL     OW43411   3.678   2.958   1.634 -0.1962  0.7242  0.1548
13987SOL    HW143412   3.618   2.894   1.595 -1.3553  0.2026  2.6229
13987SOL    HW243413   3.753   2.906   1.663  0.0942  0.9269 -0.2178
13988SOL     OW43414   8.420   4.610   4.500 -0.2392  0.0827 -0.0706
13988SOL    HW143415   8.350   4.657   4.546 -0.4897 -0.2129 -0.1521
13988SOL    HW243416   8.497   4.620   4.557 -0.3784  0.2966  0.0812
13989SOL     OW43417   7.916   1.522   3.980  0.2615  0.0539 -0.1401
13989SOL    HW143418   7.979   1.519   4.052 -0.8678  2.7358  1.1053
13989SOL    HW243419   7.957   1.580   3.915  0.4459 -0.8394 -0.8490
13990SOL     OW43420   6.224   1.790   7.230 -0.4539  0.7554 -0.0712
13990SOL    HW143421   6.311   1.768   7.199  0.3832  1.1058  1.8652
13990SOL    HW243422   6.165   1.751   7.166  1.0842 -0.7563 -0.6383
13991SOL     OW43423   5.513   5.963   4.075  0.1006 -0.3059  0.0627
13991SOL    HW143424   5.488   5.903   4.005 -2.3093 -0.0279  0.6025
13991SOL    HW243425   5.469   6.045   4.053  1.0046  0.4188  0.8466
13992SOL     OW43426   6.731   5.066   7.665 -0.8344  0.1365  0.2584
13992SOL    HW143427   6.803   5.004   7.652 -2.5708 -1.8220 -0.8150
13992SOL    HW243428   6.726   5.078   7.759  1.2920  0.8755  0.3132
13993SOL     OW43429   6.022   6.908   9.059  0.3214  0.4087  0.0497
13993SOL    HW143430   6.002   6.863   9.141  0.9877  0.3822  0.2017
13993SOL    HW243431   5.949   6.969   9.047 -0.5271 -0.6195 -0.1006
13994SOL     OW43432   6.680   7.425   7.113  0.6518  0.4522 -0.5735
13994SOL    HW143433   6.616   7.362   7.080 -0.8408  1.1001  0.9989
13994SOL    HW243434   6.658   7.507   7.069  0.3060  0.7048  0.0607
13995SOL     OW43435   0.228   1.545   3.647 -0.3732  0.1651 -0.3448
13995SOL    HW143436   0.185   1.628   3.666  1.5441  1.0601  0.3555
13995SOL    HW243437   0.306   1.545   3.703  0.2264 -1.6367 -1.1042
13996SOL     OW43438   2.771   3.298   5.395  0.0265 -0.1066  0.1149
13996SOL    HW143439   2.795   3.224   5.339 -0.7571  1.1978 -2.0926
13996SOL    HW243440   2.854   3.339   5.417  0.3091  0.7173 -2.1754
13997SOL     OW43441   8.708   3.901   8.073  0.4209  0.3555 -0.0234
13997SOL    HW143442   8.633   3.846   8.052 -0.2105  1.1995  0.0099
13997SOL    HW243443   8.712   3.900   8.169 -0.4595  1.5018  0.0417
13998SOL     OW43444   9.023   3.095   5.935 -0.4491 -0.1585  0.0452
13998SOL    HW143445   8.997   3.010   5.899 -0.2639  0.0860 -0.6990
13998SOL    HW243446   8.993   3.158   5.870  2.1024  0.1299 -0.9712
13999SOL     OW43447   7.526   3.707   7.093 -0.2537  0.1268  0.1891
13999SOL    HW143448   7.533   3.796   7.058  1.4825 -0.5808 -1.4530
13999SOL    HW243449   7.573   3.712   7.177 -0.4374  0.8278  0.2589
14000SOL     OW43450   2.020   3.194   1.023  0.9595 -0.4340 -0.8105
14000SOL    HW143451   1.925   3.185   1.025  0.6142  2.0288 -2.0849
14000SOL    HW243452   2.047   3.154   0.941  0.8857 -0.2146 -0.9424
14001SOL     OW43453   0.384   1.704   4.627  0.1483  0.4958 -0.8707
14001SOL    HW143454   0.362   1.784   4.578  1.0911  1.2679 -0.0593
14001SOL    HW243455   0.471   1.721   4.663 -0.4160 -0.1404  0.8718
14002SOL     OW43456   6.273   3.221   5.014  0.0140 -0.3793  0.3682
14002SOL    HW143457   6.199   3.274   4.983  1.8072 -0.1101 -4.1491
14002SOL    HW243458   6.337   3.285   5.044 -0.0861 -0.3730  0.5705
14003SOL     OW43459   2.977   4.211   8.615  0.0501 -0.1027  0.0540
14003SOL    HW143460   3.062   4.242   8.586  0.1968  0.5155  1.0956
14003SOL    HW243461   2.944   4.280   8.673 -2.8178  1.4677 -3.0730
14004SOL     OW43462   7.498   1.113   3.560 -0.2362 -0.2813 -0.2564
14004SOL    HW143463   7.493   1.202   3.526 -2.5948 -0.7385 -1.3336
14004SOL    HW243464   7.435   1.110   3.632  1.4621 -0.5407  1.3124
14005SOL     OW43465   2.738   1.533   1.102  0.3598  0.2098 -0.0032
14005SOL    HW143466   2.651   1.498   1.083  1.3788 -2.4443 -0.1107
14005SOL    HW243467   2.793   1.503   1.029  1.6042  0.8979  0.6192
14006SOL     OW43468   2.885   5.466   6.226 -0.1476 -0.2644 -0.7150
14006SOL    HW143469   2.929   5.383   6.208 -0.5811 -0.8559  0.8124
14006SOL    HW243470   2.810   5.468   6.167 -0.1614 -0.9794 -0.7221
14007SOL     OW43471   3.140   2.449   8.964 -0.1773 -0.3410  0.7389
14007SOL    HW143472   3.143   2.500   8.883 -0.5567  1.8433  2.0083
14007SOL    HW243473   3.063   2.393   8.953  1.0696 -1.8079 -1.2840
14008SOL     OW43474   5.627   7.473   3.853 -0.1600 -0.0185 -0.6104
14008SOL    HW143475   5.617   7.432   3.939  2.3099 -1.2049 -0.7946
14008SOL    HW243476   5.543   7.515   3.837 -1.3061 -1.2523  1.6007
14009SOL     OW43477   7.228   0.500   5.782  0.0046  0.0008  0.8302
14009SOL    HW143478   7.302   0.443   5.763 -1.2557 -1.1747 -0.8604
14009SOL    HW243479   7.158   0.441   5.810 -0.6748  0.9560  1.2266
14010SOL     OW43480   7.771   7.769   5.221  0.2848  0.1410 -0.3015
14010SOL    HW143481   7.679   7.746   5.232  0.0689  0.1572 -1.8230
14010SOL    HW243482   7.792   7.740   5.132  1.3282  1.5215 -0.5372
14011SOL     OW43483   6.593   1.931   9.047 -0.4024 -0.0207  0.0046
14011SOL    HW143484   6.565   2.018   9.018  0.3354  0.1318 -0.2678
14011SOL    HW243485   6.674   1.947   9.097  0.3358 -0.6455 -0.9556
14012SOL     OW43486   1.421   0.321   8.167  0.1740  0.0128 -0.2099
14012SOL    HW143487   1.481   0.324   8.242 -0.2711 -0.0631  0.1599
14012SOL    HW243488   1.465   0.371   8.098  1.1193 -0.9016 -0.2900
14013SOL     OW43489   8.542   0.896   2.476  0.0824 -0.3781  0.3294
14013SOL    HW143490   8.541   0.815   2.424  0.6553 -0.1350 -0.0639
14013SOL    HW243491   8.621   0.888   2.529  0.1170 -0.0908  0.3181
14014SOL     OW43492   3.420   1.022   4.698 -0.8428 -0.1008 -0.1945
14014SOL    HW143493   3.395   0.930   4.711 -2.0047  0.4342  1.7385
14014SOL    HW243494   3.437   1.029   4.604 -0.4576 -2.3379 -0.3578
14015SOL     OW43495   2.902   2.588   6.108 -0.3234  0.3620  0.4792
14015SOL    HW143496   2.982   2.537   6.097 -0.3793  0.2624  0.5264
14015SOL    HW243497   2.917   2.639   6.188 -0.1433  0.6561  0.2567
14016SOL     OW43498   7.081   1.896   2.852  0.1898 -0.1493  0.1662
14016SOL    HW143499   7.070   1.914   2.945 -0.5194 -0.7801  0.2148
14016SOL    HW243500   7.106   1.980   2.813  1.3000 -0.0500  1.0385
14017SOL     OW43501   0.824   4.870   5.252 -0.4532 -0.9733  0.3260
14017SOL    HW143502   0.848   4.943   5.194  1.1832 -2.4606 -0.9818
14017SOL    HW243503   0.764   4.909   5.315  0.4537  1.5388 -0.2284
14018SOL     OW43504   3.858   1.676   4.439 -0.5379 -0.4981  0.8505
14018SOL    HW143505   3.905   1.667   4.356 -1.1491  2.1658  0.1471
14018SOL    HW243506   3.924   1.656   4.506  0.8592  0.4138 -0.2037
14019SOL     OW43507   3.743   5.505   4.073 -0.8059 -0.1903 -0.3238
14019SOL    HW143508   3.802   5.524   4.000 -1.5900 -0.6952 -1.1123
14019SOL    HW243509   3.744   5.585   4.126  2.6450 -1.0886  1.2075
14020SOL     OW43510   5.072   1.037   7.084  0.4522  0.5409  0.0369
14020SOL    HW143511   5.004   0.985   7.127 -0.0881  1.9389  0.9520
14020SOL    HW243512   5.028   1.077   7.008  0.1261  1.6949  0.8054
14021SOL     OW43513   0.251   3.448   2.115 -0.3977  0.3076 -0.0807
14021SOL    HW143514   0.257   3.391   2.038  0.3025 -0.2919  0.4045
14021SOL    HW243515   0.165   3.489   2.107 -1.5332 -1.8278  0.2195
14022SOL     OW43516   6.422   7.923   7.879 -0.0584 -0.6392  0.5087
14022SOL    HW143517   6.334   7.934   7.915 -0.0698 -0.8238  0.5368
14022SOL    HW243518   6.455   7.843   7.919  0.0954 -0.6095  0.4428
14023SOL     OW43519   6.886   6.784   1.921 -0.2046  0.2532  0.6396
14023SOL    HW143520   6.824   6.712   1.933  0.2182 -0.6509 -1.8574
14023SOL    HW243521   6.930   6.763   1.838  2.2885  1.7100  1.5087
14024SOL     OW43522   3.661   6.995   0.210 -0.3089  0.4925 -0.0140
14024SOL    HW143523   3.583   7.028   0.167 -0.1367 -0.8017 -1.3747
14024SOL    HW243524   3.629   6.932   0.274 -0.4796  1.4652  0.8873
14025SOL     OW43525   0.108   0.370   2.008 -0.0776 -0.4856  0.3038
14025SOL    HW143526   0.178   0.318   2.048 -1.6190 -0.8989  2.7155
14025SOL    HW243527   0.115   0.456   2.051 -0.7873 -0.4188  0.2997
14026SOL     OW43528   5.475   8.517   2.337  0.0609  0.3786  0.4664
14026SOL    HW143529   5.398   8.474   2.376 -0.8337  1.1293 -0.4130
14026SOL    HW243530   5.513   8.450   2.280 -1.0013  0.5344 -0.4656
14027SOL     OW43531   4.450   4.638   7.134  0.1127  0.2604 -0.1374
14027SOL    HW143532   4.380   4.574   7.149  0.4745 -0.8109 -2.5018
14027SOL    HW243533   4.530   4.586   7.135  0.4726  0.7518 -1.4868
14028SOL     OW43534   6.866   8.691   1.480 -0.3851 -0.3590  0.0798
14028SOL    HW143535   6.787   8.745   1.488 -1.9256 -2.2996 -0.8849
14028SOL    HW243536   6.890   8.670   1.570 -1.8860 -0.9157  0.3841
14029SOL     OW43537   8.474   5.698   0.513 -0.1722 -0.0568  0.1565
14029SOL    HW143538   8.407   5.686   0.445  1.4080  1.4502 -1.8046
14029SOL    HW243539   8.556   5.674   0.469  0.9283  1.1544  1.4601
14030SOL     OW43540   7.207   2.585   1.740 -0.2712 -0.1721 -0.1734
14030SOL    HW143541   7.167   2.534   1.811  0.2023 -0.7814 -0.3392
14030SOL    HW243542   7.172   2.545   1.660  0.4370 -0.5215 -0.3136
14031SOL     OW43543   7.741   7.055   1.325 -0.1189  0.1586 -0.0241
14031SOL    HW143544   7.716   7.006   1.403 -0.7208 -0.5055 -0.6181
14031SOL    HW243545   7.689   7.136   1.330 -0.6281 -0.1610 -0.0455
14032SOL     OW43546   3.886   5.275   3.417  0.6277 -0.0229  0.2354
14032SOL    HW143547   3.907   5.275   3.324  0.6844 -0.6116  0.2474
14032SOL    HW243548   3.878   5.183   3.440 -2.0577  0.1186  0.2094
14033SOL     OW43549   4.149   8.327   7.286 -0.4138  0.1149 -0.2300
14033SOL    HW143550   4.147   8.308   7.193  2.5720  0.8098 -0.5440
14033SOL    HW243551   4.131   8.421   7.292  1.6258  0.5699 -0.4141
14034SOL     OW43552   4.786   4.170   8.080  0.1879  0.4890 -0.4336
14034SOL    HW143553   4.769   4.125   7.997 -0.1295  1.7495 -1.0922
14034SOL    HW243554   4.877   4.148   8.101 -0.5210 -1.9850  0.3093
14035SOL     OW43555   4.434   3.566   5.707  0.5886 -0.0859  0.2555
14035SOL    HW143556   4.452   3.608   5.623 -1.1062  1.1555  0.4663
14035SOL    HW243557   4.370   3.623   5.749 -0.3373 -1.8970  1.4084
14036SOL     OW43558   2.375   1.187   6.791  0.5295 -0.3113  0.1164
14036SOL    HW143559   2.365   1.232   6.707 -0.7048 -0.9238 -0.0782
14036SOL    HW243560   2.314   1.231   6.850  0.5468 -0.6353  0.3802
14037SOL     OW43561   2.342   0.921   4.313  0.2292  0.5397  0.3199
14037SOL    HW143562   2.286   0.980   4.262  2.4560  1.4317 -1.2719
14037SOL    HW243563   2.316   0.833   4.285 -1.2998  0.8137  0.7304
14038SOL     OW43564   7.461   4.615   4.641  0.4317  0.8943 -0.0846
14038SOL    HW143565   7.538   4.558   4.641 -0.8166 -0.9766 -2.5254
14038SOL    HW243566   7.472   4.671   4.564 -1.6509 -1.1109 -2.0172
14039SOL     OW43567   5.346   5.235   8.930 -0.2504  0.0164 -0.3681
14039SOL    HW143568   5.362   5.164   8.867 -1.4547 -0.3781 -0.2680
14039SOL    HW243569   5.319   5.309   8.875 -1.7718 -0.4710 -0.3144
14040SOL     OW43570   5.629   2.601   1.557  0.1205 -0.1597 -0.6356
14040SOL    HW143571   5.544   2.560   1.569 -0.2209  0.9779  1.1234
14040SOL    HW243572   5.662   2.565   1.474 -1.9271 -0.8173 -1.2046
14041SOL     OW43573   4.030   1.088   9.036  0.1728 -0.1451  0.1723
14041SOL    HW143574   4.064   1.178   9.029  2.4704 -0.7904  1.5738
14041SOL    HW243575   4.074   1.053   9.114 -0.4054 -2.5935 -0.5263
14042SOL     OW43576   3.593   1.680   6.970  0.4137  0.6712 -0.4904
14042SOL    HW143577   3.506   1.712   6.949  0.3039  0.5084 -0.2910
14042SOL    HW243578   3.626   1.643   6.888 -0.9228 -2.0738  0.0955
14043SOL     OW43579   9.196   7.291   4.182 -0.1972 -0.4306  0.0777
14043SOL    HW143580   9.211   7.239   4.261 -0.1685 -0.2399  0.1975
14043SOL    HW243581   9.231   7.238   4.111 -0.8401 -0.9144  0.1093
14044SOL     OW43582   1.796   8.463   1.183  0.4402 -0.4677 -0.1758
14044SOL    HW143583   1.781   8.372   1.208  1.1843 -0.5299  0.0882
14044SOL    HW243584   1.889   8.478   1.204  0.3860  0.2744 -0.4443
14045SOL     OW43585   3.112   3.785   8.568 -0.0948  0.0600  0.2151
14045SOL    HW143586   3.185   3.724   8.582  0.5024  0.6742 -0.1633
14045SOL    HW243587   3.035   3.737   8.598  0.5516 -0.3393  1.3393
14046SOL     OW43588   6.230   5.899   3.684 -0.3509 -0.4945 -0.1904
14046SOL    HW143589   6.166   5.829   3.667 -1.9582  1.1228 -1.1887
14046SOL    HW243590   6.259   5.927   3.597  2.1842 -1.5188  0.2484
14047SOL     OW43591   0.196   3.389   1.413  0.5423 -0.1107 -0.0626
14047SOL    HW143592   0.125   3.385   1.350 -1.6793  1.3335  2.1486
14047SOL    HW243593   0.205   3.299   1.445 -0.3439 -0.3147 -0.3635
14048SOL     OW43594   5.983   5.747   5.356  0.0944  0.0671 -0.1438
14048SOL    HW143595   5.969   5.677   5.420  1.8691  1.2511  1.6863
14048SOL    HW243596   5.933   5.821   5.391 -0.4006  0.2222 -1.1487
14049SOL     OW43597   0.952   5.418   3.320  0.2634 -0.1409  0.1092
14049SOL    HW143598   0.898   5.409   3.399  1.4860 -0.8951  0.8907
14049SOL    HW243599   1.017   5.484   3.342  0.5844 -0.3216 -0.2927
14050SOL     OW43600   8.464   5.580   6.417  0.5799  0.6209  0.4608
14050SOL    HW143601   8.512   5.652   6.459  1.1426 -0.0069  0.9291
14050SOL    HW243602   8.488   5.586   6.325 -0.5153  1.8996  0.2178
14051SOL     OW43603   6.696   5.922   3.292  0.8475  0.0217 -0.8519
14051SOL    HW143604   6.743   5.913   3.375 -2.0582  2.0769  1.2053
14051SOL    HW243605   6.654   5.837   3.280  1.8897 -0.5455 -0.6821
14052SOL     OW43606   6.264   7.120   1.981  0.1322 -0.1849  0.5949
14052SOL    HW143607   6.188   7.117   2.040  0.0692 -0.4793  0.4990
14052SOL    HW243608   6.338   7.139   2.039 -0.0652  0.4946  0.6399
14053SOL     OW43609   1.798   3.081   5.036  0.0585  0.0162  0.4842
14053SOL    HW143610   1.703   3.073   5.045 -0.0934 -1.8747 -1.8251
14053SOL    HW243611   1.832   3.028   5.108 -0.7830 -2.6658 -0.9553
14054SOL     OW43612   1.327   1.330   1.406 -0.5394 -0.1282  0.0077
14054SOL    HW143613   1.399   1.284   1.449 -0.7043 -0.5729 -0.1860
14054SOL    HW243614   1.341   1.422   1.428  0.0392 -0.2207  0.0469
14055SOL     OW43615   2.882   7.145   4.346  0.2298  0.3563  0.0435
14055SOL    HW143616   2.799   7.112   4.313 -0.1621  1.6724 -0.3333
14055SOL    HW243617   2.864   7.235   4.372  1.5429  0.6795 -0.0792
14056SOL     OW43618   2.836   4.517   4.544 -0.4491  1.0677 -0.1334
14056SOL    HW143619   2.900   4.551   4.481 -0.6228  1.0386 -0.3272
14056SOL    HW243620   2.889   4.487   4.618 -0.2410  1.0900 -0.2717
14057SOL     OW43621   5.308   5.901   6.734  0.7885 -0.0483 -0.3550
14057SOL    HW143622   5.299   5.989   6.697  0.0306  0.2222  0.4493
14057SOL    HW243623   5.374   5.859   6.679 -1.5231 -0.3010 -3.1937
14058SOL     OW43624   7.856   1.210   8.430  0.1063 -0.5258  0.2046
14058SOL    HW143625   7.842   1.128   8.382  0.5530 -0.0401 -0.7811
14058SOL    HW243626   7.950   1.212   8.446  0.3036  0.4125 -0.9468
14059SOL     OW43627   4.159   7.832   8.444  0.1791  0.2754 -0.1324
14059SOL    HW143628   4.202   7.826   8.530  1.3590  0.1772 -0.7046
14059SOL    HW243629   4.223   7.879   8.389  0.3838 -1.5283 -1.5163
14060SOL     OW43630   5.852   3.634   3.624 -0.1592  0.4161  0.2839
14060SOL    HW143631   5.884   3.577   3.554 -0.0368  0.1205  0.5836
14060SOL    HW243632   5.906   3.713   3.617 -0.5372  0.6279 -0.3311
14061SOL     OW43633   1.358   6.329   5.866  0.3381  0.4381 -0.4385
14061SOL    HW143634   1.304   6.398   5.905 -1.1001 -0.9967  0.2816
14061SOL    HW243635   1.320   6.314   5.779  1.7108  1.6504 -1.2911
14062SOL     OW43636   1.315   7.981   0.382  0.1909 -0.0027 -0.1642
14062SOL    HW143637   1.260   7.905   0.364 -0.5493  0.8089 -1.5103
14062SOL    HW243638   1.319   8.028   0.299 -0.3481  2.0621  0.9111
14063SOL     OW43639   7.614   1.955   0.485 -0.1754  0.7662  0.3342
14063SOL    HW143640   7.644   1.915   0.566  0.2689 -0.7175 -0.5088
14063SOL    HW243641   7.536   1.905   0.462 -0.0018  0.8151 -0.3906
14064SOL     OW43642   6.632   6.833   7.815  0.3852  0.2792 -0.3438
14064SOL    HW143643   6.598   6.851   7.727  2.1671 -1.3318 -1.4369
14064SOL    HW243644   6.555   6.807   7.866 -0.2486 -3.0781 -2.6674
14065SOL     OW43645   0.791   0.938   1.877  0.0826 -0.0165  0.0387
14065SOL    HW143646   0.717   0.936   1.816 -0.2546  2.6331  0.2581
14065SOL    HW243647   0.843   1.013   1.850  1.8728 -0.8758  0.8847
14066SOL     OW43648   9.096   0.584   3.877  0.3412  0.1924  0.2734
14066SOL    HW143649   9.136   0.550   3.957  0.8426 -1.7926 -0.7497
14066SOL    HW243650   9.162   0.569   3.809 -0.2465  1.4101 -0.6166
14067SOL     OW43651   2.475   7.779   4.136 -0.1807 -0.5941  0.3544
14067SOL    HW143652   2.496   7.802   4.227  0.1035  1.7328 -0.2305
14067SOL    HW243653   2.443   7.861   4.098  1.7348 -0.9167 -2.2367
14068SOL     OW43654   4.384   5.236   3.737 -0.3836  0.0155 -0.0586
14068SOL    HW143655   4.457   5.182   3.707 -1.0639 -0.3634 -1.0541
14068SOL    HW243656   4.389   5.232   3.832  1.0729  0.2310 -0.1067
14069SOL     OW43657   0.362   3.315   2.999 -0.0790  0.0273 -0.3029
14069SOL    HW143658   0.365   3.222   3.019 -0.2880 -0.0184 -0.4807
14069SOL    HW243659   0.398   3.358   3.077 -0.1686 -0.1894 -0.1438
14070SOL     OW43660   4.881   9.062   2.578  0.9838  0.4097  0.0219
14070SOL    HW143661   4.873   9.157   2.575 -2.0097  0.2375 -0.3011
14070SOL    HW243662   4.797   9.031   2.613  2.5847 -2.0674  2.1371
14071SOL     OW43663   6.365   0.658   2.927  0.1925  0.0237  0.2146
14071SOL    HW143664   6.292   0.627   2.981 -1.0130 -1.2791 -2.0008
14071SOL    HW243665   6.369   0.752   2.943 -1.1306 -0.0789  1.3314
14072SOL     OW43666   2.422   9.190   5.283  0.5841 -0.3874  0.2842
14072SOL    HW143667   2.355   9.255   5.305  1.1043  0.2775 -0.0793
14072SOL    HW243668   2.409   9.173   5.189  2.1206  1.1796 -0.2648
14073SOL     OW43669   3.672   0.096   9.005  0.6320  0.1887 -0.5348
14073SOL    HW143670   3.718   0.048   8.937 -0.9069  0.4039 -1.7878
14073SOL    HW243671   3.595   0.043   9.025  0.3107  0.8290 -0.0147
14074SOL     OW43672   5.162   7.673   5.206 -0.1689  0.0886 -0.2559
14074SOL    HW143673   5.189   7.655   5.296  0.1015 -1.8040 -0.6724
14074SOL    HW243674   5.081   7.723   5.215  0.2272  0.5443  1.0196
14075SOL     OW43675   2.733   8.260   5.865 -0.4613 -0.7772 -0.3122
14075SOL    HW143676   2.640   8.258   5.844 -0.6475 -1.1310  0.5246
14075SOL    HW243677   2.743   8.336   5.923 -0.0668 -0.2037 -1.1143
14076SOL     OW43678   6.740   2.689   3.387 -0.4030 -0.2236  0.3760
14076SOL    HW143679   6.833   2.671   3.373 -0.4390 -1.6948  1.7163
14076SOL    HW243680   6.734   2.719   3.477 -1.3041 -0.7462  0.5047
14077SOL     OW43681   2.611   7.668   0.443  0.0563 -0.1177  0.2990
14077SOL    HW143682   2.618   7.572   0.448 -0.5732 -0.2263 -0.6067
14077SOL    HW243683   2.660   7.691   0.364  1.3152  0.4603  1.2180
14078SOL     OW43684   2.645   5.811   3.568 -0.5653 -0.0124  0.2043
14078SOL    HW143685   2.680   5.781   3.484 -1.4561 -0.6185  0.0416
14078SOL    HW243686   2.692   5.893   3.585  0.0154 -0.1613 -0.6170
14079SOL     OW43687   0.249   7.440   4.921 -0.3210  0.2277  0.0387
14079SOL    HW143688   0.159   7.416   4.901  0.5702 -2.6782 -0.9443
14079SOL    HW243689   0.265   7.402   5.007 -0.0510  0.8448  0.2667
14080SOL     OW43690   7.243   4.176   4.336  0.1187 -0.5245  0.3428
14080SOL    HW143691   7.331   4.174   4.373 -0.1101 -1.0252  0.8675
14080SOL    HW243692   7.211   4.265   4.354  0.6113 -0.2612 -0.0799
14081SOL     OW43693   3.560   1.152   8.626  0.3319 -0.6919 -0.2923
14081SOL    HW143694   3.655   1.149   8.618  0.3854  0.6962 -0.4994
14081SOL    HW243695   3.544   1.195   8.710 -0.0720  0.2508 -0.8247
14082SOL     OW43696   0.964   1.547   4.432 -0.4671  0.2293  0.0264
14082SOL    HW143697   1.027   1.605   4.475  0.2317  0.4317 -1.2293
14082SOL    HW243698   0.879   1.577   4.463 -0.0009  0.2197  1.4260
14083SOL     OW43699   4.572   3.118   2.117  0.0986  0.0225  0.2521
14083SOL    HW143700   4.583   3.196   2.063  0.2060 -0.3934 -0.3421
14083SOL    HW243701   4.534   3.053   2.057 -0.5918 -0.1883  0.9007
14084SOL     OW43702   8.540   5.251   2.583 -0.0516 -0.3438  0.4733
14084SOL    HW143703   8.474   5.206   2.530 -1.0749 -0.8054  2.0758
14084SOL    HW243704   8.606   5.184   2.601 -0.7621 -0.7773  1.5141
14085SOL     OW43705   1.729   9.156   7.071 -0.2516 -0.2312  0.3353
14085SOL    HW143706   1.645   9.203   7.073 -0.6047 -0.7590 -0.7152
14085SOL    HW243707   1.778   9.198   7.001  0.0109 -0.4883  0.3631
14086SOL     OW43708   4.723   0.711   0.238 -0.1240  0.1938  0.5626
14086SOL    HW143709   4.679   0.631   0.267 -0.4386  0.4483  0.8065
14086SOL    HW243710   4.769   0.686   0.158 -0.2394 -0.2241  0.6239
14087SOL     OW43711   3.446   2.001   8.862 -0.2066  0.6258 -0.0344
14087SOL    HW143712   3.489   1.971   8.942  1.5624  1.8218 -0.4730
14087SOL    HW243713   3.438   1.921   8.809 -0.1166  0.0714  0.7628
14088SOL     OW43714   3.376   6.910   6.915  0.1155 -0.4058 -0.0366
14088SOL    HW143715   3.302   6.946   6.965  0.2827 -0.0086 -0.0667
14088SOL    HW243716   3.402   6.982   6.857  0.8172 -0.3868  0.2996
14089SOL     OW43717   8.110   7.678   4.669  0.3126 -0.5248 -0.2860
14089SOL    HW143718   8.113   7.750   4.606 -2.2409 -0.6137 -0.6121
14089SOL    HW243719   8.169   7.612   4.633  1.7095  0.8691 -0.6424
14090SOL     OW43720   7.826   1.481   6.760 -0.5273  0.0917  0.0130
14090SOL    HW143721   7.747   1.522   6.795 -1.0940  1.4258 -2.5439
14090SOL    HW243722   7.795   1.399   6.720  0.0270 -1.1473  1.9483
14091SOL     OW43723   5.450   2.686   5.457 -0.0257 -0.0218 -0.0713
14091SOL    HW143724   5.381   2.622   5.439 -0.5340  0.9894 -1.9771
14091SOL    HW243725   5.460   2.684   5.552 -2.0576 -0.8334  0.1777
14092SOL     OW43726   3.447   7.651   8.548  0.9606  0.3553 -0.0787
14092SOL    HW143727   3.398   7.588   8.496 -0.0292  1.4516 -0.5202
14092SOL    HW243728   3.538   7.639   8.522  0.6162  0.0687 -1.1858
14093SOL     OW43729   6.639   3.426   5.576 -0.0963 -0.1173  0.0982
14093SOL    HW143730   6.641   3.496   5.511 -4.8942  0.6376  0.4165
14093SOL    HW243731   6.600   3.351   5.530  0.4167 -0.9810  1.0338
14094SOL     OW43732   0.762   7.198   1.210  0.5650  0.5246 -0.1924
14094SOL    HW143733   0.783   7.111   1.243  0.3458  0.8616  0.8834
14094SOL    HW243734   0.680   7.221   1.254  1.2562  1.7654  0.5097
14095SOL     OW43735   9.077   0.919   5.092 -0.1450 -0.0589  0.2613
14095SOL    HW143736   9.073   0.828   5.120 -1.0922  0.1823  0.9656
14095SOL    HW243737   8.987   0.940   5.066  0.5292 -0.0451 -2.3410
14096SOL     OW43738   5.248   0.112   8.126 -0.4667 -0.7442  0.1618
14096SOL    HW143739   5.199   0.194   8.139 -0.9221 -0.9861 -0.0169
14096SOL    HW243740   5.192   0.059   8.069 -1.0344 -1.9223  1.7376
14097SOL     OW43741   3.122   8.908   0.734 -0.0238 -0.7216 -0.8034
14097SOL    HW143742   3.080   8.855   0.801  1.7814 -0.4628  0.6115
14097SOL    HW243743   3.212   8.876   0.730  0.5197  0.7796 -1.4730
14098SOL     OW43744   5.807   1.993   2.308  0.1354  0.8958 -0.0405
14098SOL    HW143745   5.762   1.959   2.230 -0.6749  0.6843  0.5105
14098SOL    HW243746   5.810   1.919   2.369  1.7321  0.7360 -0.2540
14099SOL     OW43747   8.189   2.509   7.429  0.2975 -0.2423  0.3398
14099SOL    HW143748   8.101   2.495   7.464  0.2708 -0.0618  0.3421
14099SOL    HW243749   8.216   2.422   7.398  0.0767 -0.2759  0.2414
14100SOL     OW43750   4.280   1.292   8.983  0.5183  0.2507 -0.2256
14100SOL    HW143751   4.350   1.300   8.918  2.0833  4.1281  1.5911
14100SOL    HW243752   4.320   1.245   9.056  0.4077  0.2888 -0.1392
14101SOL     OW43753   1.641   8.253   9.237  0.0170  0.1881  0.3796
14101SOL    HW143754   1.629   8.323   9.172  3.2093  0.5419 -0.0024
14101SOL    HW243755   1.647   8.173   9.184  2.1058  0.4165  0.1649
14102SOL     OW43756   2.241   4.183   0.844  0.0701 -0.2151 -0.1972
14102SOL    HW143757   2.305   4.254   0.849  0.0958 -0.3089  4.1808
14102SOL    HW243758   2.273   4.117   0.906 -3.3354 -1.0192  0.9084
14103SOL     OW43759   8.993   1.533   4.399 -0.2310  0.3403 -0.0266
14103SOL    HW143760   9.017   1.490   4.317  0.7278 -0.7992  0.8155
14103SOL    HW243761   9.062   1.508   4.460 -1.1372  0.8290  1.2424
14104SOL     OW43762   4.932   5.979   2.322 -0.7052  0.0749 -0.1078
14104SOL    HW143763   4.976   6.031   2.389  0.1459 -1.5609  0.6676
14104SOL    HW243764   4.877   5.918   2.371 -1.2101 -0.1727 -0.9573
14105SOL     OW43765   7.096   0.295   5.910  0.3686 -0.4268  0.0316
14105SOL    HW143766   7.001   0.285   5.908  0.1838  1.1991 -1.3236
14105SOL    HW243767   7.125   0.232   5.976 -1.5386 -1.6553 -0.2241
14106SOL     OW43768   3.883   2.718   7.163  0.1925 -0.9983 -0.8603
14106SOL    HW143769   3.797   2.678   7.174 -0.2140 -0.2001 -1.1195
14106SOL    HW243770   3.926   2.705   7.248 -0.5209 -0.5864 -0.4299
14107SOL     OW43771   7.683   7.152   3.515 -0.1753  0.7554 -0.4816
14107SOL    HW143772   7.768   7.167   3.556 -0.9603 -1.0326  2.1092
14107SOL    HW243773   7.702   7.141   3.422  2.1446  2.1869 -0.2607
14108SOL     OW43774   0.286   7.743   0.930 -0.9930 -0.2771  0.1246
14108SOL    HW143775   0.279   7.748   0.835  0.3814  1.7869  0.0581
14108SOL    HW243776   0.300   7.650   0.948  2.3117 -0.3644 -2.0411
14109SOL     OW43777   5.288   7.299   1.230 -0.2000  0.2587  0.7849
14109SOL    HW143778   5.371   7.258   1.203 -0.7698 -0.7654  0.5424
14109SOL    HW243779   5.298   7.315   1.323  0.1242 -0.2375  0.8392
14110SOL     OW43780   0.576   0.626   0.762  0.7033 -0.1687 -0.5838
14110SOL    HW143781   0.669   0.650   0.754  1.0447 -1.1349  0.2206
14110SOL    HW243782   0.548   0.667   0.845 -0.1895  1.8508 -1.8068
14111SOL     OW43783   9.178   3.126   8.355  0.5980  0.0272  0.0180
14111SOL    HW143784   9.087   3.150   8.337  1.0893  1.3003 -0.9724
14111SOL    HW243785   9.173   3.064   8.427 -1.0758 -0.1631 -0.2196
14112SOL     OW43786   1.492   6.044   3.812  0.8155  0.3487  0.9310
14112SOL    HW143787   1.588   6.043   3.819  1.0137  4.5817  1.3066
14112SOL    HW243788   1.475   6.039   3.718  1.7501  3.5545  0.4978
14113SOL     OW43789   2.639   5.187   4.140 -0.2262  0.0167 -0.5134
14113SOL    HW143790   2.623   5.201   4.234 -0.2740 -0.2398 -0.4845
14113SOL    HW243791   2.643   5.276   4.104  0.5282  0.1420 -0.1460
14114SOL     OW43792   5.967   0.949   2.515 -0.1789  0.6038 -0.0982
14114SOL    HW143793   5.905   1.014   2.549  0.1002  0.1579  1.3186
14114SOL    HW243794   5.932   0.865   2.545  1.4339  0.3837  1.3244
14115SOL     OW43795   1.493   1.533   1.507 -0.1266 -0.0296  0.1757
14115SOL    HW143796   1.569   1.555   1.452  0.4023  1.5956  1.4783
14115SOL    HW243797   1.445   1.616   1.515 -1.2674 -0.7104  0.5531
14116SOL     OW43798   4.734   2.036   3.843 -0.3800  0.0338  0.5220
14116SOL    HW143799   4.654   2.030   3.895 -0.7457 -1.6402 -0.1887
14116SOL    HW243800   4.791   1.969   3.879 -0.1435 -0.2607 -0.3764
14117SOL     OW43801   4.288   5.331   4.897  0.1816  0.5065 -0.4238
14117SOL    HW143802   4.288   5.308   4.990 -0.2993  1.0925 -0.2669
14117SOL    HW243803   4.220   5.399   4.889  3.2212  3.8478 -0.3152
14118SOL     OW43804   4.291   8.812   8.735 -0.1504  0.0433 -0.1892
14118SOL    HW143805   4.383   8.788   8.720 -0.6562 -0.6992 -2.6716
14118SOL    HW243806   4.294   8.879   8.803  2.4177  1.2934 -1.3854
14119SOL     OW43807   0.810   3.249   4.806  0.3745 -0.1268  0.1154
14119SOL    HW143808   0.732   3.228   4.858  1.2187 -0.7616  1.1740
14119SOL    HW243809   0.831   3.339   4.830  0.4074 -0.2157  0.4311
14120SOL     OW43810   2.778   1.166   7.056  0.3804 -0.2310  0.5798
14120SOL    HW143811   2.860   1.116   7.055 -0.5784 -1.8916  1.2132
14120SOL    HW243812   2.761   1.182   7.149 -0.1266 -0.0771  0.4617
14121SOL     OW43813   3.937   7.614   1.496  0.1858  0.8432  0.0480
14121SOL    HW143814   3.928   7.688   1.436  1.0159  0.7643 -0.1780
14121SOL    HW243815   4.007   7.560   1.458  1.0961  1.0643  1.3526
14122SOL     OW43816   7.570   4.005   0.531 -0.2205 -0.2255  0.9707
14122SOL    HW143817   7.664   4.023   0.528 -0.5020  1.3498  0.6536
14122SOL    HW243818   7.541   4.019   0.441 -1.0524  1.2118  1.4293
14123SOL     OW43819   2.705   6.829   5.209 -0.1142 -0.0154 -0.0453
14123SOL    HW143820   2.696   6.831   5.113 -0.2450 -0.6630 -0.0513
14123SOL    HW243821   2.615   6.829   5.241 -0.1076 -1.2032  0.0316
14124SOL     OW43822   6.114   2.190   5.949 -0.0868  0.5891 -0.5199
14124SOL    HW143823   6.077   2.207   5.862  1.4027  0.7212 -1.1475
14124SOL    HW243824   6.183   2.126   5.934  0.8844  1.3816  0.4081
14125SOL     OW43825   5.740   5.206   0.198  0.3942 -0.1440  0.1878
14125SOL    HW143826   5.787   5.144   0.254 -0.7578  0.1839  1.5505
14125SOL    HW243827   5.810   5.255   0.154  1.3315 -0.6024  1.1109
14126SOL     OW43828   2.647   6.062   7.655 -0.1518  0.3036 -0.3145
14126SOL    HW143829   2.739   6.044   7.636  0.6380  0.9256  2.4244
14126SOL    HW243830   2.613   5.980   7.692 -0.5211  0.2758 -0.7018
14127SOL     OW43831   3.145   8.863   8.133 -0.3325 -0.1486  0.3946
14127SOL    HW143832   3.141   8.957   8.117  0.8248  0.0132  0.9749
14127SOL    HW243833   3.117   8.853   8.224  0.3464 -0.2670  0.5978
14128SOL     OW43834   5.778   2.267   7.903  0.1327  0.0776 -0.0145
14128SOL    HW143835   5.715   2.256   7.832  1.0502 -0.2716 -0.7811
14128SOL    HW243836   5.774   2.185   7.952  0.5412 -0.2407 -0.5115
14129SOL     OW43837   8.339   1.447   6.255  0.1825  0.0997 -0.0985
14129SOL    HW143838   8.285   1.525   6.264  1.1207  0.7526 -0.0314
14129SOL    HW243839   8.372   1.431   6.344  1.4488  0.7023 -0.4451
14130SOL     OW43840   0.032   7.126   1.436 -0.5865 -0.3120 -0.3296
14130SOL    HW143841  -0.052   7.172   1.430  0.5825  1.8619 -1.3315
14130SOL    HW243842   0.070   7.156   1.519  0.4401  1.1147 -1.2638
14131SOL     OW43843   7.274   8.375   9.136  0.0042 -0.1391 -0.2820
14131SOL    HW143844   7.212   8.439   9.101 -0.9480 -0.3054  0.9947
14131SOL    HW243845   7.354   8.425   9.152 -0.0166  0.2348 -1.3232
14132SOL     OW43846   3.881   5.504   9.135 -0.4401 -1.0564 -0.3623
14132SOL    HW143847   3.788   5.496   9.156 -0.6847  1.7929 -0.0509
14132SOL    HW243848   3.883   5.529   9.042 -0.0502 -0.3692 -0.1796
14133SOL     OW43849   2.143   5.520   2.234 -0.2994 -0.7129 -0.1851
14133SOL    HW143850   2.190   5.478   2.305  0.4794 -0.9385 -0.8117
14133SOL    HW243851   2.171   5.473   2.155  0.2327  0.6622 -0.8485
14134SOL     OW43852   6.612   4.057   7.997 -0.4585 -0.0876  0.3186
14134SOL    HW143853   6.666   4.120   7.950 -2.2825  0.3173 -1.3825
14134SOL    HW243854   6.641   3.972   7.964  1.5023 -0.1568  2.0736
14135SOL     OW43855   3.570   1.134   7.555 -0.5040 -0.2925 -0.7474
14135SOL    HW143856   3.568   1.048   7.513 -0.8610 -0.2418 -0.8444
14135SOL    HW243857   3.533   1.119   7.642 -0.3793 -0.2738 -0.6910
14136SOL     OW43858   8.131   4.402   6.328  0.5067 -0.0302 -0.3157
14136SOL    HW143859   8.213   4.355   6.318  0.0636 -0.9027 -0.0131
14136SOL    HW243860   8.139   4.447   6.412  0.1270 -1.3051  0.4347
14137SOL     OW43861   9.077   2.441   7.241  0.2191  0.2364 -0.2127
14137SOL    HW143862   9.102   2.524   7.282 -0.0558  0.1590  0.1219
14137SOL    HW243863   9.000   2.413   7.290  1.0326 -0.8330  0.5104
14138SOL     OW43864   6.004   7.737   4.414  0.1067  0.4300 -1.0373
14138SOL    HW143865   6.100   7.736   4.406  0.0604  0.0629 -1.6018
14138SOL    HW243866   5.985   7.674   4.484  0.4560  2.8980  1.4294
14139SOL     OW43867   3.097   0.876   3.351 -0.3657  0.0971  0.0774
14139SOL    HW143868   3.131   0.857   3.264 -0.0446 -1.6726  0.5433
14139SOL    HW243869   3.058   0.794   3.380  1.2743  0.0174  2.3601
14140SOL     OW43870   8.084   7.060   8.496 -0.1425  0.1567 -0.0463
14140SOL    HW143871   8.040   7.145   8.489  0.1514  0.5531  2.3585
14140SOL    HW243872   8.092   7.044   8.590  0.2106 -2.3482 -0.4285
14141SOL     OW43873   5.242   7.263   5.360  0.2271 -0.2020  0.2246
14141SOL    HW143874   5.267   7.287   5.449  0.2190 -0.3941  0.2781
14141SOL    HW243875   5.292   7.323   5.305  2.0621 -1.6205  0.2553
14142SOL     OW43876   2.149   4.657   2.922  0.1858 -0.4620  0.2924
14142SOL    HW143877   2.187   4.585   2.972 -0.4741 -0.9274  0.1350
14142SOL    HW243878   2.187   4.736   2.962  1.0991 -0.8912  0.3151
14143SOL     OW43879   3.933   6.134   6.702  0.3125 -0.6894 -0.6498
14143SOL    HW143880   3.851   6.090   6.682 -0.6100  1.5050 -1.9507
14143SOL    HW243881   3.928   6.153   6.796 -0.6144 -0.6660 -0.7015
14144SOL     OW43882   2.905   6.799   8.148 -0.1718 -0.0284  0.1097
14144SOL    HW143883   2.941   6.811   8.061  0.4679  0.9399  0.4949
14144SOL    HW243884   2.911   6.705   8.164  1.5837  0.0253 -0.0976
14145SOL     OW43885   4.491   0.368   4.824 -0.0827 -0.0863 -0.1326
14145SOL    HW143886   4.555   0.300   4.808 -0.4131  0.0713 -2.4667
14145SOL    HW243887   4.543   0.448   4.837  0.2828 -0.6153  2.2135
14146SOL     OW43888   3.469   8.487   0.694 -0.1121  0.1658 -0.0651
14146SOL    HW143889   3.555   8.473   0.656  0.7161  0.4351  1.5996
14146SOL    HW243890   3.412   8.509   0.620  0.7478 -2.0677 -1.4944
14147SOL     OW43891   7.197   5.954   1.491 -0.5053 -0.1079  0.1265
14147SOL    HW143892   7.173   5.894   1.562  0.4295 -1.6347 -0.7871
14147SOL    HW243893   7.292   5.963   1.499 -0.6233  1.1903  0.1737
14148SOL     OW43894   1.224   6.968   0.330  0.0459 -0.2183 -0.0075
14148SOL    HW143895   1.245   7.056   0.300 -0.7280 -0.4133 -1.2357
14148SOL    HW243896   1.300   6.940   0.381  1.2099  0.3938 -1.3470
14149SOL     OW43897   7.150   5.267   1.562  0.4580  0.4817 -0.8482
14149SOL    HW143898   7.093   5.240   1.489  0.8036  0.3009 -1.0523
14149SOL    HW243899   7.194   5.345   1.530  3.8763 -1.8977 -2.5673
14150SOL     OW43900   5.622   5.283   4.722 -0.7126  0.0374 -0.4559
14150SOL    HW143901   5.578   5.335   4.654 -1.2899 -0.8009 -0.7357
14150SOL    HW243902   5.708   5.262   4.684  0.0603  1.8548  0.1750
14151SOL     OW43903   4.995   1.123   2.143  0.1168  0.2014 -0.4420
14151SOL    HW143904   5.045   1.116   2.062  0.7690 -2.6376  0.0947
14151SOL    HW243905   4.903   1.123   2.114  0.3364 -1.0555 -1.2279
14152SOL     OW43906   1.604   9.012   8.472 -0.1968  0.1974  0.5120
14152SOL    HW143907   1.559   8.997   8.389  0.8775 -1.3366  0.1562
14152SOL    HW243908   1.548   8.972   8.538  0.5253 -1.6700  0.0763
14153SOL     OW43909   7.655   6.426   7.603 -0.3883  0.2703  0.6310
14153SOL    HW143910   7.739   6.399   7.642  0.4722  0.0423 -1.2757
14153SOL    HW243911   7.648   6.519   7.626 -0.4077 -0.0711  2.1307
14154SOL     OW43912   7.063   3.436   1.247  0.2695  0.1695  0.6585
14154SOL    HW143913   6.983   3.460   1.293 -0.2514 -1.3413  0.5823
14154SOL    HW243914   7.034   3.412   1.159  0.6449 -1.4429  0.9544
14155SOL     OW43915   6.143   8.219   2.897  0.8764  0.5812 -0.4316
14155SOL    HW143916   6.095   8.264   2.827  1.8062 -0.0732 -1.5209
14155SOL    HW243917   6.097   8.136   2.908 -0.3374  1.3831  1.0067
14156SOL     OW43918   2.066   3.711   2.603  0.0662  0.2235 -0.2157
14156SOL    HW143919   1.990   3.734   2.550  0.4050  0.4298 -0.6220
14156SOL    HW243920   2.135   3.770   2.572  0.2291  0.4596  0.5708
14157SOL     OW43921   6.012   5.595   8.627  0.1241 -0.0945  0.3428
14157SOL    HW143922   6.040   5.583   8.718 -1.5043  0.0173  0.9004
14157SOL    HW243923   6.021   5.689   8.611  1.1437 -0.2243  0.1196
14158SOL     OW43924   2.485   5.599   1.746  0.0999 -0.3120 -0.4699
14158SOL    HW143925   2.500   5.515   1.789 -0.0239  0.1458  0.4978
14158SOL    HW243926   2.438   5.577   1.665  0.2464 -1.1794 -0.3265
14159SOL     OW43927   7.655   8.055   0.765 -0.3449 -0.1785 -0.3726
14159SOL    HW143928   7.627   7.979   0.816  0.2268  0.3669  0.7974
14159SOL    HW243929   7.724   8.022   0.708  0.2543 -0.4526  0.4900
14160SOL     OW43930   5.300   8.978   9.011 -0.4089  0.3431 -0.2559
14160SOL    HW143931   5.262   8.913   9.070  0.3599 -0.8234 -1.0147
14160SOL    HW243932   5.384   9.001   9.052 -0.2284  0.1086 -0.4897
14161SOL     OW43933   4.204   5.650   4.457 -0.1368  0.1472 -0.0611
14161SOL    HW143934   4.248   5.660   4.542 -2.1179  2.6830  0.8013
14161SOL    HW243935   4.115   5.624   4.479 -0.2062 -0.9492 -1.5129
14162SOL     OW43936   2.470   2.416   4.314  0.1719  0.0403  0.5544
14162SOL    HW143937   2.415   2.338   4.329 -0.4534  0.3354 -0.1395
14162SOL    HW243938   2.429   2.460   4.240  0.7769  0.8100  0.6678
14163SOL     OW43939   2.870   6.323   3.466 -0.7617  0.5626  0.6299
14163SOL    HW143940   2.813   6.298   3.393  1.1300 -2.0685 -0.1125
14163SOL    HW243941   2.886   6.241   3.512 -0.0947  1.7984  2.6961
14164SOL     OW43942   5.633   1.603   7.180  0.0407 -0.2929 -0.3456
14164SOL    HW143943   5.709   1.558   7.143  1.5500  1.1892  0.7511
14164SOL    HW243944   5.669   1.653   7.253 -1.4737  2.6115 -1.4260
14165SOL     OW43945   6.865   8.562   8.530 -0.2684  0.3688 -0.0805
14165SOL    HW143946   6.862   8.504   8.606 -2.5115 -2.1464 -1.8697
14165SOL    HW243947   6.823   8.643   8.559 -0.4535 -0.2822  1.5375
14166SOL     OW43948   4.033   9.201   5.857 -0.1119  0.6714  0.5368
14166SOL    HW143949   4.073   9.117   5.836 -0.7328  0.9290 -2.0074
14166SOL    HW243950   3.956   9.179   5.910 -1.5246 -0.6462 -1.9195
14167SOL     OW43951   3.316   3.940   7.157  0.6746  0.1034 -0.0446
14167SOL    HW143952   3.283   3.907   7.240  1.2741 -0.6166 -0.0815
14167SOL    HW243953   3.240   3.937   7.098 -0.1753  2.0613  0.8299
14168SOL     OW43954   1.252   4.251   0.020  0.3316 -0.0718 -0.1769
14168SOL    HW143955   1.306   4.330   0.024  1.0688 -0.5324 -0.7357
14168SOL    HW243956   1.169   4.281  -0.019  0.1154  0.6621  0.8131
14169SOL     OW43957   7.666   3.032   8.594  0.2352  0.8698  0.0911
14169SOL    HW143958   7.655   3.087   8.516 -1.3322  0.1864 -0.1942
14169SOL    HW243959   7.621   3.079   8.664  3.6759  2.7168  1.2990
14170SOL     OW43960   3.090   7.773   0.861 -0.0729 -0.6237  0.3061
14170SOL    HW143961   3.091   7.866   0.840 -1.3086 -0.9653 -1.5627
14170SOL    HW243962   3.166   7.737   0.814 -0.2577 -0.7255  0.0842
14171SOL     OW43963   7.614   0.362   6.706  0.1654 -0.4452 -0.5846
14171SOL    HW143964   7.545   0.333   6.647 -0.6216  0.2563 -0.0190
14171SOL    HW243965   7.661   0.429   6.656  0.9378 -1.4425 -1.2536
14172SOL     OW43966   9.112   1.607   4.795  0.1082 -0.8141  0.1631
14172SOL    HW143967   9.142   1.565   4.714  1.0750 -1.3814  0.7921
14172SOL    HW243968   9.046   1.547   4.830 -1.1703  0.0046 -0.7772
14173SOL     OW43969   3.437   0.385   8.198 -0.3958  0.2988  0.1504
14173SOL    HW143970   3.506   0.432   8.246  0.7146  0.6141 -1.6791
14173SOL    HW243971   3.356   0.424   8.230  0.3023  0.6775  1.5647
14174SOL     OW43972   3.842   7.202   2.967 -0.4716  0.3312 -0.4105
14174SOL    HW143973   3.883   7.207   2.880  1.4195 -1.8351  0.2580
14174SOL    HW243974   3.895   7.260   3.022 -0.0698 -0.2419 -0.1811
14175SOL     OW43975   7.428   8.460   5.324 -0.2900  0.1658  0.0397
14175SOL    HW143976   7.443   8.494   5.236  1.6700 -1.1549 -0.2199
14175SOL    HW243977   7.404   8.368   5.310  0.0548 -0.0573  0.8765
14176SOL     OW43978   4.665   8.273   7.237  0.4671  0.1153  0.2181
14176SOL    HW143979   4.641   8.333   7.166 -0.6501  0.8326  1.1506
14176SOL    HW243980   4.592   8.211   7.241  0.6533 -0.0809  0.5508
14177SOL     OW43981   2.907   3.073   5.617  0.2620  0.7272 -0.4116
14177SOL    HW143982   2.875   3.153   5.659  1.4797  1.4198 -0.7511
14177SOL    HW243983   2.916   3.096   5.525  0.9315  0.3078 -0.4616
14178SOL     OW43984   5.456   0.037   6.617 -0.0667 -0.0013 -0.3930
14178SOL    HW143985   5.532   0.046   6.674 -0.5659 -1.2740  0.5107
14178SOL    HW243986   5.402   0.114   6.636  0.8347  0.7552 -0.8261
14179SOL     OW43987   8.304   7.806   4.164  0.4026  0.2259  0.0557
14179SOL    HW143988   8.307   7.843   4.076 -0.3193 -0.2116 -0.1616
14179SOL    HW243989   8.295   7.882   4.222 -0.3295  0.4461 -0.3338
14180SOL     OW43990   5.906   0.796   6.390  0.7386  0.2106 -1.0002
14180SOL    HW143991   5.861   0.858   6.447 -3.1904 -2.8724 -0.3305
14180SOL    HW243992   5.845   0.781   6.318  1.1373 -3.3117 -0.7476
14181SOL     OW43993   8.204   6.814   2.268  0.2142 -0.3675 -0.6199
14181SOL    HW143994   8.271   6.767   2.218  1.8679  0.6187  0.5868
14181SOL    HW243995   8.236   6.814   2.358 -3.1251 -2.9238  0.8041
14182SOL     OW43996   7.679   3.561   2.692 -0.0620 -0.2135  0.8196
14182SOL    HW143997   7.603   3.508   2.667  1.6346 -2.6034  0.3683
14182SOL    HW243998   7.717   3.589   2.608  1.3948 -1.8906  0.8665
14183SOL     OW43999   4.645   5.397   3.463 -0.4283  0.4603 -0.3846
14183SOL    HW144000   4.694   5.321   3.495  1.0724  1.8475  0.7195
14183SOL    HW244001   4.611   5.439   3.542 -1.1675  1.0156 -0.9838
14184SOL     OW44002   4.048   5.425   6.481  0.3719  0.4139  0.2535
14184SOL    HW144003   4.107   5.388   6.415 -0.0691  2.1934 -1.1946
14184SOL    HW244004   4.092   5.504   6.511 -0.3793  0.6998  0.6233
14185SOL     OW44005   0.313   1.968   8.592  0.2539 -0.4011  0.3894
14185SOL    HW144006   0.253   1.939   8.523 -0.1970 -0.2636  0.7166
14185SOL    HW244007   0.260   2.026   8.647  0.4997 -0.7856  1.0516
14186SOL     OW44008   3.420   0.872   2.450 -0.1338  0.2899 -0.4262
14186SOL    HW144009   3.350   0.808   2.457  0.9687 -1.1420 -1.8331
14186SOL    HW244010   3.436   0.881   2.356  0.2907  2.0499 -0.2284
14187SOL     OW44011   1.856   2.786   8.848  0.0723 -0.1426 -0.2471
14187SOL    HW144012   1.899   2.702   8.834 -1.6519 -1.3867  1.4494
14187SOL    HW244013   1.771   2.778   8.806  0.4102  1.3210 -1.3077
14188SOL     OW44014   0.301   6.433   0.487 -0.1320 -0.5360 -0.1517
14188SOL    HW144015   0.343   6.469   0.566 -0.3955 -2.0074  0.6986
14188SOL    HW244016   0.217   6.399   0.518 -0.7659 -0.0802 -1.3136
14189SOL     OW44017   4.209   3.691   3.301  0.3466  0.6877  0.2311
14189SOL    HW144018   4.288   3.643   3.275  0.4104  0.2804  1.1475
14189SOL    HW244019   4.224   3.713   3.393 -0.1647  1.5164  0.1271
14190SOL     OW44020   7.765   2.365   4.389  0.1741 -0.1239  0.2724
14190SOL    HW144021   7.842   2.420   4.403  1.2522 -1.0400 -1.6508
14190SOL    HW244022   7.788   2.282   4.431  0.0068 -0.2227  0.1673
14191SOL     OW44023   1.151   1.160   1.543 -0.4069 -0.3255 -0.2395
14191SOL    HW144024   1.200   1.178   1.463 -0.7696 -1.3546 -0.7021
14191SOL    HW244025   1.108   1.243   1.564  1.6095  0.6646  0.2670
14192SOL     OW44026   6.927   0.901   4.182  0.2187 -0.5082 -0.4284
14192SOL    HW144027   6.940   0.846   4.106 -1.9304 -1.0763 -0.4528
14192SOL    HW244028   6.913   0.840   4.254 -2.1024 -0.0983 -0.4409
14193SOL     OW44029   7.968   1.757   1.383 -0.3007  0.6117  0.5784
14193SOL    HW144030   7.879   1.773   1.414 -0.2127  1.2407  0.5139
14193SOL    HW244031   8.011   1.714   1.457 -0.7580 -0.0455  0.4725
14194SOL     OW44032   3.558   4.025   7.014  0.3984  0.5919  0.1980
14194SOL    HW144033   3.543   4.036   6.920  1.4359 -0.1020 -0.0682
14194SOL    HW244034   3.472   4.003   7.050  0.1517  0.0103 -0.7247
14195SOL     OW44035   2.234   6.211   4.621  0.7879  0.0102  0.3861
14195SOL    HW144036   2.261   6.169   4.539  1.4170  1.7511 -0.3650
14195SOL    HW244037   2.294   6.285   4.629 -1.3451  1.7908  0.6967
14196SOL     OW44038   2.312   4.754   0.666 -0.6366  0.1650  0.1814
14196SOL    HW144039   2.269   4.675   0.632 -1.6717  0.3820  0.9347
14196SOL    HW244040   2.371   4.721   0.734 -0.9491  0.0207  0.3863
14197SOL     OW44041   8.444   0.109   5.280 -0.2552  0.2080  0.1539
14197SOL    HW144042   8.367   0.154   5.316 -0.0265 -0.1063  1.0600
14197SOL    HW244043   8.518   0.160   5.313 -0.0671  1.1014 -1.5160
14198SOL     OW44044   3.869   8.808   2.077 -0.2417 -0.3140  0.1656
14198SOL    HW144045   3.911   8.833   2.159  0.5388  1.1434 -0.6464
14198SOL    HW244046   3.868   8.712   2.079 -3.3181 -0.4288  3.4052
14199SOL     OW44047   6.949   8.627   2.901  0.8124 -0.7174  0.0367
14199SOL    HW144048   6.865   8.672   2.895  1.4086  0.3125 -0.9716
14199SOL    HW244049   6.989   8.662   2.981  0.0588 -1.6489  0.8442
14200SOL     OW44050   7.063   4.124   6.901  0.0406  0.5818 -0.0394
14200SOL    HW144051   7.152   4.143   6.871  0.2644  0.4018  0.5023
14200SOL    HW244052   7.025   4.071   6.830  1.8820 -3.3196  1.5721
14201SOL     OW44053   9.059   7.637   2.261 -0.2031  0.0555 -0.1978
14201SOL    HW144054   9.022   7.721   2.290 -0.5231 -0.0358 -0.3381
14201SOL    HW244055   9.075   7.650   2.167  1.6748  0.6657  0.1513
14202SOL     OW44056   4.107   8.134   6.256 -0.3324  0.1336 -0.1907
14202SOL    HW144057   4.138   8.105   6.342 -0.7697  0.7228  0.1762
14202SOL    HW244058   4.166   8.206   6.233 -0.5201  0.3004 -0.1544
14203SOL     OW44059   8.706   2.230   6.067 -0.0162  0.1424  0.2677
14203SOL    HW144060   8.783   2.249   6.120 -0.5611 -0.6404  1.3817
14203SOL    HW244061   8.694   2.309   6.014 -0.2076  1.5665  2.2689
14204SOL     OW44062   4.340   6.774   1.562  0.0354 -0.5413 -0.2303
14204SOL    HW144063   4.303   6.726   1.636 -1.0948  0.7779  0.0976
14204SOL    HW244064   4.266   6.791   1.504  0.7734 -0.8768 -1.3004
14205SOL     OW44065   3.814   3.628   5.616  0.7504 -0.6866 -0.2104
14205SOL    HW144066   3.873   3.573   5.667  1.2014 -0.4421 -0.4698
14205SOL    HW244067   3.818   3.714   5.658 -1.0103 -1.1696  1.0547
14206SOL     OW44068   6.778   5.099   4.997 -0.0095  0.0570  0.2591
14206SOL    HW144069   6.816   5.113   4.910  0.5773  0.2328  0.5428
14206SOL    HW244070   6.721   5.175   5.011 -1.6325 -0.9056 -0.7687
14207SOL     OW44071   0.969   5.868   2.070  0.0655  0.4887 -0.0016
14207SOL    HW144072   0.890   5.843   2.118 -0.4531  0.4991 -0.8151
14207SOL    HW244073   1.028   5.794   2.078  0.6310  1.1025  1.9500
14208SOL     OW44074   0.904   5.010   0.070  0.4504 -0.2365  0.2505
14208SOL    HW144075   0.918   5.087   0.015  1.9495 -0.9224 -0.3960
14208SOL    HW244076   0.830   4.965   0.030 -1.8675  1.8820  1.8671
14209SOL     OW44077   7.461   4.548   3.466  0.0765 -0.1372  0.6753
14209SOL    HW144078   7.530   4.613   3.451 -0.6070  0.0075 -2.4553
14209SOL    HW244079   7.402   4.591   3.528  1.1181  1.0418  0.9102
14210SOL     OW44080   4.988   3.433   3.020 -0.4401  0.4839  0.8422
14210SOL    HW144081   4.918   3.498   3.023 -2.6273 -1.6275 -1.0183
14210SOL    HW244082   5.040   3.457   2.943 -1.3345 -0.0082  0.0684
14211SOL     OW44083   0.003   3.740   5.955 -0.0535 -0.7378  0.6047
14211SOL    HW144084  -0.006   3.819   6.009 -2.0562  0.2151 -1.0016
14211SOL    HW244085  -0.086   3.717   5.930  0.7037 -1.7379 -1.4189
14212SOL     OW44086   1.953   5.386   7.949  0.2820  0.4713  0.2113
14212SOL    HW144087   1.879   5.383   7.888 -0.0722  0.6651  0.6276
14212SOL    HW244088   1.979   5.478   7.951  1.0870  0.2774 -0.5810
14213SOL     OW44089   4.599   2.031   8.276  0.2315 -0.2898 -0.1801
14213SOL    HW144090   4.552   2.113   8.264 -0.3127 -0.4029  1.0185
14213SOL    HW244091   4.565   1.973   8.208  0.5801  0.4444 -0.9953
14214SOL     OW44092   8.820   7.256   3.179 -0.5433  0.2366 -0.1961
14214SOL    HW144093   8.821   7.179   3.121 -3.8945 -0.5013  0.5209
14214SOL    HW244094   8.766   7.320   3.132 -0.6297  0.8395  0.7105
14215SOL     OW44095   8.141   1.305   1.333 -0.3715 -0.4297  0.6529
14215SOL    HW144096   8.153   1.292   1.239  2.7197 -1.1464  1.0222
14215SOL    HW244097   8.175   1.392   1.350 -1.3130 -0.1315  1.0884
14216SOL     OW44098   4.944   8.004   7.357  0.6046  0.0095 -0.2951
14216SOL    HW144099   4.934   8.097   7.337 -0.0047 -0.1124 -0.6036
14216SOL    HW244100   4.971   8.001   7.449  1.9148  0.5283 -0.6475
14217SOL     OW44101   3.832   6.460   7.395 -0.5204  0.0743  0.7023
14217SOL    HW144102   3.763   6.488   7.455 -1.3781  2.6987 -1.3355
14217SOL    HW244103   3.906   6.517   7.415 -0.9680  1.3055 -0.9280
14218SOL     OW44104   2.649   2.783   7.252  0.4248  0.0884  0.0064
14218SOL    HW144105   2.692   2.867   7.238 -0.3989  0.3690 -0.9744
14218SOL    HW244106   2.698   2.721   7.199  1.8835 -0.3676  1.7885
14219SOL     OW44107   7.520   8.573   1.524  0.2904 -0.3266  0.1184
14219SOL    HW144108   7.486   8.657   1.492 -1.0177 -0.4458  1.0982
14219SOL    HW244109   7.483   8.508   1.464 -2.4149 -0.5800  1.8606
14220SOL     OW44110   1.306   7.677   8.598 -0.1950 -0.0892  0.6193
14220SOL    HW144111   1.323   7.751   8.539  1.0493  2.5673  4.0010
14220SOL    HW244112   1.222   7.642   8.568 -0.8360  2.6530 -1.1944
14221SOL     OW44113   7.692   6.146   7.138 -0.3269 -0.1002 -0.2131
14221SOL    HW144114   7.741   6.067   7.161  0.3088  0.6590  1.1560
14221SOL    HW244115   7.723   6.213   7.200 -0.7560  1.2630 -1.4046
14222SOL     OW44116   5.261   6.543   4.784  0.0499 -0.0823  0.6625
14222SOL    HW144117   5.219   6.624   4.753 -0.1647  0.1532  1.5312
14222SOL    HW244118   5.337   6.573   4.832 -0.2679 -0.3705  1.3540
14223SOL     OW44119   3.437   4.949   2.862  0.1740 -0.4677 -0.0582
14223SOL    HW144120   3.381   4.873   2.850 -1.0022  0.4299 -0.4229
14223SOL    HW244121   3.383   5.023   2.836  0.3090  0.8022  2.9369
14224SOL     OW44122   5.232   3.683   6.466 -0.1588 -0.3587 -0.3853
14224SOL    HW144123   5.288   3.616   6.425  1.1353  0.0125  0.7106
14224SOL    HW244124   5.172   3.709   6.396 -0.3871 -2.3104 -0.9763
14225SOL     OW44125   2.643   0.550   4.740 -0.0930  0.1701 -0.0395
14225SOL    HW144126   2.568   0.544   4.681  0.6116  0.2555 -0.9571
14225SOL    HW244127   2.652   0.643   4.759  0.6773  0.3312 -1.1229
14226SOL     OW44128   4.614   3.340   1.376  0.0329  0.5142 -0.1440
14226SOL    HW144129   4.632   3.246   1.380  0.6195  0.6619  1.1693
14226SOL    HW244130   4.520   3.346   1.360 -0.1452 -0.3122  0.5144
14227SOL     OW44131   1.706   3.877   2.138  0.1533 -0.0814  0.4716
14227SOL    HW144132   1.712   3.960   2.186 -1.0748  0.3671 -0.0997
14227SOL    HW244133   1.618   3.845   2.156 -0.2280 -0.0748 -1.1907
14228SOL     OW44134   1.779   3.827   6.025 -0.1240  0.0408  0.3861
14228SOL    HW144135   1.722   3.753   6.004  0.3181 -0.3517  0.5394
14228SOL    HW244136   1.751   3.855   6.112  1.3504 -1.5823  1.4446
14229SOL     OW44137   2.755   4.979   1.053 -0.2473  0.5627 -0.4260
14229SOL    HW144138   2.801   4.910   1.005 -1.5241  0.0125 -0.9036
14229SOL    HW244139   2.676   4.936   1.087  0.1910  1.1546  1.4574
14230SOL     OW44140   1.606   6.299   1.559  0.3986  0.2118  0.0793
14230SOL    HW144141   1.517   6.266   1.566  0.4823 -0.3503 -1.1783
14230SOL    HW244142   1.655   6.252   1.627 -0.4654  1.3638  1.5480
14231SOL     OW44143   5.976   2.187   9.277  0.1097  0.0989 -0.1503
14231SOL    HW144144   5.899   2.190   9.333  1.7494  0.5791  2.2125
14231SOL    HW244145   6.009   2.277   9.274  0.7823 -0.1505 -0.8560
14232SOL     OW44146   7.303   2.562   6.759 -0.3101  0.0813  0.7047
14232SOL    HW144147   7.328   2.475   6.728 -2.3375 -0.4356  0.3964
14232SOL    HW244148   7.341   2.568   6.847  0.4318 -0.8306  0.4613
14233SOL     OW44149   0.164   4.406   8.638 -0.1734 -0.1277 -0.4833
14233SOL    HW144150   0.114   4.372   8.712 -1.2374  0.8245 -0.7366
14233SOL    HW244151   0.213   4.331   8.605  0.3334 -0.5587  1.1840
14234SOL     OW44152   3.652   0.843   5.076 -0.1736  0.7257 -0.1884
14234SOL    HW144153   3.608   0.864   5.159  0.3607 -0.3701  0.3990
14234SOL    HW244154   3.725   0.787   5.102 -1.9409 -2.5591 -1.6467
14235SOL     OW44155   8.677   1.378   2.288 -0.1564  0.3105  0.5362
14235SOL    HW144156   8.707   1.433   2.360  0.9812 -1.4109  1.4550
14235SOL    HW244157   8.629   1.307   2.331 -1.6378  0.5577 -0.6084
14236SOL     OW44158   0.719   7.539   4.196  0.1631 -0.4491  0.0183
14236SOL    HW144159   0.707   7.601   4.268 -0.1015  0.7699 -1.0467
14236SOL    HW244160   0.810   7.552   4.169  0.8045 -2.1294  1.2064
14237SOL     OW44161   1.973   2.284   7.938 -0.1175  0.6904  0.3488
14237SOL    HW144162   2.049   2.268   7.995  0.4626 -1.5829 -0.9298
14237SOL    HW244163   1.906   2.224   7.970 -1.0662  1.9338  0.7940
14238SOL     OW44164   6.986   6.244   8.682  0.0482  0.6238  0.4123
14238SOL    HW144165   7.034   6.174   8.637 -0.5485  1.0704 -0.9612
14238SOL    HW244166   7.015   6.325   8.639 -1.1918  0.9875  0.2318
14239SOL     OW44167   8.564   9.130   9.125 -0.1160 -0.2712  0.1974
14239SOL    HW144168   8.582   9.101   9.035 -0.2344 -0.2302  0.1607
14239SOL    HW244169   8.512   9.209   9.114  0.8574  0.4094  0.2795
14240SOL     OW44170   7.047   2.933   5.800  0.3946 -0.0846  0.5616
14240SOL    HW144171   6.974   2.893   5.847 -0.3532  0.7911  0.1779
14240SOL    HW244172   7.088   2.860   5.753 -1.0831 -0.4122 -0.3059
14241SOL     OW44173   4.334   7.140   4.221  0.2258  0.0296  0.2683
14241SOL    HW144174   4.281   7.204   4.269  1.2631 -0.8295  2.7476
14241SOL    HW244175   4.286   7.125   4.140 -1.6722  1.5893  1.0104
14242SOL     OW44176   3.653   2.524   8.755 -0.0295 -0.2806  0.0288
14242SOL    HW144177   3.644   2.560   8.667 -2.3779  0.6396  0.5655
14242SOL    HW244178   3.578   2.559   8.803  0.9459 -1.0852  2.2979
14243SOL     OW44179   4.512   4.395   0.171  0.4568 -0.3773  0.1816
14243SOL    HW144180   4.453   4.464   0.140  1.8344  0.6412 -0.3139
14243SOL    HW244181   4.590   4.404   0.115  1.0071 -1.7982  0.6721
14244SOL     OW44182   6.490   8.145   3.215  0.3153  0.1164 -0.0153
14244SOL    HW144183   6.550   8.209   3.254  1.8849 -0.9873 -0.5001
14244SOL    HW244184   6.480   8.174   3.124 -1.4490  1.3585  0.5316
14245SOL     OW44185   4.538   0.903   3.693 -0.1179  0.0195 -0.6083
14245SOL    HW144186   4.509   0.816   3.667  1.2932 -1.1098  1.2703
14245SOL    HW244187   4.515   0.909   3.786  2.2301  0.4789  0.0210
14246SOL     OW44188   0.118   8.445   0.767  0.4724  0.0187  0.4478
14246SOL    HW144189   0.159   8.409   0.845  0.2415 -0.8082  0.1935
14246SOL    HW244190   0.025   8.426   0.778  0.3324  0.6405  0.3637
14247SOL     OW44191   9.071   1.743   8.229  0.1348 -0.1764  0.5128
14247SOL    HW144192   9.106   1.829   8.255 -0.6659  0.0490  0.8983
14247SOL    HW244193   9.005   1.723   8.296  0.4125 -1.1636  0.5012
14248SOL     OW44194   1.426   1.880   0.353  0.1952  0.3834  0.4246
14248SOL    HW144195   1.509   1.839   0.330  0.7053  0.5897  1.8519
14248SOL    HW244196   1.448   1.971   0.374 -0.3302  0.3617  1.1196
14249SOL     OW44197   4.802   0.206   9.252  0.9397 -0.0950 -0.4762
14249SOL    HW144198   4.759   0.122   9.264 -1.1523  1.1608  1.6879
14249SOL    HW244199   4.836   0.203   9.162 -2.0466 -1.9423 -1.6908
14250SOL     OW44200   1.408   8.123   5.903 -0.0139  0.6099  0.0285
14250SOL    HW144201   1.396   8.210   5.867  1.5714  0.5451 -0.7417
14250SOL    HW244202   1.455   8.137   5.986  0.1856  0.4990 -0.0644
14251SOL     OW44203   7.566   4.359   7.248 -0.4849 -0.2676  0.3678
14251SOL    HW144204   7.534   4.390   7.163 -0.0899 -2.8164 -0.8034
14251SOL    HW244205   7.657   4.389   7.252  0.2063 -1.9570 -1.1924
14252SOL     OW44206   6.833   5.788   1.403 -0.4803  0.1538 -0.5368
14252SOL    HW144207   6.820   5.812   1.495  0.8734  1.4482 -0.6453
14252SOL    HW244208   6.774   5.847   1.356 -0.7705 -0.1362 -0.5418
14253SOL     OW44209   2.125   0.724   8.662  0.3533  0.0044  0.1675
14253SOL    HW144210   2.163   0.732   8.575  1.8939 -0.2639  0.7736
14253SOL    HW244211   2.187   0.771   8.719  1.1075 -2.5202  1.5489
14254SOL     OW44212   6.232   7.053   7.532 -0.8576 -0.0948  0.4711
14254SOL    HW144213   6.190   7.052   7.446 -0.1945 -1.6050  0.1267
14254SOL    HW244214   6.171   7.008   7.589 -0.9132  0.1325  0.5895
14255SOL     OW44215   6.428   2.369   2.395  0.2739  0.3647  0.4432
14255SOL    HW144216   6.346   2.322   2.382  0.2915  0.7178 -1.2128
14255SOL    HW244217   6.406   2.442   2.453 -0.4767  0.2032  0.3656
14256SOL     OW44218   7.250   1.102   6.814  0.1003  0.1093 -0.4336
14256SOL    HW144219   7.194   1.025   6.805 -0.2833  0.2404  0.6732
14256SOL    HW244220   7.256   1.117   6.909  1.5358  0.4437 -0.5449
14257SOL     OW44221   1.895   4.392   1.624 -0.2515  0.0309  0.2039
14257SOL    HW144222   1.852   4.410   1.708  0.3197  1.3908  0.2354
14257SOL    HW244223   1.972   4.340   1.648 -1.9063 -2.6494  0.1192
14258SOL     OW44224   6.870   7.283   6.793 -0.1072  0.2135  0.0571
14258SOL    HW144225   6.872   7.379   6.793  1.3966  0.2198 -1.1155
14258SOL    HW244226   6.950   7.258   6.839 -0.1139 -0.4802 -0.3029
14259SOL     OW44227   5.410   6.522   8.255 -0.3461  0.1576  0.4154
14259SOL    HW144228   5.343   6.499   8.319 -0.0642  0.5640  0.8660
14259SOL    HW244229   5.395   6.615   8.237  1.1531  0.7414  1.8519
14260SOL     OW44230   4.619   4.570   9.255  0.0897 -0.1242  0.7719
14260SOL    HW144231   4.607   4.639   9.320 -0.7653 -0.1960  0.6931
14260SOL    HW244232   4.633   4.617   9.172 -0.8300 -0.0425  0.6587
14261SOL     OW44233   1.089   0.697   2.636 -0.1077 -0.3645 -0.7888
14261SOL    HW144234   1.012   0.751   2.653 -1.7160 -2.6120 -0.4610
14261SOL    HW244235   1.097   0.641   2.714  1.6689 -0.3958 -0.9615
14262SOL     OW44236   0.431   1.546   1.171 -0.0826  0.1922  0.2636
14262SOL    HW144237   0.339   1.527   1.156 -0.1942  1.0176 -0.1474
14262SOL    HW244238   0.441   1.638   1.146  1.0609 -0.1611 -0.6509
14263SOL     OW44239   6.853   1.828   3.837 -0.1026 -0.8512 -0.1849
14263SOL    HW144240   6.901   1.828   3.919  0.5713 -0.4939 -0.5705
14263SOL    HW244241   6.852   1.737   3.809 -0.1892 -0.9471  0.1310
14264SOL     OW44242   6.344   3.335   1.975 -0.0925 -0.6002 -0.0733
14264SOL    HW144243   6.258   3.324   2.015 -0.5812 -0.2119 -0.9950
14264SOL    HW244244   6.399   3.270   2.019 -1.1821 -1.8131 -0.4232
14265SOL     OW44245   7.147   7.407   5.245  0.4759 -0.0387 -0.0439
14265SOL    HW144246   7.144   7.373   5.334  2.4919  1.6716  0.7632
14265SOL    HW244247   7.144   7.329   5.189  0.2071 -1.2102  1.5281
14266SOL     OW44248   5.820   2.451   7.219  0.4014 -0.4087 -0.8585
14266SOL    HW144249   5.901   2.474   7.265 -0.5200  0.1418  0.5644
14266SOL    HW244250   5.767   2.531   7.222 -0.7339 -1.1509 -0.5584
14267SOL     OW44251   4.664   1.701   1.663 -0.1098 -0.3005 -0.1390
14267SOL    HW144252   4.696   1.617   1.697 -0.8087 -0.3735  0.3516
14267SOL    HW244253   4.699   1.706   1.574  0.0847 -1.0261 -0.1060
14268SOL     OW44254   5.740   6.746   0.909  0.9773  0.4135  0.0606
14268SOL    HW144255   5.671   6.683   0.885  0.8647 -0.0910  1.5793
14268SOL    HW244256   5.737   6.749   1.004  3.8485 -0.4977  0.2579
14269SOL     OW44257   1.734   3.285   6.563  0.2600  0.3606 -0.3084
14269SOL    HW144258   1.775   3.369   6.586 -0.3102  0.2629  1.1869
14269SOL    HW244259   1.805   3.233   6.526  0.7761  1.2628 -0.6162
14270SOL     OW44260   8.584   2.501   1.552  0.1163 -0.6608 -0.1948
14270SOL    HW144261   8.533   2.534   1.477  1.4125  4.2892  0.7064
14270SOL    HW244262   8.672   2.489   1.517  0.4595  0.5237  0.2172
14271SOL     OW44263   6.167   8.242   5.188 -0.0117  0.4842 -0.4913
14271SOL    HW144264   6.205   8.158   5.211 -0.1481  0.3623 -0.7036
14271SOL    HW244265   6.122   8.226   5.105 -2.0419  0.1723  0.6133
14272SOL     OW44266   5.379   4.950   7.707  0.0836 -0.2790  0.2482
14272SOL    HW144267   5.366   4.988   7.794  0.8780 -1.1407  0.7554
14272SOL    HW244268   5.306   4.984   7.655  0.7466  1.9375  0.6572
14273SOL     OW44269   1.026   0.444   3.042  0.3858 -0.1154 -0.2213
14273SOL    HW144270   1.013   0.374   2.978  0.9909 -1.0423  0.6472
14273SOL    HW244271   1.103   0.491   3.011  1.3031 -1.2002  0.3656
14274SOL     OW44272   6.703   8.552   2.694  0.3744 -0.3137 -0.3331
14274SOL    HW144273   6.663   8.566   2.608 -1.4521  0.0184  0.5362
14274SOL    HW244274   6.636   8.507   2.745  1.1028  0.2597  1.1868
14275SOL     OW44275   1.225   4.313   5.223  0.2614  1.0494  0.0891
14275SOL    HW144276   1.228   4.218   5.222  0.6197  1.0531  0.4712
14275SOL    HW244277   1.191   4.335   5.310  1.2129  1.2837  0.4218
14276SOL     OW44278   1.264   2.162   2.440 -0.6755  0.1201  0.6516
14276SOL    HW144279   1.205   2.180   2.514  0.1810 -0.8250  1.5982
14276SOL    HW244280   1.337   2.114   2.479 -0.1523 -0.3132 -0.8098
14277SOL     OW44281   2.500   5.558   7.948 -0.0739 -0.1325 -0.0100
14277SOL    HW144282   2.489   5.649   7.922 -2.6844 -0.5985 -0.7597
14277SOL    HW244283   2.465   5.553   8.037  3.1323  0.1653  1.4377
14278SOL     OW44284   3.836   5.254   4.748 -0.1071 -0.0264 -0.3678
14278SOL    HW144285   3.849   5.259   4.842 -0.3425 -0.0279 -0.3333
14278SOL    HW244286   3.751   5.297   4.733  0.4323  0.9359 -0.7118
14279SOL     OW44287   6.252   4.914   3.974  0.5296  0.3827  0.7341
14279SOL    HW144288   6.161   4.940   3.990 -0.2564 -0.1519 -2.2260
14279SOL    HW244289   6.251   4.819   3.984  0.1824  0.1194 -1.3223
14280SOL     OW44290   0.951   7.019   0.250 -0.4135 -0.0361 -0.3915
14280SOL    HW144291   0.994   6.934   0.247  0.7876  0.5035  0.4695
14280SOL    HW244292   1.008   7.077   0.198 -0.4521  0.5358  0.1864
14281SOL     OW44293   4.422   0.637   2.519 -0.0513 -0.3153 -0.2162
14281SOL    HW144294   4.393   0.720   2.480  0.5820  0.3793  0.7632
14281SOL    HW244295   4.421   0.575   2.446 -1.1500  0.3897 -0.8301
14282SOL     OW44296   2.266   4.766   1.447 -0.1260 -0.1991  0.0788
14282SOL    HW144297   2.230   4.792   1.532 -0.9997 -0.1281 -0.3014
14282SOL    HW244298   2.255   4.671   1.445  0.2013 -0.2401  0.1791
14283SOL     OW44299   4.560   3.762   4.369 -0.7888 -1.0006  0.7934
14283SOL    HW144300   4.518   3.746   4.284 -0.4558 -1.2958  0.6812
14283SOL    HW244301   4.654   3.766   4.348 -0.8056  0.5099  0.9004
14284SOL     OW44302   2.766   6.386   1.057 -0.2043 -0.8322  0.1149
14284SOL    HW144303   2.766   6.480   1.038  1.0856 -0.5531  1.3284
14284SOL    HW244304   2.844   6.373   1.111 -0.4372 -2.5876  0.0691
14285SOL     OW44305   3.938   4.050   7.861 -0.2018 -0.2347  0.4227
14285SOL    HW144306   3.870   4.046   7.794  0.8338  1.7180 -0.8544
14285SOL    HW244307   4.019   4.033   7.814  0.3645 -0.7681  1.5682
14286SOL     OW44308   3.215   4.536   5.761  0.0574 -0.4520 -0.6587
14286SOL    HW144309   3.299   4.578   5.781 -0.2817  0.8496 -1.8250
14286SOL    HW244310   3.167   4.601   5.709 -2.2261 -0.5998  1.0678
14287SOL     OW44311   1.962   2.332   0.893  0.4429 -0.2404 -0.2433
14287SOL    HW144312   1.902   2.279   0.840 -0.1943  0.2858 -0.0700
14287SOL    HW244313   1.911   2.355   0.971  0.8772  0.2004 -0.0834
14288SOL     OW44314   8.167   8.393   4.394 -0.3030  0.0616  0.4932
14288SOL    HW144315   8.167   8.454   4.467  0.3700 -0.5092  0.9867
14288SOL    HW244316   8.258   8.392   4.363 -0.2701 -0.7759  0.5841
14289SOL     OW44317   6.729   3.625   6.000  0.2529 -0.4839  0.5698
14289SOL    HW144318   6.658   3.573   6.037  0.0211  0.1420  1.0321
14289SOL    HW244319   6.750   3.582   5.918 -1.4097 -0.0781 -0.1276
14290SOL     OW44320   6.181   8.359   3.144  1.0257 -0.0823  0.1154
14290SOL    HW144321   6.220   8.317   3.221  1.1551  1.0261  0.6801
14290SOL    HW244322   6.187   8.294   3.075  1.1697 -1.0003  0.9753
14291SOL     OW44323   5.640   1.007   5.242  0.2708 -0.0301  0.2022
14291SOL    HW144324   5.678   1.017   5.154 -1.0477 -2.2084 -0.6995
14291SOL    HW244325   5.711   0.972   5.295  0.8868  0.6142 -0.1914
14292SOL     OW44326   0.086   4.237   2.724 -0.3002 -0.1262  0.4256
14292SOL    HW144327   0.165   4.254   2.775 -0.0195  0.3211 -0.1415
14292SOL    HW244328   0.038   4.172   2.774  0.6509 -0.7399  0.5537
14293SOL     OW44329   8.001   7.364   0.665  0.3508 -0.5505 -0.6401
14293SOL    HW144330   7.908   7.382   0.672 -0.0767 -2.3189 -1.2534
14293SOL    HW244331   8.007   7.269   0.658  2.1290 -0.4234 -1.5978
14294SOL     OW44332   0.167   8.353   0.171 -0.0463  0.2325  0.1536
14294SOL    HW144333   0.172   8.436   0.218 -0.3405 -0.0357  0.6711
14294SOL    HW244334   0.151   8.377   0.080  2.2021  0.8436 -0.1538
14295SOL     OW44335   6.240   3.669   0.111  0.1171  0.1795 -0.0776
14295SOL    HW144336   6.219   3.629   0.026  1.6360 -0.8226 -0.0277
14295SOL    HW244337   6.317   3.723   0.093 -1.1548  2.1571  0.1356
14296SOL     OW44338   6.366   7.292   0.705 -0.3688  0.1113  0.2596
14296SOL    HW144339   6.408   7.235   0.641 -0.8534 -2.0022  1.6890
14296SOL    HW244340   6.438   7.325   0.759 -0.0525  1.1830 -0.7758
14297SOL     OW44341   6.165   5.494   6.028  0.4205  0.1003 -1.0833
14297SOL    HW144342   6.238   5.480   5.968  0.7562  0.1389 -0.6886
14297SOL    HW244343   6.183   5.435   6.101  0.8176  1.1477 -0.3097
14298SOL     OW44344   3.365   4.531   7.033  0.1888  0.7995  0.7866
14298SOL    HW144345   3.416   4.458   7.068  1.6742  0.4725 -1.7579
14298SOL    HW244346   3.297   4.489   6.979 -0.2564  1.2806  0.9669
14299SOL     OW44347   4.779   5.497   5.497  0.3565  0.2111 -0.3088
14299SOL    HW144348   4.817   5.425   5.547  0.2196  0.0490 -0.4374
14299SOL    HW244349   4.693   5.511   5.537  0.3610  0.2688 -0.3186
14300SOL     OW44350   2.430   5.335   1.444  0.5181  0.1196 -0.2894
14300SOL    HW144351   2.437   5.278   1.521 -0.9086  0.3182  0.0163
14300SOL    HW244352   2.429   5.274   1.370 -2.6091 -0.4895  0.1001
14301SOL     OW44353   3.058   3.990   0.461  0.0299  0.0532  0.1405
14301SOL    HW144354   3.007   4.068   0.435 -0.5672 -0.6739 -0.9697
14301SOL    HW244355   3.070   3.942   0.379 -0.9081 -1.7762  1.0214
14302SOL     OW44356   5.587   0.626   4.745 -0.2905 -0.4696 -0.2663
14302SOL    HW144357   5.579   0.541   4.787 -0.0440 -0.4624 -0.2026
14302SOL    HW244358   5.497   0.657   4.735 -0.3017  0.0914  1.3899
14303SOL     OW44359   6.326   5.721   3.005 -0.4335 -0.0134 -0.4004
14303SOL    HW144360   6.242   5.728   3.052 -1.3995 -1.3821 -1.7967
14303SOL    HW244361   6.332   5.802   2.955 -1.8343 -0.5960 -1.6114
14304SOL     OW44362   2.683   8.998   4.806 -0.0523  0.3414 -0.2305
14304SOL    HW144363   2.745   8.932   4.774 -2.1454 -1.3238 -1.1063
14304SOL    HW244364   2.620   9.009   4.734 -1.3415  1.1927  0.9695
14305SOL     OW44365   6.561   8.163   2.158 -0.6961 -0.2251  0.2254
14305SOL    HW144366   6.618   8.150   2.082  0.9740  2.3612  0.9031
14305SOL    HW244367   6.551   8.075   2.195 -0.6040 -1.3789 -2.2686
14306SOL     OW44368   8.214   6.932   7.760  0.0519 -0.3397  0.1200
14306SOL    HW144369   8.159   6.860   7.791  0.1996  0.0129  1.2498
14306SOL    HW244370   8.260   6.896   7.684  0.1039 -1.4280  0.6519
14307SOL     OW44371   1.433   0.737   7.302  0.5658 -0.2030  0.1563
14307SOL    HW144372   1.458   0.777   7.219  0.0999 -1.3795 -0.5600
14307SOL    HW244373   1.423   0.644   7.283 -0.3130 -0.3802  1.3562
14308SOL     OW44374   7.850   4.095   7.541 -1.2711 -0.0686 -0.1925
14308SOL    HW144375   7.864   4.184   7.508 -2.5881  0.0704 -0.4078
14308SOL    HW244376   7.911   4.042   7.490  1.2960  0.9629  1.5659
14309SOL     OW44377   6.006   2.852   2.835 -0.0950  0.4594 -0.1596
14309SOL    HW144378   5.975   2.818   2.919  0.5605 -1.2302 -0.5578
14309SOL    HW244379   6.031   2.943   2.854 -1.3439  0.5772  1.1103
14310SOL     OW44380   0.495   0.746   1.507  0.1193 -0.3832 -0.0696
14310SOL    HW144381   0.525   0.797   1.432  1.2341 -1.1216 -0.1566
14310SOL    HW244382   0.445   0.674   1.468 -0.1634 -0.2058 -0.0374
14311SOL     OW44383   4.936   0.581   2.558 -0.7532  0.2368 -0.0041
14311SOL    HW144384   4.848   0.569   2.521 -0.6943  1.1088 -0.4549
14311SOL    HW244385   4.960   0.670   2.534  0.2315  0.0337  0.1840
14312SOL     OW44386   8.782   1.667   1.083  0.0398 -0.3285 -0.7156
14312SOL    HW144387   8.737   1.657   1.167  0.0812  2.2520 -0.3050
14312SOL    HW244388   8.843   1.593   1.080 -0.6480 -1.0235  1.0607
14313SOL     OW44389   4.861   4.729   4.645  0.2614 -0.3217  0.8733
14313SOL    HW144390   4.894   4.788   4.577 -0.4566 -0.9102 -0.0073
14313SOL    HW244391   4.814   4.786   4.706 -2.8661 -0.1917 -1.4174
14314SOL     OW44392   0.425   3.906   1.399 -0.0138  0.0283 -0.1358
14314SOL    HW144393   0.467   3.992   1.409  0.0958  0.1501 -1.4796
14314SOL    HW244394   0.441   3.862   1.483 -0.4486  1.4734  0.7378
14315SOL     OW44395   7.549   3.340   4.663  0.0152  0.3273 -0.2658
14315SOL    HW144396   7.460   3.370   4.643  0.0286  0.5854  0.0418
14315SOL    HW244397   7.574   3.391   4.740 -0.3511 -1.2051  0.9227
14316SOL     OW44398   5.826   3.503   1.269 -0.3490 -0.6704 -0.0275
14316SOL    HW144399   5.731   3.512   1.283 -0.1298 -0.3874  1.5435
14316SOL    HW244400   5.863   3.515   1.356  1.0610 -2.0623 -0.3983
14317SOL     OW44401   9.128   1.844   1.440  0.4828 -0.0482  0.2925
14317SOL    HW144402   9.047   1.891   1.421  0.8138  0.7469  0.7907
14317SOL    HW244403   9.128   1.835   1.536  2.0912  2.0414  0.5434
14318SOL     OW44404   6.272   2.150   5.125  0.1548 -0.1978 -0.0438
14318SOL    HW144405   6.193   2.202   5.138  0.6652  0.7503 -0.6382
14318SOL    HW244406   6.289   2.155   5.031 -0.1186 -1.9654 -0.2253
14319SOL     OW44407   5.840   5.723   7.695  0.6803  0.1377 -0.0804
14319SOL    HW144408   5.787   5.698   7.619  0.0158  1.2876 -0.0199
14319SOL    HW244409   5.796   5.800   7.731  2.4245  1.2151 -0.0856
14320SOL     OW44410   3.759   7.168   6.055 -0.7651 -0.1192 -0.1957
14320SOL    HW144411   3.836   7.143   6.106  0.2933  0.8136 -1.2488
14320SOL    HW244412   3.718   7.085   6.031 -0.7877 -0.5939  1.3961
14321SOL     OW44413   2.813   3.597   3.575  0.1461  0.2619 -0.1246
14321SOL    HW144414   2.890   3.633   3.619  1.4026 -0.2224 -1.8189
14321SOL    HW244415   2.836   3.596   3.482 -1.9650  0.2008 -0.7141
14322SOL     OW44416   4.500   6.517   0.604 -0.0619  0.1326 -0.5088
14322SOL    HW144417   4.421   6.506   0.552 -0.8081 -1.8982  0.9307
14322SOL    HW244418   4.469   6.535   0.693  1.0693 -0.7046  0.0864
14323SOL     OW44419   4.463   7.664   1.572 -0.5207  0.1913  0.0849
14323SOL    HW144420   4.434   7.675   1.481  1.2192  0.9456 -0.4184
14323SOL    HW244421   4.389   7.693   1.624 -1.9712 -1.2630 -1.0375
14324SOL     OW44422   0.287   2.905   4.160  0.2758  0.2518  0.5211
14324SOL    HW144423   0.305   2.862   4.077  1.8354  1.8300 -0.0182
14324SOL    HW244424   0.351   2.976   4.165 -0.7319  1.1125  2.3857
14325SOL     OW44425   6.521   3.526   6.854 -0.1527  0.5292  0.1294
14325SOL    HW144426   6.463   3.565   6.789  0.0504  0.7451  0.0770
14325SOL    HW244427   6.555   3.600   6.904  0.6649  0.4775 -0.3295
14326SOL     OW44428   7.621   5.833   6.617  0.0567 -0.2563 -0.2552
14326SOL    HW144429   7.550   5.772   6.635  0.2921 -0.5739 -0.3928
14326SOL    HW244430   7.672   5.790   6.548  2.5722 -1.8093  2.3634
14327SOL     OW44431   4.917   7.416   8.187  0.1996 -0.2639 -0.2297
14327SOL    HW144432   4.920   7.425   8.282  0.6174 -3.0407  0.0995
14327SOL    HW244433   4.844   7.472   8.160  1.1618  1.9620  1.4558
14328SOL     OW44434   4.596   8.154   0.679 -0.1591 -0.2632 -0.6959
14328SOL    HW144435   4.544   8.134   0.757 -0.4756 -1.2381 -1.1492
14328SOL    HW244436   4.680   8.185   0.714  0.2944 -2.2269  0.0638
14329SOL     OW44437   4.718   8.786   1.662  0.0371  0.0631 -0.1814
14329SOL    HW144438   4.649   8.829   1.612  0.6986  0.7081 -0.5441
14329SOL    HW244439   4.723   8.698   1.624 -1.1514 -0.2823  0.4046
14330SOL     OW44440   3.802   3.332   3.337  0.5371  0.2324 -0.8056
14330SOL    HW144441   3.881   3.376   3.307  1.6431 -2.0849 -1.5654
14330SOL    HW244442   3.772   3.281   3.261 -1.8404  1.1777 -0.6113
14331SOL     OW44443   3.585   2.392   6.443 -0.0602 -1.0715 -0.0777
14331SOL    HW144444   3.533   2.349   6.376 -1.3901 -0.7207  0.6890
14331SOL    HW244445   3.521   2.420   6.509  1.0207 -0.0025  0.5617
14332SOL     OW44446   8.923   2.847   5.850 -0.2027  0.6344 -0.2989
14332SOL    HW144447   8.876   2.809   5.776  1.5316 -2.6908  0.1203
14332SOL    HW244448   8.864   2.835   5.925 -0.0029 -0.6042 -0.3214
14333SOL     OW44449   4.565   7.226   0.658  0.1272 -0.2176 -0.2846
14333SOL    HW144450   4.610   7.143   0.673 -1.0059 -1.5232 -3.2525
14333SOL    HW244451   4.495   7.229   0.723  0.2826 -1.5195 -0.0455
14334SOL     OW44452   4.382   7.493   3.978 -0.9824 -0.1306  0.0061
14334SOL    HW144453   4.299   7.445   3.984 -0.9251 -0.2696 -0.2839
14334SOL    HW244454   4.438   7.451   4.043 -1.9689  1.7033  2.1844
14335SOL     OW44455   4.987   3.283   2.046  0.1745  0.2216 -0.3315
14335SOL    HW144456   4.900   3.313   2.070 -0.1086  0.0648 -1.1368
14335SOL    HW244457   5.032   3.268   2.130 -0.9665 -0.8758  0.1127
14336SOL     OW44458   2.092   7.071   3.547  0.1672 -0.4618 -0.1073
14336SOL    HW144459   2.090   7.151   3.599  0.2367 -0.6452  0.1806
14336SOL    HW244460   2.087   7.001   3.612  1.9853 -0.7294 -0.2024
14337SOL     OW44461   3.294   0.167   0.129  0.0829 -0.3628  0.2713
14337SOL    HW144462   3.200   0.186   0.125 -0.4714 -1.8708  3.4230
14337SOL    HW244463   3.307   0.097   0.065 -0.2372  1.7371 -2.3119
14338SOL     OW44464   8.732   3.175   9.201 -0.4822  0.6264 -0.9548
14338SOL    HW144465   8.659   3.211   9.150  1.3775  2.9109 -2.2585
14338SOL    HW244466   8.751   3.243   9.266  0.7577  0.3012 -0.9577
14339SOL     OW44467   4.175   0.293   3.114  0.3172  0.6684  0.5267
14339SOL    HW144468   4.257   0.260   3.151  0.5451  0.0622 -0.4870
14339SOL    HW244469   4.125   0.322   3.190  1.6150  1.4050  1.1306
14340SOL     OW44470   0.728   2.435   2.695 -0.0959 -0.3732  0.1893
14340SOL    HW144471   0.695   2.511   2.647  1.6509  1.1512  1.2883
14340SOL    HW244472   0.706   2.360   2.639  2.7382  1.3181 -3.6137
14341SOL     OW44473   2.794   2.941   2.915  0.1158  0.1331 -0.1044
14341SOL    HW144474   2.819   3.030   2.940  2.0736 -0.0529 -1.1540
14341SOL    HW244475   2.845   2.885   2.973 -0.1174 -0.2992 -0.3137
14342SOL     OW44476   5.643   6.493   2.974 -0.3605 -0.2681  0.4846
14342SOL    HW144477   5.562   6.448   2.997  0.0149 -0.5744  1.2452
14342SOL    HW244478   5.614   6.575   2.934 -1.0426 -0.4712  0.5431
14343SOL     OW44479   1.058   6.000   1.472 -0.1932  0.0339 -0.0139
14343SOL    HW144480   1.081   6.041   1.555  0.0187 -0.3790  0.1303
14343SOL    HW244481   1.122   5.929   1.461  0.8256  1.0855 -1.3068
14344SOL     OW44482   7.811   2.969   2.268 -0.2875  0.0357  0.3318
14344SOL    HW144483   7.858   3.025   2.206 -0.1325 -0.7664 -0.2938
14344SOL    HW244484   7.872   2.957   2.340 -0.3426  0.7070  0.4987
14345SOL     OW44485   3.709   0.519   5.266 -0.5628 -0.1312 -0.0580
14345SOL    HW144486   3.670   0.434   5.245 -0.1652 -0.1933 -0.5551
14345SOL    HW244487   3.791   0.521   5.217 -0.4754  0.4593  0.1061
14346SOL     OW44488   6.189   8.539   1.094 -0.5616  0.5394 -0.3231
14346SOL    HW144489   6.188   8.633   1.076  0.1881  1.3364  2.9613
14346SOL    HW244490   6.275   8.523   1.133 -0.3708 -1.7299 -1.4648
14347SOL     OW44491   6.948   8.270   0.433  0.3867  0.4072 -0.4557
14347SOL    HW144492   7.031   8.278   0.386  1.0004 -0.0635  0.5199
14347SOL    HW244493   6.899   8.348   0.408  1.6331  1.3469 -0.0555
14348SOL     OW44494   6.525   3.426   0.069 -0.1225 -0.0994  0.2984
14348SOL    HW144495   6.564   3.453   0.153  0.8555 -1.2126  0.2231
14348SOL    HW244496   6.599   3.393   0.018 -0.3209  2.3764 -1.8017
14349SOL     OW44497   6.152   6.054   7.445 -0.0282  0.4411 -0.3544
14349SOL    HW144498   6.230   6.016   7.485  0.3055 -0.2185 -1.5531
14349SOL    HW244499   6.164   6.038   7.351 -1.4158  0.7003 -0.5945
14350SOL     OW44500   0.682   7.030   2.230  0.1077  0.2400  0.0248
14350SOL    HW144501   0.775   7.013   2.250 -0.2701 -1.8089  0.2462
14350SOL    HW244502   0.652   7.084   2.303  0.7731 -0.3673  0.7770
14351SOL     OW44503   3.382   7.564   3.169  0.1954 -0.2752  0.1261
14351SOL    HW144504   3.425   7.532   3.089  0.4288  0.9189 -0.2423
14351SOL    HW244505   3.296   7.522   3.168 -0.9611  1.8999 -2.3236
14352SOL     OW44506   5.704   6.651   6.236  0.3021  0.4625 -0.0330
14352SOL    HW144507   5.694   6.558   6.258 -0.2379  0.7241  0.8925
14352SOL    HW244508   5.782   6.654   6.181  1.3051 -0.3495  1.2749
14353SOL     OW44509   3.508   4.443   4.785  0.0504  0.2225 -0.2204
14353SOL    HW144510   3.596   4.462   4.817 -0.3825  0.8299  0.6689
14353SOL    HW244511   3.450   4.483   4.849 -0.9332 -2.2901  0.5999
14354SOL     OW44512   4.403   2.188   3.291 -0.1192 -0.4270 -0.4278
14354SOL    HW144513   4.387   2.208   3.199  0.3751  0.2410 -0.3767
14354SOL    HW244514   4.492   2.220   3.308 -0.7380  0.8399  0.6617
14355SOL     OW44515   5.804   4.201   5.284 -0.0997 -0.4168 -0.4815
14355SOL    HW144516   5.783   4.238   5.198 -0.3218  0.3166 -0.1291
14355SOL    HW244517   5.751   4.122   5.290  0.2156 -0.6899 -1.1744
14356SOL     OW44518   2.944   3.524   8.266  0.6110 -0.3670  0.5282
14356SOL    HW144519   3.006   3.486   8.328 -0.0083 -1.6843  0.3692
14356SOL    HW244520   2.970   3.489   8.181  0.6157  0.3358  0.2330
14357SOL     OW44521   7.506   2.264   8.872  0.0617 -0.3268  0.3296
14357SOL    HW144522   7.545   2.344   8.909  0.1434 -0.7178  1.1118
14357SOL    HW244523   7.420   2.258   8.915  0.0158 -0.6102  0.1949
14358SOL     OW44524   0.093   4.988   6.552  0.2872 -0.5103  0.2837
14358SOL    HW144525   0.048   4.913   6.515  1.2043 -1.3206  0.7493
14358SOL    HW244526   0.098   4.970   6.646 -0.2971  0.5822  0.5448
14359SOL     OW44527   8.142   5.195   3.516  0.3880  0.1479 -0.2873
14359SOL    HW144528   8.225   5.224   3.477  0.2944  0.4847 -0.2376
14359SOL    HW244529   8.151   5.100   3.522  1.4068  0.3067  1.1491
14360SOL     OW44530   2.986   8.136   4.811  0.6080  0.0439 -0.2672
14360SOL    HW144531   2.907   8.146   4.758 -0.1078 -0.0983  0.7418
14360SOL    HW244532   2.954   8.107   4.897  1.8258 -0.8523 -0.0886
14361SOL     OW44533   8.267   6.208   0.591 -0.2609  0.3369 -0.1718
14361SOL    HW144534   8.334   6.263   0.551 -0.3351  0.0235 -0.7500
14361SOL    HW244535   8.303   6.120   0.587 -0.3750  0.2688  0.2393
14362SOL     OW44536   2.235   7.756   0.261 -0.3870 -0.8544 -0.2971
14362SOL    HW144537   2.203   7.805   0.186 -1.2869 -0.3661  0.3889
14362SOL    HW244538   2.299   7.695   0.224 -0.2100 -0.0630 -1.3386
14363SOL     OW44539   1.111   6.252   0.179 -0.0433 -0.6582  0.1290
14363SOL    HW144540   1.086   6.282   0.091  0.0431 -0.6031  0.1229
14363SOL    HW244541   1.033   6.208   0.212  0.2580 -1.6216 -0.3928
14364SOL     OW44542   1.292   8.277   8.566  0.2571 -0.2931  0.2068
14364SOL    HW144543   1.225   8.253   8.630 -1.6923  1.1013 -1.1592
14364SOL    HW244544   1.360   8.211   8.576 -0.1231 -0.3845  3.3712
14365SOL     OW44545   8.710   1.995   5.437 -0.2363  0.2447  0.4203
14365SOL    HW144546   8.682   1.918   5.387 -0.7282  0.4092  0.4396
14365SOL    HW244547   8.740   2.058   5.370 -1.0207  0.5165  0.3190
14366SOL     OW44548   0.040   8.075   2.822 -0.0550  0.5042 -0.6433
14366SOL    HW144549  -0.054   8.088   2.838 -0.2688 -0.6597 -0.9008
14366SOL    HW244550   0.075   8.050   2.908  0.2429  2.0431 -0.2899
14367SOL     OW44551   5.556   6.898   5.561  0.3989  0.5240 -0.0547
14367SOL    HW144552   5.602   6.854   5.632 -0.8451 -1.1514 -0.2033
14367SOL    HW244553   5.587   6.854   5.482  0.5221  1.2274 -0.4076
14368SOL     OW44554   6.213   6.802   2.244 -0.9101 -0.7154  0.4332
14368SOL    HW144555   6.153   6.875   2.230 -0.8288 -0.2869  2.0722
14368SOL    HW244556   6.197   6.775   2.335  0.2721 -1.6224  0.3984
14369SOL     OW44557   6.305   7.679   8.645  0.2602  0.1006  0.7067
14369SOL    HW144558   6.318   7.758   8.593  1.2608 -0.2653  0.3756
14369SOL    HW244559   6.221   7.644   8.615  0.3262  0.4629  0.0873
14370SOL     OW44560   6.057   2.198   3.314  0.4483 -0.5063 -0.2379
14370SOL    HW144561   6.091   2.197   3.404 -2.7170 -1.2928  1.0996
14370SOL    HW244562   6.063   2.106   3.286 -1.8870 -1.0456  0.7094
14371SOL     OW44563   5.908   7.446   7.018 -0.5544  0.0242 -0.4426
14371SOL    HW144564   5.868   7.359   7.011  1.4450 -0.9130 -1.3294
14371SOL    HW244565   5.956   7.456   6.935  1.4202  0.7930  0.7256
14372SOL     OW44566   8.631   7.181   7.963 -0.2276  0.6143 -0.4687
14372SOL    HW144567   8.704   7.140   7.917  0.9492  0.8848  1.0663
14372SOL    HW244568   8.558   7.119   7.953  0.1409  0.4168 -2.1662
14373SOL     OW44569   6.121   5.978   0.088  0.3680 -0.3950 -0.0077
14373SOL    HW144570   6.156   5.984  -0.001  2.0788  1.3025  0.7050
14373SOL    HW244571   6.151   5.892   0.120 -0.0193 -0.8927 -0.9564
14374SOL     OW44572   6.181   6.359   4.404  0.2107 -0.0108  0.2062
14374SOL    HW144573   6.261   6.409   4.418  1.7184 -1.9743 -0.8534
14374SOL    HW244574   6.162   6.320   4.490  1.5980 -1.1442  0.0392
14375SOL     OW44575   0.207   0.575   5.238 -0.1267  0.2813  0.4094
14375SOL    HW144576   0.265   0.649   5.257 -0.6160  1.1740 -1.3489
14375SOL    HW244577   0.218   0.559   5.144  0.1715 -2.1028  0.7809
14376SOL     OW44578   2.298   1.673   3.156  0.0127  0.2979 -0.4131
14376SOL    HW144579   2.270   1.761   3.128 -1.4859  0.1883  0.6060
14376SOL    HW244580   2.389   1.684   3.183 -0.7240  2.0433  1.6564
14377SOL     OW44581   1.506   3.737   6.274  0.4645  0.4245  0.4899
14377SOL    HW144582   1.566   3.692   6.334  1.0104  1.7229  0.9353
14377SOL    HW244583   1.557   3.808   6.237 -0.1920  0.2803 -0.7347
14378SOL     OW44584   8.123   7.213   3.880  0.1443 -0.1704 -0.0941
14378SOL    HW144585   8.035   7.217   3.918  0.4207 -0.0095  0.5263
14378SOL    HW244586   8.135   7.298   3.838  0.9012  0.7072  1.8201
14379SOL     OW44587   3.461   1.626   1.642 -0.5394  0.0229  0.0452
14379SOL    HW144588   3.472   1.560   1.573  1.0973 -1.7792  1.8902
14379SOL    HW244589   3.549   1.661   1.657 -1.3696  2.7485 -0.8833
14380SOL     OW44590   7.479   2.143   6.432 -0.4779 -0.4828 -0.0447
14380SOL    HW144591   7.549   2.086   6.402 -1.3575 -0.7268 -1.7301
14380SOL    HW244592   7.401   2.088   6.433 -1.2949  0.5641 -1.4745
14381SOL     OW44593   5.993   3.367   2.538  0.2638  0.0946  0.0702
14381SOL    HW144594   6.067   3.422   2.565  0.4610 -0.0166 -0.2369
14381SOL    HW244595   6.028   3.313   2.467  0.0763 -0.4422  0.3791
14382SOL     OW44596   7.275   7.672   0.314 -0.0690 -0.0019 -0.6625
14382SOL    HW144597   7.340   7.690   0.245 -0.6157  0.0765 -1.1642
14382SOL    HW244598   7.322   7.617   0.377  0.6404  0.4806 -0.7572
14383SOL     OW44599   4.211   7.938   5.102  0.0751  0.1236 -0.5817
14383SOL    HW144600   4.274   7.869   5.122 -0.0969  0.6998  2.5481
14383SOL    HW244601   4.256   7.995   5.040  1.2840 -1.2869 -1.0441
14384SOL     OW44602   0.119   7.282   1.726  0.2050  0.3501 -0.2905
14384SOL    HW144603   0.057   7.301   1.796  0.5866  0.5234  0.0035
14384SOL    HW244604   0.159   7.366   1.705  1.2339  0.0402  0.3815
14385SOL     OW44605   3.900   3.762   6.861 -0.5757  0.0988 -0.5764
14385SOL    HW144606   3.900   3.854   6.832 -0.7005  0.3745  0.2698
14385SOL    HW244607   3.864   3.765   6.949 -1.5040 -0.8994 -0.9038
14386SOL     OW44608   5.361   6.305   6.091 -0.0456  0.1073 -0.0259
14386SOL    HW144609   5.440   6.296   6.038  1.5539  0.4710  2.1752
14386SOL    HW244610   5.320   6.218   6.088  1.2572 -0.5298  0.0137
14387SOL     OW44611   1.526   3.465   0.348 -0.5851 -0.2124 -0.3285
14387SOL    HW144612   1.578   3.445   0.270  0.4668  1.1903 -0.0285
14387SOL    HW244613   1.557   3.551   0.376 -3.5272  1.0045 -0.4877
14388SOL     OW44614   3.009   4.924   5.800 -0.2125 -0.1155 -0.3107
14388SOL    HW144615   3.072   4.995   5.806  1.1208 -1.1975 -1.0113
14388SOL    HW244616   2.953   4.935   5.878  0.5195  1.1467  0.0649
14389SOL     OW44617   6.844   4.683   5.121 -0.7053  0.0810  0.0572
14389SOL    HW144618   6.848   4.702   5.027 -1.2772  0.3864  0.0852
14389SOL    HW244619   6.781   4.747   5.155 -3.1207 -2.1065  0.0822
14390SOL     OW44620   2.477   7.942   6.124  0.5128 -0.4029 -0.1651
14390SOL    HW144621   2.477   7.848   6.107 -0.4966 -0.6712  1.1605
14390SOL    HW244622   2.451   7.981   6.041  2.4049 -1.1664 -1.1769
14391SOL     OW44623   6.214   7.160   6.432  0.7100 -0.5849  0.1635
14391SOL    HW144624   6.186   7.251   6.430 -1.2010 -1.1202  0.4450
14391SOL    HW244625   6.309   7.163   6.420  0.3779  1.2596 -2.7014
14392SOL     OW44626   2.495   1.755   6.175 -0.3846  0.1004  0.7126
14392SOL    HW144627   2.515   1.847   6.197 -1.2794  0.2138  1.0874
14392SOL    HW244628   2.403   1.744   6.199 -0.5148 -0.6722 -0.0968
14393SOL     OW44629   7.346   7.025   1.276  0.1778 -0.0515 -0.8647
14393SOL    HW144630   7.367   7.101   1.330  0.7058 -1.1570  0.5608
14393SOL    HW244631   7.393   6.953   1.318 -1.6886 -1.4951 -1.1230
14394SOL     OW44632   4.601   6.511   8.383  0.1150  0.0632 -0.4082
14394SOL    HW144633   4.545   6.575   8.339 -0.1174 -0.2830 -0.6172
14394SOL    HW244634   4.657   6.476   8.314  1.3524  1.1862 -0.0164
14395SOL     OW44635   2.780   0.140   2.535 -0.2159 -0.0847 -0.8593
14395SOL    HW144636   2.865   0.166   2.572  0.5304 -1.7348 -1.3012
14395SOL    HW244637   2.751   0.067   2.590  0.1763 -1.5585 -2.5106
14396SOL     OW44638   7.640   8.541   0.174  0.1962 -0.3897 -0.5973
14396SOL    HW144639   7.656   8.448   0.191 -0.9054 -0.3662  0.8081
14396SOL    HW244640   7.724   8.583   0.191  0.5741 -1.0686 -0.7329
14397SOL     OW44641   3.353   8.122   6.071  0.3272 -0.0279  0.5393
14397SOL    HW144642   3.373   8.178   5.996  0.1259  1.6494  1.6833
14397SOL    HW244643   3.296   8.054   6.035  1.1029  0.0938 -1.0301
14398SOL     OW44644   0.648   5.947   5.969 -0.2297 -0.0660 -0.2966
14398SOL    HW144645   0.661   5.958   6.063 -0.1641 -0.4707 -0.2550
14398SOL    HW244646   0.592   6.020   5.943  0.4065  0.5061 -0.0917
14399SOL     OW44647   1.240   4.005   1.227 -0.2458  0.4136  0.3559
14399SOL    HW144648   1.189   3.930   1.196 -0.4386  0.8866 -0.5101
14399SOL    HW244649   1.251   4.060   1.149  0.2565  1.0754  0.8842
14400SOL     OW44650   4.702   3.049   2.646  0.2569 -0.2896  0.0670
14400SOL    HW144651   4.781   3.050   2.700 -0.3085 -0.4778  0.9260
14400SOL    HW244652   4.678   2.956   2.641  0.2772 -0.2674 -0.4804
14401SOL     OW44653   4.577   3.825   7.460 -0.1627 -0.0830 -0.0790
14401SOL    HW144654   4.547   3.881   7.532 -2.0885 -0.0181 -0.8638
14401SOL    HW244655   4.624   3.754   7.503  0.1728  0.8233  1.1171
14402SOL     OW44656   2.323   3.275   5.197 -0.3490 -0.7622 -0.1903
14402SOL    HW144657   2.233   3.242   5.190 -0.6957 -0.1014  0.8462
14402SOL    HW244658   2.331   3.336   5.124 -0.9258 -0.4576 -0.0094
14403SOL     OW44659   8.419   9.093   5.264 -0.1065  0.0813  0.2420
14403SOL    HW144660   8.435   9.187   5.253  2.9359 -0.6088 -2.5119
14403SOL    HW244661   8.367   9.068   5.188  1.9584 -0.9688 -0.8930
14404SOL     OW44662   2.844   1.658   0.091 -0.4841 -0.3697 -0.5221
14404SOL    HW144663   2.856   1.749   0.120  0.6507 -0.4197 -0.7663
14404SOL    HW244664   2.919   1.611   0.128 -1.1152 -1.2335 -0.3230
14405SOL     OW44665   6.397   2.063   7.828 -0.3342  0.0829 -1.0707
14405SOL    HW144666   6.426   2.109   7.906 -2.7854  1.4824 -0.9032
14405SOL    HW244667   6.436   1.976   7.836  0.3635  0.5393  1.1378
14406SOL     OW44668   8.990   1.608   8.977 -0.1121  0.6550 -0.0677
14406SOL    HW144669   8.894   1.605   8.976 -0.0950 -1.5403 -0.3200
14406SOL    HW244670   9.014   1.631   8.888 -0.4290 -0.3086 -0.4213
14407SOL     OW44671   3.411   4.791   7.021 -0.1150  0.2272  0.2336
14407SOL    HW144672   3.414   4.815   7.113  2.3164 -0.8036  0.4836
14407SOL    HW244673   3.385   4.699   7.021 -1.0086  0.4719 -0.1831
14408SOL     OW44674   5.137   1.309   8.003 -0.2196  0.2540  0.3238
14408SOL    HW144675   5.230   1.295   8.025 -0.3053 -0.0657  0.4872
14408SOL    HW244676   5.090   1.279   8.080 -0.5058 -0.4794 -0.1271
14409SOL     OW44677   7.568   0.939   3.938 -0.6092  0.6870 -0.2850
14409SOL    HW144678   7.611   0.862   3.974  1.1002  2.3453  1.4376
14409SOL    HW244679   7.476   0.914   3.931 -0.1870 -1.3402  0.6569
14410SOL     OW44680   6.689   7.216   1.728  0.2918  0.8021  0.2214
14410SOL    HW144681   6.768   7.269   1.714  0.6961  0.3078  0.5765
14410SOL    HW244682   6.717   7.147   1.788  0.1441 -0.6398 -1.2974
14411SOL     OW44683   1.187   0.915   8.797  0.4122  0.0667 -0.4652
14411SOL    HW144684   1.183   0.820   8.792 -1.7205  0.1157 -0.5048
14411SOL    HW244685   1.178   0.944   8.706 -1.2614  0.3186 -0.2443
14412SOL     OW44686   6.869   9.129   1.190 -0.4239 -0.3332  0.0534
14412SOL    HW144687   6.842   9.114   1.100  0.6921  2.2328 -0.8075
14412SOL    HW244688   6.815   9.204   1.219 -0.8381 -1.1705  1.5844
14413SOL     OW44689   7.433   7.158   3.986 -0.0911 -0.3357 -0.0893
14413SOL    HW144690   7.512   7.138   3.935  0.7820  0.1851  1.0161
14413SOL    HW244691   7.462   7.224   4.050 -0.9216 -1.5362  1.6103
14414SOL     OW44692   4.909   4.960   1.526  0.5047 -0.5347  0.8046
14414SOL    HW144693   4.841   5.021   1.498  0.2873 -0.2711  1.8769
14414SOL    HW244694   4.968   5.013   1.580  1.2261 -0.9031  0.3956
14415SOL     OW44695   1.361   6.688   9.188  0.5359 -0.6605  0.3092
14415SOL    HW144696   1.338   6.717   9.277  1.5406 -0.7235  0.6023
14415SOL    HW244697   1.437   6.632   9.200  0.2180 -1.2830 -0.5313
14416SOL     OW44698   5.622   8.711   8.455  0.4330  0.4336 -0.1570
14416SOL    HW144699   5.544   8.664   8.485  0.9959 -0.3205  0.1494
14416SOL    HW244700   5.613   8.713   8.360 -0.0376  0.4971 -0.1161
14417SOL     OW44701   5.254   6.485   2.205  0.5278  0.0926 -0.4445
14417SOL    HW144702   5.189   6.464   2.138  0.1346  0.2783 -0.1256
14417SOL    HW244703   5.337   6.491   2.157  0.6182 -1.8255 -0.6003
14418SOL     OW44704   8.730   8.059   0.507 -0.0886  0.2547 -0.4522
14418SOL    HW144705   8.754   8.129   0.567 -1.8973 -0.3118  1.0113
14418SOL    HW244706   8.781   8.077   0.427 -0.5318  3.2200 -0.1604
14419SOL     OW44707   3.820   5.054   5.908 -0.5658  0.2328 -0.2819
14419SOL    HW144708   3.794   5.144   5.887 -1.1633  0.0741 -0.2398
14419SOL    HW244709   3.867   5.024   5.831 -1.6162  0.0964 -0.8875
14420SOL     OW44710   2.831   0.331   0.669  0.5712  0.0321 -0.1828
14420SOL    HW144711   2.847   0.245   0.708 -0.7011 -0.1932 -0.1268
14420SOL    HW244712   2.805   0.387   0.742  1.4891  0.4993 -0.2023
14421SOL     OW44713   8.779   3.710   3.579  0.1780  0.2336  0.0728
14421SOL    HW144714   8.781   3.614   3.585 -0.4125  0.3238  2.8346
14421SOL    HW244715   8.850   3.731   3.517 -0.3464 -1.9865 -1.4106
14422SOL     OW44716   3.057   8.074   2.837  0.3339 -0.2491 -0.4843
14422SOL    HW144717   3.026   8.164   2.825 -0.4668 -0.2337  1.2732
14422SOL    HW244718   2.979   8.025   2.862  0.9537 -1.1934 -0.3362
14423SOL     OW44719   0.887   8.596   5.526 -0.8193  0.0714 -0.3923
14423SOL    HW144720   0.845   8.516   5.494 -1.6705  0.3903 -0.0935
14423SOL    HW244721   0.963   8.565   5.576 -2.0109 -0.6603  1.0622
14424SOL     OW44722   8.513   4.606   6.619 -0.2841  0.2989 -0.0112
14424SOL    HW144723   8.601   4.580   6.590 -0.7043  0.9259 -2.0897
14424SOL    HW244724   8.522   4.699   6.639 -0.6110  0.5597 -1.0054
14425SOL     OW44725   8.768   6.893   4.063 -0.5419 -0.4640  0.4262
14425SOL    HW144726   8.800   6.916   4.151  1.9509 -0.0305 -0.5135
14425SOL    HW244727   8.817   6.815   4.039 -2.0098 -1.2268 -0.1874
14426SOL     OW44728   1.797   5.457   2.028 -0.9963  0.1493 -0.4202
14426SOL    HW144729   1.882   5.445   1.984  0.1638  2.1522  1.1207
14426SOL    HW244730   1.750   5.519   1.972 -1.1984 -0.4234 -0.9046
14427SOL     OW44731   7.110   8.626   0.078  0.3634 -0.2244  1.2890
14427SOL    HW144732   7.153   8.706   0.107  0.0380  0.7262 -0.7189
14427SOL    HW244733   7.181   8.567   0.054  0.6709  0.9529 -0.9993
14428SOL     OW44734   6.010   7.011   2.503 -0.0089 -0.1490 -0.3527
14428SOL    HW144735   5.984   6.965   2.424 -0.4149  0.6398 -0.6976
14428SOL    HW244736   6.102   6.989   2.516  0.2286  0.1842 -1.3873
14429SOL     OW44737   1.357   4.052   2.481 -0.0781  0.1824  0.0391
14429SOL    HW144738   1.319   3.975   2.439  0.6429 -0.3233  0.3092
14429SOL    HW244739   1.346   4.122   2.417  0.8269 -0.5345 -0.9134
14430SOL     OW44740   7.431   5.800   8.897  0.2353  0.4825 -0.5101
14430SOL    HW144741   7.481   5.718   8.904 -0.3807  0.1200 -0.2475
14430SOL    HW244742   7.344   5.772   8.868  0.1274  1.0888 -0.7821
14431SOL     OW44743   5.977   8.616   0.351 -0.3602 -0.7496  0.1081
14431SOL    HW144744   5.931   8.620   0.435  0.3051 -3.2624  0.6552
14431SOL    HW244745   5.970   8.524   0.324  0.4510 -0.2420 -2.0300
14432SOL     OW44746   7.624   7.036   5.088 -0.3242  0.1954  0.3303
14432SOL    HW144747   7.562   7.003   5.024 -1.0534  0.2832  0.9822
14432SOL    HW244748   7.584   7.018   5.173  0.1334  1.0313  0.7412
14433SOL     OW44749   5.578   7.883   4.027 -0.1045  0.9798  0.1522
14433SOL    HW144750   5.521   7.860   3.954  0.6335  2.3294 -0.8902
14433SOL    HW244751   5.615   7.968   4.003  1.8163  0.4558  1.1117
14434SOL     OW44752   3.618   5.289   1.372  0.0498  0.3634  0.8385
14434SOL    HW144753   3.650   5.276   1.282  0.1591  0.8449  0.8044
14434SOL    HW244754   3.592   5.201   1.401  1.2649 -0.0156  0.8188
14435SOL     OW44755   0.338   4.661   1.402 -0.2273  0.0600  0.0630
14435SOL    HW144756   0.306   4.624   1.320 -0.6702  1.7523 -0.5652
14435SOL    HW244757   0.408   4.721   1.376  0.2336 -0.0478  1.0153
14436SOL     OW44758   7.136   7.291   6.931  0.7398 -0.3236 -0.0031
14436SOL    HW144759   7.199   7.294   7.002 -0.0709  1.0309  0.7080
14436SOL    HW244760   7.187   7.311   6.852  1.1914  0.9865  0.5901
14437SOL     OW44761   0.719   3.719   5.633 -0.3560  0.2525  0.3185
14437SOL    HW144762   0.668   3.736   5.713  1.8561 -1.8210  2.3489
14437SOL    HW244763   0.756   3.804   5.610 -1.9202  1.1121  0.8131
14438SOL     OW44764   0.553   5.045   4.580  0.4094  0.2873  0.6605
14438SOL    HW144765   0.552   5.030   4.485  1.2191  0.7904  0.5680
14438SOL    HW244766   0.553   4.957   4.618  1.1395  0.0714  0.1800
14439SOL     OW44767   8.964   3.264   3.628  0.6896 -0.7987 -0.2487
14439SOL    HW144768   8.970   3.277   3.723 -1.0930 -1.8501  0.0551
14439SOL    HW244769   8.910   3.336   3.597  1.6857 -0.1702 -0.5664
14440SOL     OW44770   5.538   4.320   7.539 -0.3985  0.1220 -0.5886
14440SOL    HW144771   5.570   4.288   7.454  0.9716  0.3020 -0.1729
14440SOL    HW244772   5.603   4.288   7.602 -0.9409  0.7033  0.2845
14441SOL     OW44773   6.349   5.293   4.114 -0.1495 -0.3939 -0.3177
14441SOL    HW144774   6.254   5.296   4.128 -0.0728 -1.0482  0.4476
14441SOL    HW244775   6.374   5.385   4.103 -0.7621 -0.1287  0.3598
14442SOL     OW44776   8.049   0.652   8.262  0.9107 -0.4026  0.2632
14442SOL    HW144777   8.040   0.663   8.168  0.7509  0.5756  0.3850
14442SOL    HW244778   7.960   0.635   8.293  0.8198  0.2017  0.3457
14443SOL     OW44779   2.214   8.404   9.097  0.0735 -0.1033  0.2979
14443SOL    HW144780   2.301   8.391   9.134  1.6248  1.1218 -2.6416
14443SOL    HW244781   2.171   8.319   9.107  3.1061 -2.0622 -1.6988
14444SOL     OW44782   2.155   2.437   8.993  0.2208  0.1184  0.5351
14444SOL    HW144783   2.101   2.489   8.933  0.0988 -0.2766  0.3008
14444SOL    HW244784   2.228   2.406   8.940  0.2952  0.0523  0.6744
14445SOL     OW44785   6.091   2.795   7.827  0.2241  1.0763 -0.2240
14445SOL    HW144786   6.003   2.782   7.792  1.0516  1.1923 -2.5736
14445SOL    HW244787   6.078   2.830   7.915 -2.0485  0.0922 -0.1148
14446SOL     OW44788   8.543   7.397   1.615  0.4253  0.1333  0.5340
14446SOL    HW144789   8.593   7.319   1.639 -0.7256 -1.2623 -1.3516
14446SOL    HW244790   8.452   7.371   1.627  0.0270  1.2024 -0.0658
14447SOL     OW44791   6.205   8.158   8.196 -0.2338 -0.5855  0.4192
14447SOL    HW144792   6.201   8.250   8.170  0.3052 -0.8033 -0.4732
14447SOL    HW244793   6.197   8.109   8.114  0.0829 -1.3218  0.8140
14448SOL     OW44794   4.320   1.186   6.621  0.2653  0.1295 -0.1948
14448SOL    HW144795   4.286   1.265   6.665  1.6587  0.0473  1.1068
14448SOL    HW244796   4.404   1.213   6.585  1.7563 -1.2061  2.0210
14449SOL     OW44797   3.235   4.714   1.970 -0.0378 -0.1999  0.4554
14449SOL    HW144798   3.213   4.807   1.970  0.6873 -0.0058 -1.0133
14449SOL    HW244799   3.244   4.692   2.063 -0.5946  1.0939  0.8423
14450SOL     OW44800   2.067   5.307   3.982 -0.0935  0.2672 -0.4869
14450SOL    HW144801   2.095   5.392   4.016 -1.1982 -0.0682  1.4636
14450SOL    HW244802   1.972   5.317   3.970 -0.3368 -0.8464  0.3732
14451SOL     OW44803   0.099   1.452   0.847 -0.1488 -0.0095 -0.7637
14451SOL    HW144804   0.035   1.486   0.784  0.0435  1.1545 -0.3433
14451SOL    HW244805   0.182   1.452   0.799 -0.0445  0.6607 -0.5889
14452SOL     OW44806   2.658   0.556   3.467 -0.3400 -0.1158  0.4746
14452SOL    HW144807   2.642   0.474   3.421  0.8650  0.0987 -0.3934
14452SOL    HW244808   2.652   0.623   3.400 -1.7451  0.5771  1.2562
14453SOL     OW44809   6.140   6.360   5.564 -0.0035 -0.0531  0.5054
14453SOL    HW144810   6.047   6.342   5.551  0.2677  0.0613 -2.0925
14453SOL    HW244811   6.162   6.311   5.643 -1.8125 -1.8595 -0.0063
14454SOL     OW44812   1.274   8.656   7.116  0.0230 -0.0505 -0.4714
14454SOL    HW144813   1.195   8.603   7.129  0.3848 -0.2683  1.0516
14454SOL    HW244814   1.260   8.733   7.170  1.2073 -0.5024  0.5101
14455SOL     OW44815   0.589   0.208   6.075  0.0166  0.2277  0.0915
14455SOL    HW144816   0.620   0.288   6.117 -0.0673  1.1458 -1.4916
14455SOL    HW244817   0.499   0.227   6.050  0.3436  0.0827 -1.2896
14456SOL     OW44818   6.618   5.813   8.015  0.1054 -0.3810 -0.0221
14456SOL    HW144819   6.599   5.902   8.045 -0.8821 -0.5661 -0.0580
14456SOL    HW244820   6.629   5.822   7.920 -0.5717 -0.3699 -0.1089
14457SOL     OW44821   0.387   5.329   3.336 -0.0374 -0.2852  0.0118
14457SOL    HW144822   0.319   5.389   3.369 -0.2380 -0.6072  0.1868
14457SOL    HW244823   0.442   5.384   3.280 -0.2138  0.0669  0.1805
14458SOL     OW44824   2.287   3.722   1.855 -0.4876  0.7826 -0.6645
14458SOL    HW144825   2.358   3.664   1.829 -0.9841 -1.8208  3.0149
14458SOL    HW244826   2.216   3.703   1.793 -0.1339 -1.5126 -0.4341
14459SOL     OW44827   2.604   0.182   4.953 -0.3718 -0.5498  0.3769
14459SOL    HW144828   2.663   0.120   4.909  0.4296  1.4864 -1.6280
14459SOL    HW244829   2.662   0.245   4.996 -1.0090  0.9420 -0.8291
14460SOL     OW44830   4.470   4.534   1.422 -0.4092  0.0835  0.4414
14460SOL    HW144831   4.405   4.465   1.437 -0.2297 -0.2106 -0.1114
14460SOL    HW244832   4.554   4.493   1.444 -0.2233 -0.1131 -0.5853
14461SOL     OW44833   4.427   4.153   1.174 -0.3462 -0.5820 -0.4700
14461SOL    HW144834   4.491   4.198   1.119 -0.8095 -0.7357 -1.1480
14461SOL    HW244835   4.377   4.099   1.113  1.0142 -3.0508  0.4584
14462SOL     OW44836   3.594   1.044   1.756 -0.3590 -0.1162 -0.0786
14462SOL    HW144837   3.565   1.135   1.749 -0.4168 -0.0606  0.7954
14462SOL    HW244838   3.618   1.034   1.848  0.6876 -0.6779 -0.3957
14463SOL     OW44839   5.486   6.753   2.884 -0.0241  0.0772  0.7084
14463SOL    HW144840   5.394   6.757   2.910 -0.6152 -0.5328 -1.0970
14463SOL    HW244841   5.510   6.843   2.863 -0.8172  0.0081 -0.6094
14464SOL     OW44842   3.309   1.575   2.002 -0.2082  0.4687 -0.0018
14464SOL    HW144843   3.391   1.527   1.988 -0.5018  0.0408 -0.2802
14464SOL    HW244844   3.297   1.625   1.921 -0.2025  0.5610  0.0545
14465SOL     OW44845   8.184   6.028   8.197  0.2179  0.1045  0.6269
14465SOL    HW144846   8.161   6.097   8.135  0.4901 -1.2049 -0.9941
14465SOL    HW244847   8.119   5.960   8.181  3.0422 -2.3100 -1.7570
14466SOL     OW44848   2.746   8.467   6.679 -0.1431 -0.2746  0.5627
14466SOL    HW144849   2.739   8.392   6.739 -0.3177  0.9455  2.1197
14466SOL    HW244850   2.666   8.517   6.694  0.1376  0.4213 -0.2028
14467SOL     OW44851   6.555   8.397   3.284 -0.2460 -0.0317 -0.2193
14467SOL    HW144852   6.599   8.449   3.217  1.2116 -0.9863 -0.0577
14467SOL    HW244853   6.483   8.452   3.314  0.0239  1.0469 -1.4525
14468SOL     OW44854   6.927   5.657   0.998 -0.4206  0.2659 -0.0217
14468SOL    HW144855   6.949   5.596   1.068 -0.8350  1.2101  0.9733
14468SOL    HW244856   6.832   5.648   0.987 -0.4152  0.4028 -0.1926
14469SOL     OW44857   1.636   5.554   7.987  0.4087 -0.3392 -0.3249
14469SOL    HW144858   1.546   5.573   7.962  0.6269  0.6029 -0.4457
14469SOL    HW244859   1.680   5.535   7.903  0.1785 -1.5133 -0.2003
14470SOL     OW44860   6.907   8.559   9.166 -0.1976 -0.3657 -0.2251
14470SOL    HW144861   6.923   8.548   9.260  2.2918  1.8432 -0.2688
14470SOL    HW244862   6.991   8.537   9.125 -0.0388  2.2660 -1.5195
14471SOL     OW44863   2.958   4.759   8.553  0.3538 -0.3896  0.4137
14471SOL    HW144864   3.012   4.746   8.476 -0.8527  0.7520 -0.6788
14471SOL    HW244865   3.019   4.785   8.622  1.2076  0.9066 -0.7804
14472SOL     OW44866   7.123   7.519   0.025 -0.4587 -0.3769  0.0048
14472SOL    HW144867   7.132   7.443   0.082  1.2778 -0.1647  0.0706
14472SOL    HW244868   7.213   7.541  -0.001 -0.8429  1.9826  0.4321
14473SOL     OW44869   0.817   3.961   0.099 -0.0296  0.1053 -0.9103
14473SOL    HW144870   0.884   4.019   0.136 -1.1017  0.4505  0.5943
14473SOL    HW244871   0.826   3.972   0.004  3.2568 -1.2745 -0.8829
14474SOL     OW44872   8.389   0.796   8.795  0.0257 -0.6357 -0.3000
14474SOL    HW144873   8.445   0.719   8.803  0.7865 -0.0132  0.7189
14474SOL    HW244874   8.309   0.772   8.843 -0.7208 -1.6169 -1.9648
14475SOL     OW44875   3.129   5.295   8.704  0.6126  0.4895 -0.0584
14475SOL    HW144876   3.186   5.219   8.707  1.3547  1.0391  2.4207
14475SOL    HW244877   3.067   5.281   8.776  0.2116  1.8035 -0.1162
14476SOL     OW44878   6.326   7.144   5.251  0.3712 -0.0928  0.2632
14476SOL    HW144879   6.353   7.235   5.237  0.2573  0.0329  0.8555
14476SOL    HW244880   6.390   7.092   5.202  0.5022  0.2973  0.0163
14477SOL     OW44881   3.703   0.732   9.046  0.1074 -0.1073 -0.3414
14477SOL    HW144882   3.647   0.669   9.092  0.9865 -1.2160 -0.7320
14477SOL    HW244883   3.736   0.684   8.970  1.8971  0.3470  0.0924
14478SOL     OW44884   5.109   9.178   8.983  0.2192 -0.6700 -0.0656
14478SOL    HW144885   5.155   9.094   8.976 -0.5176 -1.5082  3.3068
14478SOL    HW244886   5.173   9.238   9.022  0.0471 -0.3288 -0.3009
14479SOL     OW44887   4.556   0.986   6.774 -0.2714 -0.0389 -0.0879
14479SOL    HW144888   4.621   1.048   6.808 -0.1131 -1.0537  1.6027
14479SOL    HW244889   4.587   0.964   6.686  0.1579  1.5732 -0.3565
14480SOL     OW44890   0.503   3.303   0.971 -0.2564  0.1505  0.2465
14480SOL    HW144891   0.507   3.398   0.971  0.4834  0.1309  0.5714
14480SOL    HW244892   0.552   3.277   1.049  0.5788 -0.5184 -0.4795
14481SOL     OW44893   4.904   0.377   0.621 -0.5673 -0.2450 -0.1780
14481SOL    HW144894   4.863   0.458   0.590 -1.0570  0.0672  1.2169
14481SOL    HW244895   4.881   0.373   0.713  2.5071 -0.0718  0.7188
14482SOL     OW44896   3.933   5.774   0.261 -0.4429 -0.1964  0.1240
14482SOL    HW144897   3.989   5.848   0.236  1.9085 -1.7244  0.5656
14482SOL    HW244898   3.910   5.732   0.178  0.8365 -0.7442  0.0270
14483SOL     OW44899   7.102   0.410   3.790  0.6551 -0.0544 -0.0302
14483SOL    HW144900   7.126   0.496   3.756  1.0966 -0.4349 -0.6995
14483SOL    HW244901   7.164   0.393   3.860  0.5623  0.1744  0.1076
14484SOL     OW44902   4.406   7.153   3.534  0.2036  0.3236  0.5321
14484SOL    HW144903   4.418   7.114   3.448 -1.7398  2.2949 -0.7367
14484SOL    HW244904   4.436   7.243   3.524 -1.4204  1.0114  1.4541
14485SOL     OW44905   2.509   6.173   0.423  0.2635  0.0592  0.0333
14485SOL    HW144906   2.444   6.134   0.482 -0.4723  0.3806 -0.5479
14485SOL    HW244907   2.469   6.168   0.336  1.4548 -0.6644 -0.5002
14486SOL     OW44908   0.668   6.637   3.074  0.1764  0.1642 -0.0695
14486SOL    HW144909   0.625   6.717   3.104  0.8222  0.3718  0.3181
14486SOL    HW244910   0.756   6.643   3.110 -0.7613 -2.4415  3.1347
14487SOL     OW44911   3.593   8.301   2.303  0.1691 -0.0282 -0.1230
14487SOL    HW144912   3.595   8.280   2.397  0.6084  2.0908  0.4151
14487SOL    HW244913   3.658   8.242   2.264  1.1847  0.1499  1.2024
14488SOL     OW44914   2.564   8.149   4.710 -0.2318 -0.2542 -0.3812
14488SOL    HW144915   2.554   8.205   4.787 -0.3731 -3.2812  2.0044
14488SOL    HW244916   2.475   8.122   4.687 -0.0081 -2.8435  1.3447
14489SOL     OW44917   5.538   0.553   0.028 -0.7697  0.6762  0.0174
14489SOL    HW144918   5.496   0.637   0.008 -0.4549  0.7191 -0.4713
14489SOL    HW244919   5.618   0.576   0.074 -0.9376  0.6197  0.3426
14490SOL     OW44920   0.935   8.272   2.525  0.1709  0.2452 -0.1016
14490SOL    HW144921   0.985   8.324   2.588 -0.9930  1.4994 -0.1507
14490SOL    HW244922   0.965   8.303   2.439 -1.5149  1.9904 -0.1548
14491SOL     OW44923   5.774   1.200   4.118 -0.1820 -0.6804 -0.7425
14491SOL    HW144924   5.795   1.129   4.058  0.6165 -1.2150  0.1512
14491SOL    HW244925   5.802   1.280   4.073 -2.2789 -0.7476 -2.3200
14492SOL     OW44926   5.363   1.703   3.170 -0.9711 -0.3126 -0.0144
14492SOL    HW144927   5.334   1.652   3.095 -0.4290 -2.1097  0.9505
14492SOL    HW244928   5.370   1.640   3.242  0.5458  0.9395  1.0249
14493SOL     OW44929   6.768   6.586   3.817  0.7236  0.0703  0.0951
14493SOL    HW144930   6.853   6.584   3.775 -0.2159 -1.6298 -1.9115
14493SOL    HW244931   6.748   6.494   3.836 -0.8958  0.3588 -0.0335
14494SOL     OW44932   2.610   7.928   1.636 -0.2614  0.2785 -0.0732
14494SOL    HW144933   2.699   7.927   1.670 -0.8155  0.0781  1.4391
14494SOL    HW244934   2.554   7.942   1.713 -1.5224  0.7786 -1.0256
14495SOL     OW44935   4.670   1.950   3.308  0.0344 -0.7850 -0.2424
14495SOL    HW144936   4.749   1.993   3.275 -1.3107  0.8222 -1.5161
14495SOL    HW244937   4.650   1.997   3.389 -0.3083 -0.3365 -0.5825
14496SOL     OW44938   4.178   2.046   0.962 -0.0643  0.5026  0.0160
14496SOL    HW144939   4.108   2.077   1.019  0.2848 -1.5113  1.6414
14496SOL    HW244940   4.210   2.125   0.917 -1.4356  1.8856  1.3705
14497SOL     OW44941   4.320   3.642   0.629 -0.3451  0.2553 -0.0544
14497SOL    HW144942   4.359   3.616   0.712 -0.2875 -0.9281 -0.4409
14497SOL    HW244943   4.337   3.736   0.622 -0.2996  0.3477  1.2378
14498SOL     OW44944   5.641   5.587   2.494  0.1556  0.6283 -0.4045
14498SOL    HW144945   5.585   5.638   2.554 -0.6264  1.3518 -1.7030
14498SOL    HW244946   5.584   5.517   2.462  0.7653 -0.1505  0.1773
14499SOL     OW44947   5.415   4.597   5.371  0.4842  0.0146  0.0489
14499SOL    HW144948   5.331   4.570   5.406  1.5571 -0.7501  2.2145
14499SOL    HW244949   5.469   4.517   5.373  1.6324  0.7585 -0.0963
14500SOL     OW44950   0.402   0.286   5.270 -0.1342  1.0271 -0.0819
14500SOL    HW144951   0.322   0.306   5.318 -1.2661 -0.3107 -1.3248
14500SOL    HW244952   0.445   0.218   5.322 -1.6027 -0.7800 -1.1224
14501SOL     OW44953   3.864   4.505   5.565  0.2817  0.0102 -0.4432
14501SOL    HW144954   3.789   4.450   5.542 -0.2568  0.6354 -0.1958
14501SOL    HW244955   3.883   4.483   5.656 -0.0572  0.3765 -0.2843
14502SOL     OW44956   3.549   9.134   4.135 -0.1832 -0.0320  0.4344
14502SOL    HW144957   3.539   9.083   4.215  0.4567 -0.8410  0.0147
14502SOL    HW244958   3.551   9.225   4.165  0.6190 -0.3480  1.4095
14503SOL     OW44959   7.789   3.758   0.745  0.1407 -0.0829 -0.0287
14503SOL    HW144960   7.696   3.756   0.769 -0.0730  1.6551 -0.5588
14503SOL    HW244961   7.797   3.695   0.674 -0.5712 -0.4901  0.2430
14504SOL     OW44962   4.953   3.777   2.383 -0.4251 -0.3560  0.4486
14504SOL    HW144963   4.904   3.860   2.387 -2.1722 -1.3386  0.7802
14504SOL    HW244964   4.984   3.771   2.292 -0.8136  0.3764  0.2613
14505SOL     OW44965   2.471   6.492   8.137  0.1767  0.1337  0.5576
14505SOL    HW144966   2.528   6.470   8.064 -1.0611  0.3144 -0.4976
14505SOL    HW244967   2.446   6.583   8.122 -0.5018  0.0124  0.9119
14506SOL     OW44968   0.775   0.111   1.639  0.9724 -0.0943  0.0519
14506SOL    HW144969   0.806   0.059   1.714 -0.0003 -3.3243 -1.6028
14506SOL    HW244970   0.692   0.070   1.615  2.6102 -1.2824 -4.6058
14507SOL     OW44971   9.072   6.364   0.146 -0.0058 -0.4970  0.0560
14507SOL    HW144972   9.162   6.335   0.158  0.7609  1.7733  0.2179
14507SOL    HW244973   9.055   6.422   0.221 -1.7229 -1.1445  0.2046
14508SOL     OW44974   4.740   1.763   8.983  0.0094  1.0112  0.4317
14508SOL    HW144975   4.773   1.827   8.920  0.4565 -0.3703 -0.8027
14508SOL    HW244976   4.725   1.813   9.063 -0.6835  2.8491 -0.7853
14509SOL     OW44977   1.957   7.711   7.048 -0.0401  0.3166 -0.4157
14509SOL    HW144978   1.887   7.712   6.983  0.5253  3.2352 -1.1068
14509SOL    HW244979   2.038   7.705   6.996  0.3636  1.1389  0.0992
14510SOL     OW44980   4.899   5.218   2.126 -0.6223  0.3706  0.0962
14510SOL    HW144981   4.929   5.308   2.113  1.2425 -0.6124 -3.5967
14510SOL    HW244982   4.946   5.189   2.204 -0.7224  2.2998  0.9506
14511SOL     OW44983   7.618   4.828   8.205  0.6034 -0.4837  0.3116
14511SOL    HW144984   7.539   4.779   8.227 -0.2663  0.6865 -0.0902
14511SOL    HW244985   7.630   4.814   8.111  0.4085 -0.0328  0.2146
14512SOL     OW44986   1.225   5.485   8.264 -0.3361 -0.3191  0.2573
14512SOL    HW144987   1.290   5.515   8.327  0.1810 -0.4603 -0.2041
14512SOL    HW244988   1.143   5.484   8.313  0.0778 -0.5192  0.9547
14513SOL     OW44989   7.903   4.415   5.722 -0.3250 -0.4542 -0.2682
14513SOL    HW144990   7.942   4.449   5.641 -0.6488 -0.0133 -0.2432
14513SOL    HW244991   7.895   4.320   5.707 -2.3549 -0.1228 -1.6240
14514SOL     OW44992   3.152   2.139   2.358  0.2515  0.0725 -0.4882
14514SOL    HW144993   3.156   2.196   2.281  0.5309 -1.6389 -1.8006
14514SOL    HW244994   3.201   2.185   2.425 -0.1558  1.6981 -1.2671
14515SOL     OW44995   9.123   5.325   2.764  0.3578  0.7286  0.2916
14515SOL    HW144996   9.212   5.300   2.738  0.9949 -1.4298  3.8552
14515SOL    HW244997   9.092   5.380   2.692  4.7151  2.0442 -0.8972
14516SOL     OW44998   1.279   0.779   0.190 -0.0202  0.5192 -0.4945
14516SOL    HW144999   1.282   0.845   0.121  0.7339  1.2276  0.1770
14516SOL    HW245000   1.360   0.794   0.240 -1.2193  1.0341  1.4267
14517SOL     OW45001   1.953   1.837   3.064  0.8449 -0.3529  0.6836
14517SOL    HW145002   1.929   1.786   2.987 -0.3591  0.2721  0.6256
14517SOL    HW245003   1.926   1.783   3.139  1.6638 -0.7868  0.6879
14518SOL     OW45004   8.990   1.253   7.334 -0.4497  0.0435 -0.1144
14518SOL    HW145005   9.064   1.276   7.277  0.5133 -1.5843  0.4112
14518SOL    HW245006   8.913   1.258   7.277  0.2285  0.4159 -1.0227
14519SOL     OW45007   4.190   7.154   7.257  0.3643 -0.5549  0.6486
14519SOL    HW145008   4.228   7.096   7.324  0.0718  1.0282  2.2513
14519SOL    HW245009   4.128   7.209   7.305  0.5073  0.9776 -0.8373
14520SOL     OW45010   3.779   0.577   8.847 -0.4464  0.3565 -0.4837
14520SOL    HW145011   3.873   0.589   8.854 -0.4692  0.2877 -0.0165
14520SOL    HW245012   3.767   0.487   8.817 -0.3985 -0.2355  1.1873
14521SOL     OW45013   5.408   0.783   2.016 -0.3313 -0.2544 -0.4525
14521SOL    HW145014   5.343   0.796   1.947 -1.9025  0.4580  1.0483
14521SOL    HW245015   5.361   0.733   2.083  1.0739 -0.7695  0.1920
14522SOL     OW45016   6.228   6.627   0.966  0.2673  0.0753 -0.1062
14522SOL    HW145017   6.288   6.676   0.910  1.9208 -0.9183  0.7496
14522SOL    HW245018   6.233   6.537   0.933 -3.1327  0.3991 -2.0097
14523SOL     OW45019   6.568   8.295   8.114 -0.0924 -0.2010  0.7357
14523SOL    HW145020   6.619   8.368   8.149  0.5738  1.0705 -2.5544
14523SOL    HW245021   6.489   8.336   8.079  0.3470 -0.9823 -1.2910
14524SOL     OW45022   0.725   6.455   1.037  0.4293  0.3247  0.4219
14524SOL    HW145023   0.741   6.436   0.945  0.4626 -0.3391  0.5646
14524SOL    HW245024   0.684   6.542   1.036 -0.7065 -0.1953 -0.2998
14525SOL     OW45025   4.424   0.039   2.228  0.7123 -0.3516  0.3344
14525SOL    HW145026   4.419  -0.025   2.157 -0.5657 -1.3930  1.3003
14525SOL    HW245027   4.373   0.114   2.197  2.9164  0.6275 -1.1516
14526SOL     OW45028   5.963   8.005   6.611  0.2718 -0.6037  0.2432
14526SOL    HW145029   5.996   8.005   6.701  3.8161  0.9109 -0.8669
14526SOL    HW245030   5.987   8.091   6.576  0.0840 -1.5443 -2.4852
14527SOL     OW45031   7.157   7.978   8.668  0.1266 -0.1750  0.2424
14527SOL    HW145032   7.142   8.050   8.606 -1.2840 -0.3131  0.3815
14527SOL    HW245033   7.101   7.999   8.742  0.4047 -0.9549  0.6812
14528SOL     OW45034   4.277   5.919   0.023  0.1633 -0.1949  0.4657
14528SOL    HW145035   4.235   5.889  -0.057 -0.6573  0.1079  0.7741
14528SOL    HW245036   4.264   5.848   0.085  0.4972 -0.2824  0.4405
14529SOL     OW45037   8.314   0.782   8.080  0.0295 -0.2553 -0.2863
14529SOL    HW145038   8.343   0.726   8.007  2.6333  0.5713  0.0172
14529SOL    HW245039   8.311   0.722   8.155 -0.6032 -0.6797 -0.6391
14530SOL     OW45040   7.849   2.193   2.919  0.3323 -0.2015  0.4609
14530SOL    HW145041   7.846   2.210   2.825 -0.0655 -0.5058  0.4174
14530SOL    HW245042   7.759   2.205   2.949  0.8296  2.2172  1.2283
14531SOL     OW45043   8.254   6.044   7.443  0.5910 -0.0143  0.3790
14531SOL    HW145044   8.277   6.104   7.371  1.4052  0.8187  1.3054
14531SOL    HW245045   8.322   5.977   7.441  1.0432  0.4179  0.8136
14532SOL     OW45046   1.180   8.310   7.660 -0.1619  0.1982 -0.3644
14532SOL    HW145047   1.093   8.285   7.692  0.0991  0.9318  1.0034
14532SOL    HW245048   1.164   8.388   7.607 -0.4301 -0.1371 -0.7800
14533SOL     OW45049   7.726   7.378   0.581  0.1432 -0.8252  0.5187
14533SOL    HW145050   7.639   7.366   0.619 -0.3782 -1.1822 -0.7454
14533SOL    HW245051   7.732   7.311   0.513  0.7194  0.3139 -0.6000
14534SOL     OW45052   1.168   0.570   6.346  0.5543  0.2038 -0.2060
14534SOL    HW145053   1.230   0.559   6.274  1.5804  1.1374  0.5007
14534SOL    HW245054   1.128   0.656   6.330  1.5855  0.9304  0.8693
14535SOL     OW45055   0.365   4.960   5.006 -0.0255 -0.3003 -0.6332
14535SOL    HW145056   0.305   4.933   5.076 -2.0997  0.9500 -1.8171
14535SOL    HW245057   0.439   5.000   5.052 -1.0271 -0.0833  0.8645
14536SOL     OW45058   4.961   0.864   1.933 -0.1264  1.0146  0.1109
14536SOL    HW145059   4.896   0.912   1.882 -0.6347 -0.3764 -0.6146
14536SOL    HW245060   4.913   0.834   2.011 -0.2564  0.3218 -0.2316
14537SOL     OW45061   8.855   2.362   7.618  0.1807 -0.0899 -0.4174
14537SOL    HW145062   8.946   2.381   7.640 -0.1684  1.1355  0.0402
14537SOL    HW245063   8.857   2.341   7.524  0.7486  1.3845 -0.7677
14538SOL     OW45064   3.754   2.282   5.199 -0.4968  0.0428 -0.2934
14538SOL    HW145065   3.704   2.363   5.205 -0.0697  0.1924  1.9800
14538SOL    HW245066   3.809   2.294   5.122 -1.3077  1.3963 -0.6938
14539SOL     OW45067   2.241   0.700   8.990 -0.1613  0.0904  0.4742
14539SOL    HW145068   2.191   0.692   9.072  0.3153 -1.0243  0.6751
14539SOL    HW245069   2.318   0.751   9.014  1.1927 -2.2134  1.3435
14540SOL     OW45070   1.355   5.816   1.215 -0.0418 -0.2095 -0.2872
14540SOL    HW145071   1.400   5.853   1.291  1.4824 -1.2694 -0.6182
14540SOL    HW245072   1.425   5.797   1.152 -0.8683 -2.2327 -0.6929
14541SOL     OW45073   5.719   2.978   6.088  0.3845 -0.4297 -0.1558
14541SOL    HW145074   5.787   2.981   6.156  1.5329 -0.1725 -1.2675
14541SOL    HW245075   5.655   3.044   6.115  0.8451 -0.2954  0.6456
14542SOL     OW45076   4.774   5.219   1.600  0.6848  0.3844 -0.0388
14542SOL    HW145077   4.796   5.262   1.682  0.1458  0.1643  0.2270
14542SOL    HW245078   4.705   5.156   1.623  1.2142 -0.3727 -0.4793
14543SOL     OW45079   3.326   5.151   5.928 -0.2660  0.7103  0.3126
14543SOL    HW145080   3.331   5.091   5.854 -0.0671  0.6181  0.3977
14543SOL    HW245081   3.309   5.094   6.003  1.7772  0.5193  0.6901
14544SOL     OW45082   0.023   0.395   4.053  0.1224 -0.4075  0.1902
14544SOL    HW145083   0.018   0.480   4.096  0.3005 -0.5330  0.4707
14544SOL    HW245084   0.101   0.354   4.092 -0.6700 -1.2012  0.9954
14545SOL     OW45085   1.845   2.226   5.616 -0.0292  0.1792 -0.2259
14545SOL    HW145086   1.858   2.299   5.677  0.0438 -0.1337  0.1404
14545SOL    HW245087   1.918   2.234   5.554 -1.0102  1.4688 -1.2754
14546SOL     OW45088   5.924   8.328   1.573  0.2299  0.3826  0.2938
14546SOL    HW145089   5.991   8.392   1.549  0.5549 -0.1275 -0.1876
14546SOL    HW245090   5.867   8.323   1.497  0.5440 -0.3270  0.0963
14547SOL     OW45091   4.424   8.131   5.787  0.2427 -0.1895 -0.4295
14547SOL    HW145092   4.492   8.184   5.744  0.0017  0.1251 -0.4296
14547SOL    HW245093   4.342   8.168   5.755  0.0640 -1.4132 -1.4660
14548SOL     OW45094   8.089   3.097   5.905 -0.5287 -0.5665 -0.2225
14548SOL    HW145095   8.070   3.163   5.972 -0.5471  0.8249 -1.5577
14548SOL    HW245096   8.023   3.111   5.837  1.7344  0.6628 -2.3281
14549SOL     OW45097   0.380   4.148   0.353  0.0298  0.3173 -0.2400
14549SOL    HW145098   0.370   4.228   0.302 -0.6310 -1.0021 -2.3035
14549SOL    HW245099   0.474   4.132   0.355  0.1444  0.9899 -0.0435
14550SOL     OW45100   5.877   7.985   4.677  0.6465  0.1431  0.2061
14550SOL    HW145101   5.823   8.061   4.695  0.0377  0.0654 -1.1317
14550SOL    HW245102   5.922   8.006   4.595 -0.1978 -1.2379 -0.6686
14551SOL     OW45103   6.547   2.901   3.742 -0.8116 -0.0062  0.0233
14551SOL    HW145104   6.502   2.883   3.660 -0.2271  0.4781 -0.4142
14551SOL    HW245105   6.628   2.851   3.736  0.3855  1.9253 -0.7940
14552SOL     OW45106   7.850   7.443   5.611  0.6164  0.5162  0.1798
14552SOL    HW145107   7.924   7.449   5.551  1.1426  0.6349  0.8311
14552SOL    HW245108   7.850   7.353   5.642  1.3352  0.8640  1.2300
14553SOL     OW45109   0.520   3.345   2.006 -0.4802  0.2022  0.5023
14553SOL    HW145110   0.607   3.368   2.037 -0.6405  1.6134 -0.0481
14553SOL    HW245111   0.461   3.400   2.057 -1.0111 -0.2051  0.3400
14554SOL     OW45112   5.340   3.466   6.180  0.0947  0.3926 -0.0100
14554SOL    HW145113   5.338   3.561   6.170  0.9381  0.6733  2.0852
14554SOL    HW245114   5.248   3.440   6.176 -0.2410  1.4348  0.5776
14555SOL     OW45115   7.547   3.262   6.911  0.2644 -0.2904 -0.1155
14555SOL    HW145116   7.593   3.278   6.829 -0.6552  1.0355 -0.4019
14555SOL    HW245117   7.514   3.348   6.937 -0.4495 -0.8944  1.0366
14556SOL     OW45118   3.009   7.448   7.878 -0.1104  0.8998  0.1005
14556SOL    HW145119   2.919   7.428   7.904 -0.2801 -0.3522 -1.2899
14556SOL    HW245120   3.051   7.362   7.871  0.8709  1.4028 -0.3999
14557SOL     OW45121   1.597   7.084   7.479 -0.1278 -0.1177  0.1606
14557SOL    HW145122   1.659   7.014   7.459  0.8385  0.7648 -0.0365
14557SOL    HW245123   1.639   7.134   7.549 -1.0013  0.0257  0.6037
14558SOL     OW45124   7.533   8.045   0.427 -0.3223 -0.5114  0.8151
14558SOL    HW145125   7.584   8.119   0.460  0.4686 -0.8454  0.3752
14558SOL    HW245126   7.534   7.982   0.499 -0.1362 -0.5063  0.8170
14559SOL     OW45127   2.946   3.955   9.062  0.3276  0.0897  0.2542
14559SOL    HW145128   2.930   3.971   8.969 -0.1781 -2.1563 -0.1018
14559SOL    HW245129   2.903   4.028   9.106  0.8148  1.3556 -1.2513
14560SOL     OW45130   3.914   5.130   0.632  0.4996 -0.1560 -0.7965
14560SOL    HW145131   3.916   5.186   0.555 -2.9278  0.6862 -0.4217
14560SOL    HW245132   3.826   5.140   0.668  2.0285  0.0146  3.6426
14561SOL     OW45133   3.894   1.946   0.928  0.3967 -0.3266  0.0390
14561SOL    HW145134   3.838   1.976   0.857 -0.0947 -0.8599  0.1916
14561SOL    HW245135   3.856   1.984   1.007  1.7004  1.3517 -0.0819
14562SOL     OW45136   1.775   0.472   6.873 -0.0081 -0.0786 -0.5128
14562SOL    HW145137   1.793   0.550   6.820  0.9084 -1.4227 -2.2718
14562SOL    HW245138   1.852   0.464   6.930 -1.4920  2.0166  2.0032
14563SOL     OW45139   6.243   0.526   6.877 -0.2309  0.0460  0.3971
14563SOL    HW145140   6.242   0.467   6.802  0.9324  0.4738  0.0217
14563SOL    HW245141   6.154   0.523   6.911 -0.5283 -0.8915 -0.4188
14564SOL     OW45142   0.538   4.945   2.611  0.0810 -0.7743 -0.0313
14564SOL    HW145143   0.460   4.896   2.633  0.5156 -0.8963  1.3050
14564SOL    HW245144   0.606   4.879   2.598  0.1900 -0.6247 -0.2475
14565SOL     OW45145   7.929   4.151   6.575  0.0333  0.6984 -0.5118
14565SOL    HW145146   7.991   4.080   6.561  0.6075  1.0922 -0.0271
14565SOL    HW245147   7.983   4.230   6.579 -0.5218  1.0766 -0.3265
14566SOL     OW45148   4.830   1.653   5.533 -0.1038  0.1544  0.4607
14566SOL    HW145149   4.802   1.571   5.491  2.0025 -1.0304  1.2042
14566SOL    HW245150   4.912   1.675   5.490 -0.3288  1.5450  0.7175
14567SOL     OW45151   3.063   7.611   6.584 -0.4534 -0.4448 -0.2181
14567SOL    HW145152   3.038   7.604   6.676 -1.3502  0.5014 -0.3694
14567SOL    HW245153   3.157   7.594   6.584 -0.6458 -1.6610  0.7032
14568SOL     OW45154   6.456   2.776   8.194  1.0847  0.1809  0.1181
14568SOL    HW145155   6.398   2.708   8.226  1.1290 -1.0664 -2.2587
14568SOL    HW245156   6.419   2.802   8.110  1.3030  2.8547  0.7403
14569SOL     OW45157   6.358   4.445   5.622  0.0949  0.4293  0.9045
14569SOL    HW145158   6.325   4.371   5.570  1.1605  0.7715 -0.3095
14569SOL    HW245159   6.433   4.409   5.669  0.1641  0.5511  0.8871
14570SOL     OW45160   5.376   3.043   5.802  0.2938 -0.7539 -0.1455
14570SOL    HW145161   5.371   3.075   5.712  0.0561  1.5372  0.6104
14570SOL    HW245162   5.463   3.070   5.832 -0.4808  0.5630  0.9913
14571SOL     OW45163   3.913   5.579   8.137  0.0711 -0.4024 -0.0530
14571SOL    HW145164   3.997   5.604   8.176  0.9443 -1.6194 -1.0623
14571SOL    HW245165   3.886   5.656   8.087  0.0989  0.3290  1.0263
14572SOL     OW45166   2.700   1.763   0.856  0.0235  0.1935 -0.2169
14572SOL    HW145167   2.705   1.858   0.840  2.0223  0.1572 -0.0083
14572SOL    HW245168   2.749   1.750   0.937 -1.5182 -0.8740  0.6042
14573SOL     OW45169   8.983   1.319   0.238 -0.0652  0.2111  0.5179
14573SOL    HW145170   8.999   1.406   0.202 -1.5271  0.1124 -0.4760
14573SOL    HW245171   9.066   1.293   0.277  0.5843  1.7673  0.2262
14574SOL     OW45172   7.746   5.497   7.505 -0.2732  0.1244 -0.4022
14574SOL    HW145173   7.806   5.569   7.489 -1.5345  1.4337  0.5053
14574SOL    HW245174   7.711   5.474   7.419 -0.3060  1.0183 -0.6300
14575SOL     OW45175   2.159   6.919   1.036 -0.3422  0.3537 -0.0929
14575SOL    HW145176   2.200   6.986   0.981 -0.4721  0.9145  0.4831
14575SOL    HW245177   2.210   6.840   1.019 -0.4828  0.4744 -1.1424
14576SOL     OW45178   9.027   0.757   2.569  0.2352 -0.1032 -0.4082
14576SOL    HW145179   8.980   0.830   2.529 -0.1641 -0.6141 -0.8836
14576SOL    HW245180   9.063   0.708   2.495  0.2824 -0.5359 -0.1047
14577SOL     OW45181   7.648   2.689   4.216  0.5158  0.4606  0.1123
14577SOL    HW145182   7.639   2.652   4.304 -1.3328 -3.8622 -1.5972
14577SOL    HW245183   7.718   2.638   4.176  1.2989  2.3244 -1.0157
14578SOL     OW45184   4.822   2.099   1.048 -0.0796  0.4242 -0.3209
14578SOL    HW145185   4.844   2.174   1.102  3.8357  0.0344 -1.0733
14578SOL    HW245186   4.812   2.027   1.111  0.4649  0.7415  0.1431
14579SOL     OW45187   6.815   2.237   1.070  0.1586  0.1507  0.2532
14579SOL    HW145188   6.887   2.205   1.017  0.6224 -0.3590  1.1718
14579SOL    HW245189   6.845   2.321   1.104  0.3457 -0.0832  0.6736
14580SOL     OW45190   2.062   2.638   2.131  0.1774 -0.4053  0.0210
14580SOL    HW145191   2.031   2.695   2.061  1.5346  2.4509  1.5852
14580SOL    HW245192   2.150   2.669   2.151 -0.0543 -1.2399  2.8232
14581SOL     OW45193   8.869   8.231   1.794 -0.4819  0.1728  0.3403
14581SOL    HW145194   8.876   8.141   1.761 -1.4294 -0.2835  1.3248
14581SOL    HW245195   8.952   8.272   1.768 -0.5358 -0.5972 -1.2088
14582SOL     OW45196   6.102   6.110   4.284  0.0334 -0.8267  0.0281
14582SOL    HW145197   6.143   6.041   4.337 -1.0850 -0.0708  1.9919
14582SOL    HW245198   6.154   6.188   4.304  1.2832 -1.0375 -2.1659
14583SOL     OW45199   3.464   5.220   2.775  0.1867 -0.0138  0.6552
14583SOL    HW145200   3.431   5.293   2.723 -0.9016 -0.3790  0.7966
14583SOL    HW245201   3.496   5.260   2.856  0.6813  0.4193  0.2510
14584SOL     OW45202   9.237   1.664   7.008  0.4217  0.0914 -0.3184
14584SOL    HW145203   9.299   1.591   7.008 -0.3727 -0.6879 -2.5273
14584SOL    HW245204   9.286   1.736   6.969  0.7977  0.3546  0.6227
14585SOL     OW45205   2.464   9.182   1.208 -0.0975 -0.0941 -1.0533
14585SOL    HW145206   2.369   9.176   1.200 -0.3031  2.1575 -0.8780
14585SOL    HW245207   2.480   9.190   1.302  0.1398  0.8467 -1.1637
14586SOL     OW45208   7.762   3.984   2.950  0.6982 -0.0249  0.1234
14586SOL    HW145209   7.724   3.929   2.881  1.7731 -0.9550  0.2403
14586SOL    HW245210   7.788   3.922   3.018  2.5345  0.5438 -0.0151
14587SOL     OW45211   0.285   3.892   2.636 -0.1633 -0.1985 -0.1976
14587SOL    HW145212   0.258   3.811   2.592 -0.2621 -0.1060 -0.3093
14587SOL    HW245213   0.252   3.962   2.580 -0.6602 -0.0747  0.2348
14588SOL     OW45214   7.397   1.150   8.523  0.0944  0.9306  0.4934
14588SOL    HW145215   7.450   1.089   8.573  0.7664  1.5052  0.4983
14588SOL    HW245216   7.452   1.228   8.515 -0.6923  1.4788  0.3673
14589SOL     OW45217   3.030   8.245   6.749  0.2076  0.3938  0.1758
14589SOL    HW145218   3.087   8.214   6.677  0.9163  0.6642  0.6070
14589SOL    HW245219   3.090   8.293   6.807  0.3391 -2.4913  2.6571
14590SOL     OW45220   4.213   5.461   3.724  0.3098 -0.0522  0.1491
14590SOL    HW145221   4.231   5.368   3.738 -0.2768 -0.4288 -1.4020
14590SOL    HW245222   4.130   5.462   3.675 -0.3812  1.3446  1.2723
14591SOL     OW45223   6.290   2.624   8.364 -0.2787 -0.2148  0.2688
14591SOL    HW145224   6.304   2.709   8.406  1.6364 -0.5941  0.4795
14591SOL    HW245225   6.295   2.560   8.435 -0.6811 -0.5881 -0.0274
14592SOL     OW45226   6.219   0.989   3.328 -0.0334 -0.2023 -0.7817
14592SOL    HW145227   6.217   0.935   3.407  1.9730 -0.5570 -0.9235
14592SOL    HW245228   6.265   1.068   3.355 -2.0054  1.0422 -0.8570
14593SOL     OW45229   4.824   0.101   7.030  0.0396  0.5506 -0.0602
14593SOL    HW145230   4.872   0.021   7.049 -0.2987  0.3458 -0.0685
14593SOL    HW245231   4.740   0.091   7.076 -0.3994  0.4663 -0.8698
14594SOL     OW45232   6.618   1.578   1.077  0.1155  0.2897  0.6792
14594SOL    HW145233   6.533   1.565   1.119  0.3434 -0.4793  0.9258
14594SOL    HW245234   6.615   1.668   1.044 -0.3808  0.6373  1.6253
14595SOL     OW45235   6.256   5.363   2.597  0.0749  0.1439  0.3194
14595SOL    HW145236   6.244   5.407   2.681 -0.6500  2.1268 -0.7488
14595SOL    HW245237   6.349   5.374   2.576  0.0574  0.4864  0.4251
14596SOL     OW45238   9.202   1.299   7.146 -0.1174 -0.1529 -0.2730
14596SOL    HW145239   9.176   1.339   7.063  0.1677  0.8600  0.1112
14596SOL    HW245240   9.250   1.220   7.121 -0.9599 -0.4405 -1.0407
14597SOL     OW45241   6.219   6.940   3.835  0.2164 -0.6115  0.4162
14597SOL    HW145242   6.192   7.022   3.877  0.4085 -0.3674  0.0670
14597SOL    HW245243   6.205   6.873   3.902  2.2000 -0.0197  1.5100
14598SOL     OW45244   6.947   1.493   6.625 -0.0862  0.1681  0.5718
14598SOL    HW145245   6.905   1.551   6.689  0.4275  0.5823  0.5367
14598SOL    HW245246   6.915   1.406   6.648 -1.2446  0.5096  0.3240
14599SOL     OW45247   6.043   1.616   3.991  0.1084 -0.0964  0.4993
14599SOL    HW145248   6.099   1.647   4.062 -0.8094 -0.7976  1.5586
14599SOL    HW245249   6.047   1.686   3.925  1.7186  0.1396  0.8144
14600SOL     OW45250   5.625   1.802   3.796  0.1800 -0.0450 -0.0909
14600SOL    HW145251   5.704   1.856   3.804 -0.0008  0.4091 -1.1027
14600SOL    HW245252   5.601   1.809   3.703  0.3258 -2.1514 -0.3243
14601SOL     OW45253   6.361   4.422   6.837 -0.0489 -0.3541 -0.5071
14601SOL    HW145254   6.273   4.450   6.811 -0.2936 -0.1999  0.4565
14601SOL    HW245255   6.366   4.442   6.931  0.5573 -1.5472 -0.2702
14602SOL     OW45256   5.620   6.991   4.595  0.3640  0.2413  0.6132
14602SOL    HW145257   5.527   6.969   4.596  0.6302 -1.1161 -0.7657
14602SOL    HW245258   5.625   7.078   4.634 -1.4139  0.1041  1.2092
14603SOL     OW45259   8.143   3.069   5.151 -0.0887 -0.0273  0.1134
14603SOL    HW145260   8.197   3.133   5.105  0.0686  0.6785  1.2457
14603SOL    HW245261   8.115   3.114   5.230  0.0450 -1.3742  0.9522
14604SOL     OW45262   4.563   4.309   5.499  0.0186 -0.0561  0.4227
14604SOL    HW145263   4.520   4.230   5.465  0.3157 -0.0637  0.0661
14604SOL    HW245264   4.527   4.318   5.588 -0.2838 -0.3914  0.3401
14605SOL     OW45265   0.282   1.419   4.994  0.6962 -0.1092 -0.2968
14605SOL    HW145266   0.372   1.449   5.011  0.1901  3.0788 -2.4130
14605SOL    HW245267   0.229   1.498   5.000 -1.6571 -1.5028 -1.3805
14606SOL     OW45268   4.072   2.724   2.612  0.2568 -0.4784  0.8122
14606SOL    HW145269   4.052   2.776   2.690 -0.2132  1.2898 -0.4373
14606SOL    HW245270   4.049   2.780   2.539  0.7369 -2.0782 -0.6331
14607SOL     OW45271   8.680   4.572   0.582  0.1876  0.0847 -0.2830
14607SOL    HW145272   8.593   4.601   0.610  0.4085 -1.4494  2.3479
14607SOL    HW245273   8.663   4.495   0.528 -0.1156  0.1687 -0.3093
14608SOL     OW45274   8.962   4.056   6.944 -0.5834 -0.1214 -0.5899
14608SOL    HW145275   9.055   4.038   6.936 -0.3056  1.4856 -1.1604
14608SOL    HW245276   8.955   4.117   7.017 -0.9699  1.1533 -1.6548
14609SOL     OW45277   6.617   7.084   6.206 -1.0375 -0.0936  0.6627
14609SOL    HW145278   6.601   7.081   6.111 -0.5212 -0.5773  0.5830
14609SOL    HW245279   6.666   7.003   6.224 -2.7185 -0.9483  1.6568
14610SOL     OW45280   4.607   5.556   6.692 -0.4099  0.3356 -0.1139
14610SOL    HW145281   4.630   5.599   6.774 -1.2096  0.7843 -0.1068
14610SOL    HW245282   4.579   5.628   6.635 -0.0936  0.0026 -0.6945
14611SOL     OW45283   0.450   1.076   2.039 -0.2055 -0.0029  0.0399
14611SOL    HW145284   0.525   1.081   1.979  0.7742  0.4031  1.2457
14611SOL    HW245285   0.442   0.982   2.059  0.3048  0.0042  0.2885
14612SOL     OW45286   6.216   3.360   1.386  0.0124 -0.0077  0.3058
14612SOL    HW145287   6.242   3.276   1.424 -2.7017 -1.9964 -1.8307
14612SOL    HW245288   6.278   3.372   1.313  0.5116 -0.0695  0.7124
14613SOL     OW45289   8.914   8.716   8.427 -0.1400  0.0745  0.4469
14613SOL    HW145290   8.876   8.671   8.351  1.5231 -2.5112  0.9830
14613SOL    HW245291   8.954   8.795   8.391 -0.3101 -0.5603 -1.2154
14614SOL     OW45292   7.309   0.185   9.067 -0.0537 -0.4416  0.1040
14614SOL    HW145293   7.246   0.198   8.996  0.3289  1.0631  0.0130
14614SOL    HW245294   7.381   0.136   9.027  0.7876  1.5547 -0.9544
14615SOL     OW45295   4.942   1.746   2.396  0.5606  0.8240 -0.0269
14615SOL    HW145296   5.023   1.696   2.386  0.2481  0.2758  0.1686
14615SOL    HW245297   4.914   1.765   2.307  1.2212  1.5444 -0.0951
14616SOL     OW45298   2.099   3.133   8.435 -0.3027 -0.2123  0.0003
14616SOL    HW145299   2.155   3.154   8.509 -1.6868  0.5841  0.8779
14616SOL    HW245300   2.146   3.165   8.358  1.9884 -2.6359  0.2533
14617SOL     OW45301   4.819   1.669   6.153  0.4883  0.1411  0.1311
14617SOL    HW145302   4.823   1.653   6.248  1.0967  1.0956  0.2780
14617SOL    HW245303   4.889   1.616   6.117  0.9647  0.6231  0.3417
14618SOL     OW45304   2.855   7.446   5.884  0.5464  0.1178  0.5156
14618SOL    HW145305   2.806   7.413   5.959  3.1099  0.4572  2.4921
14618SOL    HW245306   2.831   7.539   5.880  1.5528  0.4829  1.9984
14619SOL     OW45307   9.016   5.407   4.614  0.3461 -0.3715 -0.4850
14619SOL    HW145308   8.922   5.397   4.601 -0.1541 -0.0311  2.2609
14619SOL    HW245309   9.049   5.318   4.623  0.5105 -0.5457 -2.3370
14620SOL     OW45310   0.587   6.412   8.538 -0.2125 -0.0967  0.3026
14620SOL    HW145311   0.652   6.454   8.481  1.6633 -0.1962  2.2649
14620SOL    HW245312   0.598   6.319   8.522 -0.3787 -0.0894  0.1333
14621SOL     OW45313   7.718   0.232   5.493  0.2349  0.3329  0.4655
14621SOL    HW145314   7.631   0.214   5.459  0.3073 -0.1106  0.5004
14621SOL    HW245315   7.768   0.260   5.417  1.0929 -3.0932 -0.4308
14622SOL     OW45316   8.070   7.883   4.490 -0.1846  0.2697  0.1341
14622SOL    HW145317   8.126   7.924   4.424  0.9456 -0.0890  0.8392
14622SOL    HW245318   8.032   7.957   4.538 -0.9059  0.5313 -0.7932
14623SOL     OW45319   4.029   3.086   9.174  0.1027  0.5961 -0.4111
14623SOL    HW145320   3.954   3.122   9.222 -0.1998 -0.9896  0.3724
14623SOL    HW245321   3.991   3.021   9.115  0.8019  0.0329 -0.2650
14624SOL     OW45322   0.914   7.749   0.431 -0.3303 -0.0231  0.3791
14624SOL    HW145323   0.879   7.663   0.453  0.6701 -0.1781  1.5128
14624SOL    HW245324   0.847   7.811   0.460 -0.9441 -0.4015 -0.2116
14625SOL     OW45325   7.937   5.692   2.840  0.2154 -0.1506 -0.2094
14625SOL    HW145326   8.019   5.716   2.884  0.5126 -1.3011 -0.1017
14625SOL    HW245327   7.904   5.774   2.804  1.9926  0.1654 -1.2323
14626SOL     OW45328   4.885   7.354   8.820  0.5509  0.0877 -0.0260
14626SOL    HW145329   4.822   7.410   8.774 -0.3639 -1.7227 -1.1387
14626SOL    HW245330   4.969   7.376   8.781  0.6074  2.2408  1.1739
14627SOL     OW45331   4.575   6.918   1.418  0.1318 -0.1916 -0.8489
14627SOL    HW145332   4.522   6.996   1.403 -0.2391 -0.1468  0.5867
14627SOL    HW245333   4.525   6.866   1.480  0.9020 -1.0523 -0.9270
14628SOL     OW45334   3.231   3.469   3.211 -0.0472  0.4690 -0.1451
14628SOL    HW145335   3.266   3.497   3.295 -1.2958  0.5636  0.3604
14628SOL    HW245336   3.178   3.392   3.232 -0.4024  0.5190 -0.8459
14629SOL     OW45337   4.436   6.593   7.112  0.5637  0.6748 -0.1713
14629SOL    HW145338   4.415   6.507   7.076  0.1447  0.5124  0.4366
14629SOL    HW245339   4.529   6.605   7.093  1.1395 -0.7683  1.3824
14630SOL     OW45340   8.395   1.750   3.971  0.1599  0.0290 -0.7150
14630SOL    HW145341   8.467   1.689   3.956  0.9232  0.8558 -0.4921
14630SOL    HW245342   8.396   1.765   4.066 -0.8866 -0.6374 -0.5820
14631SOL     OW45343   5.401   2.578   9.048  0.2450  0.2965 -0.3119
14631SOL    HW145344   5.470   2.640   9.074  2.2263 -1.3435 -1.3751
14631SOL    HW245345   5.361   2.618   8.971 -0.3992  1.5224  0.6273
14632SOL     OW45346   5.341   7.447   5.146 -0.0613 -0.1165  0.3939
14632SOL    HW145347   5.394   7.526   5.133 -0.8086  0.6263  1.5525
14632SOL    HW245348   5.251   7.480   5.154 -0.4991 -1.1823  0.0324
14633SOL     OW45349   4.839   7.965   9.147  0.1487  0.5890  0.2937
14633SOL    HW145350   4.914   8.024   9.143  2.5141 -2.1972  0.5602
14633SOL    HW245351   4.793   7.979   9.064  0.7982  2.5053  0.2070
14634SOL     OW45352   4.263   5.413   0.747 -0.0106 -0.3007 -0.1136
14634SOL    HW145353   4.254   5.381   0.657 -1.9065  0.5920 -0.2884
14634SOL    HW245354   4.179   5.393   0.788 -0.4283  2.2453  0.4586
14635SOL     OW45355   5.854   0.286   3.515  0.4824 -0.3298 -0.1994
14635SOL    HW145356   5.771   0.331   3.526  1.3213  0.8979  1.6725
14635SOL    HW245357   5.907   0.345   3.461  0.4739 -0.6747 -0.5972
14636SOL     OW45358   4.895   4.970   2.292 -0.1825  0.1994  0.2461
14636SOL    HW145359   4.863   5.008   2.374 -0.0841  0.2440  0.2642
14636SOL    HW245360   4.858   5.027   2.224 -0.8463 -0.2470  0.2161
14637SOL     OW45361   7.280   1.285   0.381 -0.3338  0.3615  0.0540
14637SOL    HW145362   7.192   1.297   0.344 -0.8030 -0.2788  0.9360
14637SOL    HW245363   7.269   1.301   0.474  0.2926 -0.6603  0.3162
14638SOL     OW45364   6.125   8.332   5.575  0.1234  0.0874  0.2662
14638SOL    HW145365   6.095   8.344   5.485 -0.2222 -0.6301  0.2830
14638SOL    HW245366   6.072   8.260   5.610  0.9622 -0.3366  0.7104
14639SOL     OW45367   4.661   5.929   5.423 -0.6684 -0.0145  0.0499
14639SOL    HW145368   4.584   5.981   5.400 -0.2072  0.9336  0.6346
14639SOL    HW245369   4.695   5.969   5.502 -0.0872 -0.9942  0.3161
14640SOL     OW45370   3.430   6.806   7.443  0.6038  0.3629  0.0381
14640SOL    HW145371   3.398   6.834   7.358 -0.2196  0.3985  0.3448
14640SOL    HW245372   3.456   6.887   7.487 -1.6693  0.7115  0.8820
14641SOL     OW45373   5.489   7.678   7.154 -0.0719 -0.0013 -0.2063
14641SOL    HW145374   5.489   7.738   7.229  0.7754 -0.0189 -0.1888
14641SOL    HW245375   5.581   7.662   7.136 -0.2715 -0.1405 -1.1459
14642SOL     OW45376   0.313   5.217   7.205  0.5900  0.1949 -0.3157
14642SOL    HW145377   0.349   5.306   7.200  1.8685 -0.3555 -1.9172
14642SOL    HW245378   0.389   5.161   7.189 -0.7599 -1.0577 -2.9681
14643SOL     OW45379   5.885   3.008   2.435 -0.4453  0.3398  0.4041
14643SOL    HW145380   5.838   2.932   2.400 -3.4198  2.0111  0.3910
14643SOL    HW245381   5.842   3.025   2.520 -1.2917  3.0801 -0.4606
14644SOL     OW45382   4.806   3.903   5.616  0.0858  0.3693  0.1639
14644SOL    HW145383   4.793   3.940   5.703  0.4874  0.4224  0.2002
14644SOL    HW245384   4.725   3.924   5.569 -1.7537 -2.7889  1.5869
14645SOL     OW45385   7.239   5.945   6.488  0.2939 -0.1596  0.2945
14645SOL    HW145386   7.220   5.852   6.485  1.8896 -0.5223 -2.8322
14645SOL    HW245387   7.167   5.986   6.440  0.7371 -0.0776 -0.3159
14646SOL     OW45388   7.772   7.243   8.708  0.4787  0.0003  0.3367
14646SOL    HW145389   7.855   7.270   8.668  0.4360 -0.1118  0.1702
14646SOL    HW245390   7.796   7.217   8.797  0.8452 -1.2191 -0.0854
14647SOL     OW45391   1.002   8.083   8.107 -0.1651  0.1267 -0.9601
14647SOL    HW145392   1.040   8.162   8.069  2.8942 -1.6913 -2.1035
14647SOL    HW245393   0.967   8.035   8.031  0.5362 -0.8372 -0.6886
14648SOL     OW45394   3.867   5.759   2.854  0.1795  0.7052  0.2775
14648SOL    HW145395   3.817   5.677   2.858 -0.2327  0.8513 -1.1811
14648SOL    HW245396   3.800   5.827   2.843  0.6305  0.9212 -1.5359
14649SOL     OW45397   7.681   1.979   6.778  0.2956 -0.3830 -0.0246
14649SOL    HW145398   7.749   1.914   6.799  1.8265  0.4608 -1.9962
14649SOL    HW245399   7.618   1.931   6.725  0.0448 -0.8543  0.6868
14650SOL     OW45400   4.659   5.750   8.077 -0.6388  0.3329  0.0369
14650SOL    HW145401   4.616   5.725   8.159  0.2146  0.6647  0.6040
14650SOL    HW245402   4.692   5.838   8.094  0.0396  0.1777 -0.4639
14651SOL     OW45403   0.443   4.571   5.438 -0.7093  0.1459  0.3129
14651SOL    HW145404   0.357   4.530   5.446  0.3897 -2.4147  0.0383
14651SOL    HW245405   0.485   4.524   5.366  1.0766  1.0316  0.7178
14652SOL     OW45406   5.627   8.424   1.680  0.0217  0.1063 -0.0125
14652SOL    HW145407   5.707   8.434   1.629  0.2301 -0.9689  0.0758
14652SOL    HW245408   5.564   8.386   1.619 -0.2642  0.4603  0.0594
14653SOL     OW45409   6.255   3.450   2.526 -0.3317  0.3846 -0.4143
14653SOL    HW145410   6.227   3.536   2.493 -0.2990  1.2319  1.6041
14653SOL    HW245411   6.348   3.444   2.500  0.0347  1.5665  0.5331
14654SOL     OW45412   4.840   0.777   2.156 -0.7520  0.5452 -0.5962
14654SOL    HW145413   4.830   0.682   2.152  0.5768  0.4061 -0.9747
14654SOL    HW245414   4.794   0.803   2.236  1.8527 -0.8433  1.5040
14655SOL     OW45415   4.081   1.007   4.248  0.4771  0.2483 -0.2847
14655SOL    HW145416   3.990   1.028   4.267 -0.4300 -4.5364  2.2831
14655SOL    HW245417   4.131   1.053   4.316 -0.2208  1.2451 -0.4263
14656SOL     OW45418   3.732   4.058   1.815 -0.5430 -0.5154  0.4562
14656SOL    HW145419   3.699   4.090   1.899  0.0861 -0.5881  0.7363
14656SOL    HW245420   3.662   4.002   1.781 -0.8439 -0.4007  0.8782
14657SOL     OW45421   4.294   4.462   8.737 -0.1205 -0.3236 -0.3071
14657SOL    HW145422   4.305   4.381   8.687 -0.1315  0.5116 -1.6943
14657SOL    HW245423   4.280   4.432   8.827  1.6010 -1.8180 -0.4749
14658SOL     OW45424   1.017   2.019   9.066 -0.2281  0.1765 -0.0535
14658SOL    HW145425   1.034   2.107   9.100 -0.1570 -0.7198  2.4186
14658SOL    HW245426   0.923   2.019   9.046 -0.2619  0.7605  0.0894
14659SOL     OW45427   8.715   2.344   0.474  0.2527  0.0013 -0.6585
14659SOL    HW145428   8.652   2.322   0.405 -1.3764 -0.5000  0.9023
14659SOL    HW245429   8.726   2.438   0.467 -1.8893  0.3599 -0.0675
14660SOL     OW45430   9.060   7.863   4.793 -0.2721  0.5106 -0.7050
14660SOL    HW145431   9.006   7.938   4.767 -0.4877  0.4396 -0.4627
14660SOL    HW245432   9.141   7.901   4.825 -0.9869  0.7237  0.9091
14661SOL     OW45433   7.522   1.778   3.375  0.0010  0.0205  0.6345
14661SOL    HW145434   7.473   1.855   3.346  1.9871  1.1871  0.1947
14661SOL    HW245435   7.551   1.801   3.464  0.1818 -0.4476  0.6982
14662SOL     OW45436   2.875   9.182   8.059 -0.3441 -0.6610 -0.2878
14662SOL    HW145437   2.853   9.275   8.068 -0.3317 -0.7774  1.1803
14662SOL    HW245438   2.794   9.136   8.078  0.0031 -0.9811  0.4416
14663SOL     OW45439   7.698   3.582   1.669 -0.3206  0.1275 -0.0769
14663SOL    HW145440   7.683   3.676   1.677 -1.5100  0.0623 -1.1556
14663SOL    HW245441   7.624   3.543   1.716 -0.3614 -0.2634 -0.4672
14664SOL     OW45442   8.170   7.188   7.668 -0.3632 -1.0653  0.1402
14664SOL    HW145443   8.159   7.117   7.731  0.9061 -0.0586  1.5660
14664SOL    HW245444   8.081   7.214   7.645 -0.8511 -1.5013  1.4632
14665SOL     OW45445   1.395   6.124   6.892  0.3644  0.0864 -0.3287
14665SOL    HW145446   1.425   6.050   6.839  0.6641  0.6796 -0.9908
14665SOL    HW245447   1.322   6.088   6.943  1.6673 -1.1576  0.7286
14666SOL     OW45448   0.076   5.918   8.678 -0.1461 -0.1980 -0.4444
14666SOL    HW145449   0.043   5.941   8.591  0.1872 -1.2841 -0.8802
14666SOL    HW245450   0.168   5.945   8.677 -0.6235  1.5638  0.2794
14667SOL     OW45451   6.169   5.579   4.315 -0.3934  1.0965 -0.1653
14667SOL    HW145452   6.144   5.563   4.406 -1.0090  0.2377 -0.4702
14667SOL    HW245453   6.113   5.652   4.288 -0.2393  1.3273  0.1339
14668SOL     OW45454   1.381   2.150   5.349 -0.1015  0.5100  0.2672
14668SOL    HW145455   1.299   2.106   5.328  1.3109 -1.5236 -1.2623
14668SOL    HW245456   1.395   2.211   5.277  0.8922 -0.9095 -0.7905
14669SOL     OW45457   2.518   1.821   3.340  0.2215  0.3593  0.0813
14669SOL    HW145458   2.449   1.886   3.333 -1.2811 -1.2302 -0.5949
14669SOL    HW245459   2.481   1.753   3.397  1.2931 -0.4642 -0.1671
14670SOL     OW45460   4.007   6.535   2.668  0.6605 -0.2888  0.5803
14670SOL    HW145461   3.955   6.615   2.664  0.0616 -0.6581  0.9357
14670SOL    HW245462   3.985   6.488   2.588  0.3129 -0.5291  0.8175
14671SOL     OW45463   7.253   0.700   6.268  0.3922  0.2135  0.2919
14671SOL    HW145464   7.286   0.729   6.183 -1.7575  1.2604 -0.2523
14671SOL    HW245465   7.264   0.776   6.325 -1.4296  0.7638 -0.0343
14672SOL     OW45466   5.927   6.016   8.111  0.0880 -0.1594  0.2272
14672SOL    HW145467   5.930   6.065   8.029 -0.6951  0.7957  0.7399
14672SOL    HW245468   5.932   5.924   8.085  2.5248  0.1836 -0.7109
14673SOL     OW45469   2.054   8.143   1.027 -0.0933  0.1579 -0.4039
14673SOL    HW145470   2.080   8.114   1.114  1.2996  1.1558 -0.4504
14673SOL    HW245471   2.062   8.065   0.972 -0.5639 -0.3723  0.2552
14674SOL     OW45472   1.261   4.839   7.253  0.2561  0.1172  0.5158
14674SOL    HW145473   1.245   4.922   7.299 -0.4395  0.3210 -0.0775
14674SOL    HW245474   1.210   4.846   7.172 -0.5348 -1.2628  0.8639
14675SOL     OW45475   8.654   2.945   2.629 -0.0818  0.6775 -0.0378
14675SOL    HW145476   8.629   2.937   2.537  0.6303  0.1561 -0.2027
14675SOL    HW245477   8.649   2.855   2.663  3.5762  0.0642 -0.6740
14676SOL     OW45478   1.160   5.890   0.034  0.2030  0.3567 -0.0034
14676SOL    HW145479   1.114   5.954  -0.020 -1.5951 -0.8060  0.0512
14676SOL    HW245480   1.214   5.942   0.092  0.5014  1.7251 -1.4294
14677SOL     OW45481   2.464   1.303   4.553 -0.4998  0.3814  0.5345
14677SOL    HW145482   2.553   1.307   4.516  0.0660 -0.8978  1.6991
14677SOL    HW245483   2.477   1.284   4.646 -2.0188 -1.0094  0.5073
14678SOL     OW45484   3.460   3.147   5.427  0.9669 -0.1686 -0.1442
14678SOL    HW145485   3.438   3.057   5.452  2.2878  0.0650  2.0997
14678SOL    HW245486   3.394   3.201   5.471  1.6001  0.0807  0.5161
14679SOL     OW45487   8.920   5.643   4.789  0.5674  0.0150  0.1972
14679SOL    HW145488   8.832   5.652   4.753 -0.0848 -0.5534  1.5566
14679SOL    HW245489   8.978   5.668   4.717 -0.7082  1.2235 -0.4691
14680SOL     OW45490   2.847   4.104   1.998 -0.4476 -0.2490  0.0846
14680SOL    HW145491   2.880   4.145   1.919 -0.6362 -0.0723  0.0955
14680SOL    HW245492   2.925   4.080   2.048 -0.3323 -0.2213 -0.0841
14681SOL     OW45493   7.057   1.893   7.618  0.0856  0.5464 -0.4017
14681SOL    HW145494   7.113   1.954   7.570  0.7883  0.3036  0.0870
14681SOL    HW245495   6.982   1.945   7.645  0.5158  1.1135 -0.2752
14682SOL     OW45496   7.611   0.342   0.862  0.2487  0.6054 -0.1562
14682SOL    HW145497   7.626   0.434   0.883 -1.6049  0.8841  0.0884
14682SOL    HW245498   7.675   0.323   0.793  1.1325  1.8570  0.2760
14683SOL     OW45499   3.952   7.514   6.842 -0.2912 -0.9295  0.1568
14683SOL    HW145500   3.919   7.524   6.931 -0.5359  1.5854 -0.1320
14683SOL    HW245501   3.916   7.431   6.812 -2.2451 -0.6573  1.5702
14684SOL     OW45502   6.763   5.475   7.595  0.2067  0.6288  0.4758
14684SOL    HW145503   6.723   5.407   7.649 -1.5250 -0.5951 -2.1023
14684SOL    HW245504   6.693   5.539   7.581  0.7686  1.1711  0.1017
14685SOL     OW45505   4.010   3.203   2.535  0.3355 -0.1526  0.0060
14685SOL    HW145506   3.963   3.195   2.452  0.4561 -1.1085  0.0135
14685SOL    HW245507   3.982   3.287   2.570 -1.5089 -0.7455  0.0845
14686SOL     OW45508   7.948   1.465   5.829 -0.1321 -0.0244  0.3236
14686SOL    HW145509   8.031   1.422   5.809 -0.0772 -0.7835  2.0369
14686SOL    HW245510   7.970   1.558   5.831  0.2587 -0.0577 -1.0152
14687SOL     OW45511   7.307   3.299   5.557 -0.3802  0.7589 -0.0984
14687SOL    HW145512   7.394   3.300   5.519 -0.4046 -0.8735 -0.2481
14687SOL    HW245513   7.315   3.351   5.637  0.3257  1.9509 -0.9229
14688SOL     OW45514   5.537   5.044   8.454 -0.4492 -0.0611 -0.2409
14688SOL    HW145515   5.540   5.026   8.360 -0.4127 -1.2260 -0.0251
14688SOL    HW245516   5.622   5.015   8.487  0.1205  1.7084 -0.0606
14689SOL     OW45517   1.758   1.145   1.792 -0.1482 -0.2696  0.8829
14689SOL    HW145518   1.709   1.077   1.838 -1.7597  0.9150  1.0298
14689SOL    HW245519   1.773   1.110   1.704 -0.3436 -1.0703  1.1607
14690SOL     OW45520   0.611   7.678   4.656 -0.0890  0.2415  0.3340
14690SOL    HW145521   0.600   7.724   4.739  1.0430 -1.0011  1.2283
14690SOL    HW245522   0.591   7.586   4.677 -0.3169 -0.0069 -0.9038
14691SOL     OW45523   4.369   3.555   2.478 -0.0377  0.0525  0.0281
14691SOL    HW145524   4.354   3.490   2.547 -0.9480 -0.8402 -0.9909
14691SOL    HW245525   4.290   3.609   2.477  0.0019  0.1076 -0.2741
14692SOL     OW45526   0.059   9.101   7.739  0.1752  0.6318  0.3268
14692SOL    HW145527   0.098   9.078   7.823  1.6317  0.4511 -0.3828
14692SOL    HW245528   0.132   9.102   7.677 -1.0168 -0.3409 -1.1764
14693SOL     OW45529   7.314   3.439   0.942  0.3101  0.0355  0.3209
14693SOL    HW145530   7.301   3.362   0.887  1.1806  0.9446 -1.2307
14693SOL    HW245531   7.384   3.415   1.001  1.9837  0.2418 -1.4821
14694SOL     OW45532   9.191   3.480   0.178 -0.6480 -0.6836  0.1237
14694SOL    HW145533   9.175   3.573   0.163  0.6155 -0.1659  1.6672
14694SOL    HW245534   9.128   3.456   0.246 -1.4996 -1.1770 -0.8199
14695SOL     OW45535   7.660   3.592   9.042  0.3291 -0.1907 -0.2487
14695SOL    HW145536   7.628   3.505   9.065  0.1080  0.1944  1.0000
14695SOL    HW245537   7.624   3.609   8.955 -2.3417 -0.0628  0.7851
14696SOL     OW45538   5.762   6.460   7.989  0.4348 -0.1366 -0.5274
14696SOL    HW145539   5.831   6.432   7.929  1.5135  2.0938 -0.4210
14696SOL    HW245540   5.703   6.512   7.935 -0.7478 -1.3342 -0.4321
14697SOL     OW45541   4.480   4.221   8.796  0.3841 -0.0368 -0.1503
14697SOL    HW145542   4.527   4.138   8.788  0.5745  0.0513  0.0227
14697SOL    HW245543   4.544   4.288   8.770  0.0781  0.0232 -0.7681
14698SOL     OW45544   8.538   6.432   7.469  0.3517 -0.3256 -0.3392
14698SOL    HW145545   8.569   6.508   7.421 -1.3305  0.2635 -0.5626
14698SOL    HW245546   8.543   6.457   7.561  2.5280 -1.0524 -0.1966
14699SOL     OW45547   4.822   8.084   4.241 -0.1057 -0.4098  0.2180
14699SOL    HW145548   4.748   8.054   4.189  1.0998 -0.7986 -1.3448
14699SOL    HW245549   4.804   8.177   4.257 -1.9388 -0.9465  1.7312
14700SOL     OW45550   4.251   0.790   3.205  0.6938 -0.7649  0.2093
14700SOL    HW145551   4.295   0.716   3.163  0.5999 -0.2343 -0.8585
14700SOL    HW245552   4.296   0.867   3.171 -0.5388 -0.2467 -0.3079
14701SOL     OW45553   5.595   8.691   8.165 -0.2842 -0.1438  0.5805
14701SOL    HW145554   5.591   8.621   8.101  0.1810 -0.2754  0.6910
14701SOL    HW245555   5.636   8.764   8.118  0.0894 -0.2522  0.7313
14702SOL     OW45556   5.320   2.073   3.062  0.3187  0.0359 -0.1991
14702SOL    HW145557   5.324   2.032   3.148  0.0561 -1.0661 -0.7024
14702SOL    HW245558   5.230   2.104   3.054  0.2800 -0.0667 -0.1652
14703SOL     OW45559   6.797   8.328   6.368  0.6847  0.4804 -0.2120
14703SOL    HW145560   6.795   8.398   6.433  1.5953 -0.0251  0.3877
14703SOL    HW245561   6.804   8.373   6.284 -1.5130  1.1802 -0.0677
14704SOL     OW45562   3.144   5.108   4.273  0.6596  0.1669  0.3843
14704SOL    HW145563   3.085   5.177   4.303 -0.8962 -1.1900  0.5904
14704SOL    HW245564   3.227   5.153   4.257 -0.4541  2.1770 -0.0704
14705SOL     OW45565   6.372   2.925   0.926 -0.1243  0.1606 -0.1184
14705SOL    HW145566   6.297   2.984   0.919  0.7077  1.1150 -1.2973
14705SOL    HW245567   6.443   2.970   0.881  0.6381 -1.5981 -0.7872
14706SOL     OW45568   5.557   0.610   7.168  0.4623 -0.1419  0.0733
14706SOL    HW145569   5.533   0.698   7.198  1.0168  0.2559 -0.6226
14706SOL    HW245570   5.618   0.578   7.235 -0.4617 -0.3949  0.8287
14707SOL     OW45571   7.874   1.736   5.404 -0.0520 -0.1903 -0.1501
14707SOL    HW145572   7.904   1.647   5.424 -3.0086 -0.8918  1.8980
14707SOL    HW245573   7.862   1.777   5.489 -1.8576  1.0119 -0.9191
14708SOL     OW45574   0.328   6.158   2.944 -0.4904  0.4647  0.8194
14708SOL    HW145575   0.372   6.090   2.995  0.5570 -0.9538 -1.7864
14708SOL    HW245576   0.260   6.112   2.896  0.3865  1.1321 -1.1770
14709SOL     OW45577   1.879   6.249   3.321 -0.8112 -0.2609 -0.1736
14709SOL    HW145578   1.876   6.156   3.299 -0.7989 -0.5256  0.8857
14709SOL    HW245579   1.970   6.265   3.346 -1.2057 -0.4619  1.5711
14710SOL     OW45580   5.781   8.017   8.785  0.1572 -0.0591  0.3364
14710SOL    HW145581   5.856   8.032   8.728 -0.3467 -0.9995 -0.6196
14710SOL    HW245582   5.743   8.103   8.800  1.0882  0.3525  0.3670
14711SOL     OW45583   6.963   5.913   6.673  0.5056 -0.7935 -0.1751
14711SOL    HW145584   6.875   5.948   6.685  0.4603 -0.0952 -2.1919
14711SOL    HW245585   6.957   5.860   6.594  1.9386 -0.5821 -0.4492
14712SOL     OW45586   0.475   2.772   1.798 -0.2960 -0.2839 -0.0352
14712SOL    HW145587   0.502   2.858   1.833 -2.5308  1.0900 -1.4742
14712SOL    HW245588   0.453   2.721   1.876  0.9535  0.4502  0.8487
14713SOL     OW45589   0.647   3.475   8.003  0.4806 -0.1042  0.2330
14713SOL    HW145590   0.566   3.496   8.050  1.4228  0.7907  1.5416
14713SOL    HW245591   0.713   3.468   8.072  1.4186 -1.3738 -0.7644
14714SOL     OW45592   2.987   4.526   6.449  0.0404 -0.4680  0.1624
14714SOL    HW145593   3.031   4.610   6.437 -0.3447 -0.5212 -1.9250
14714SOL    HW245594   2.912   4.546   6.505 -1.7134  1.2479 -2.5777
14715SOL     OW45595   0.226   5.041   9.007  0.6099 -0.1396 -0.3493
14715SOL    HW145596   0.175   5.060   8.928  0.6291 -1.9037 -0.8233
14715SOL    HW245597   0.246   4.948   9.001  0.0017 -0.4778  2.1147
14716SOL     OW45598   0.101   8.774   7.916 -0.0512  0.4453 -0.0116
14716SOL    HW145599   0.118   8.705   7.853 -0.3984  0.3014  0.0480
14716SOL    HW245600   0.168   8.840   7.899 -0.2118  0.4632 -0.6144
14717SOL     OW45601   6.365   9.146   8.009  0.3281  0.0969 -0.5790
14717SOL    HW145602   6.305   9.160   8.082 -0.7404  2.4381 -1.7756
14717SOL    HW245603   6.309   9.115   7.937  0.8452  0.5996 -1.2114
14718SOL     OW45604   0.585   3.899   0.766 -0.5402  0.1619  0.0577
14718SOL    HW145605   0.599   3.842   0.691  0.1473 -0.0026  0.3061
14718SOL    HW245606   0.501   3.942   0.748  0.3008  1.2336 -1.5144
14719SOL     OW45607   8.642   6.672   2.172 -0.1284 -0.2037  0.5199
14719SOL    HW145608   8.701   6.669   2.097  0.5132  1.2998  0.9179
14719SOL    HW245609   8.657   6.589   2.218 -0.2552 -0.9738 -0.7882
14720SOL     OW45610   7.418   9.235   8.297 -0.0493 -0.4473  0.1204
14720SOL    HW145611   7.409   9.307   8.359  2.3087 -0.4039  0.4835
14720SOL    HW245612   7.342   9.180   8.314 -1.2134  1.2550  0.7253
14721SOL     OW45613   8.361   8.482   4.911  0.7168  0.7289 -0.2859
14721SOL    HW145614   8.419   8.406   4.916  0.4337  0.3176 -2.5403
14721SOL    HW245615   8.275   8.446   4.889  0.6030  1.6944 -1.5028
14722SOL     OW45616   3.704   8.806   5.335 -0.2411 -0.0905  0.0721
14722SOL    HW145617   3.741   8.746   5.400  0.5115 -0.7532 -0.9342
14722SOL    HW245618   3.682   8.750   5.260 -2.4230  0.4276  0.2488
14723SOL     OW45619   6.853   1.208   0.128 -0.1799  0.4124 -0.3761
14723SOL    HW145620   6.765   1.177   0.150 -0.1909  1.1232  0.6302
14723SOL    HW245621   6.888   1.140   0.069 -1.2195 -0.1043 -0.4242
14724SOL     OW45622   6.890   4.536   9.176  0.2816  0.8260  0.1490
14724SOL    HW145623   6.969   4.486   9.197  0.9633  0.6048 -2.5326
14724SOL    HW245624   6.922   4.620   9.143 -0.5558  0.6579 -1.1819
14725SOL     OW45625   8.006   6.847   0.373  0.4189 -0.5353  0.4427
14725SOL    HW145626   8.042   6.787   0.438 -0.1016 -1.5825 -0.2193
14725SOL    HW245627   7.952   6.793   0.316 -1.9751  0.8989  1.1746
14726SOL     OW45628   4.980   2.162   3.483  0.1648 -0.1422  0.0013
14726SOL    HW145629   5.006   2.079   3.441 -0.3817 -0.3786  0.1235
14726SOL    HW245630   5.045   2.225   3.452  0.4808 -0.5748 -0.2425
14727SOL     OW45631   1.027   3.627   1.948  0.2057 -0.1315  0.3646
14727SOL    HW145632   1.062   3.716   1.935 -0.1017  0.0542  0.7961
14727SOL    HW245633   0.976   3.633   2.028 -0.9254 -0.3625 -0.3161
14728SOL     OW45634   2.104   7.157   6.118 -0.1064 -0.3380 -0.7202
14728SOL    HW145635   2.173   7.116   6.171 -0.9491 -0.1280  0.5830
14728SOL    HW245636   2.040   7.088   6.103 -0.0982 -0.2719 -1.0640
14729SOL     OW45637   5.865   4.920   4.467  0.1358  0.1289 -0.3203
14729SOL    HW145638   5.946   4.959   4.499 -0.0413  0.6810 -0.5449
14729SOL    HW245639   5.865   4.831   4.504  1.2144 -0.1423 -0.9492
14730SOL     OW45640   0.757   4.262   8.429  0.6756 -0.5302 -0.9467
14730SOL    HW145641   0.750   4.222   8.515 -0.8833 -0.7316 -1.1411
14730SOL    HW245642   0.725   4.195   8.369  1.5510 -0.3181 -1.6676
14731SOL     OW45643   4.472   5.582   0.220  0.2620  0.7122  0.2673
14731SOL    HW145644   4.483   5.509   0.159 -1.9606 -0.7527  1.4809
14731SOL    HW245645   4.560   5.603   0.248  0.9505 -3.5648  2.1144
14732SOL     OW45646   3.224   3.225   1.698  0.1074  0.1265 -0.0345
14732SOL    HW145647   3.203   3.260   1.784  1.6426  1.4412 -0.1521
14732SOL    HW245648   3.293   3.282   1.665  0.7086 -1.3474 -1.4503
14733SOL     OW45649   7.723   5.758   7.174 -0.2378 -0.4639 -0.0597
14733SOL    HW145650   7.803   5.774   7.123 -0.0560  0.1690  0.4138
14733SOL    HW245651   7.657   5.736   7.108  0.0566  0.1082 -0.5526
14734SOL     OW45652   2.087   0.791   4.958 -0.7476 -0.6190 -0.4937
14734SOL    HW145653   2.070   0.702   4.988  0.4050 -1.3307 -1.8433
14734SOL    HW245654   2.003   0.822   4.925 -1.3805 -0.8205  0.8347
14735SOL     OW45655   1.508   1.792   7.047 -0.4968  0.1263 -0.2627
14735SOL    HW145656   1.498   1.761   6.957 -0.5326 -0.2143 -0.1420
14735SOL    HW245657   1.470   1.880   7.046 -2.0737 -0.5354 -0.1805
14736SOL     OW45658   4.829   1.921   0.241  0.2451  0.8360  0.3523
14736SOL    HW145659   4.810   1.828   0.253  0.0172  0.6357 -1.3106
14736SOL    HW245660   4.766   1.966   0.297 -1.2777  0.0320 -0.6385
14737SOL     OW45661   7.093   1.159   1.442 -0.2589  0.5240 -0.0495
14737SOL    HW145662   7.004   1.140   1.472 -0.3565  0.9720 -0.0541
14737SOL    HW245663   7.094   1.132   1.350  0.1920 -1.3530  0.4558
14738SOL     OW45664   1.154   1.121   0.802  0.3574  0.2612  0.1979
14738SOL    HW145665   1.188   1.080   0.723 -0.8413 -0.3154 -0.0414
14738SOL    HW245666   1.209   1.198   0.815  0.9317  0.0485 -0.8702
14739SOL     OW45667   8.033   4.432   5.083  0.0006  0.8328  0.2514
14739SOL    HW145668   7.947   4.472   5.075 -0.0403  0.4299 -1.8470
14739SOL    HW245669   8.032   4.359   5.020  0.7815 -1.1968  2.4268
14740SOL     OW45670   0.096   9.070   4.379  0.4145  0.0239 -0.4434
14740SOL    HW145671   0.120   8.978   4.369 -0.9189 -0.3809 -0.0776
14740SOL    HW245672   0.022   9.083   4.320 -0.1067  0.5748  0.3076
14741SOL     OW45673   4.898   1.958   7.554 -0.0678  0.8634  0.3232
14741SOL    HW145674   4.932   2.019   7.619  0.6668  1.3508 -0.4912
14741SOL    HW245675   4.965   1.889   7.548 -0.6558  0.2300  0.8743
14742SOL     OW45676   0.258   6.601   5.651 -0.0219  0.0575  0.4423
14742SOL    HW145677   0.340   6.556   5.634  0.7192  0.4965  2.5874
14742SOL    HW245678   0.208   6.590   5.570  1.2206 -2.1767 -0.1187
14743SOL     OW45679   7.034   9.074   0.545  0.3975 -0.0430  0.1003
14743SOL    HW145680   6.939   9.074   0.554  0.2813 -0.9848 -0.9409
14743SOL    HW245681   7.057   9.165   0.527 -0.6574 -0.2547 -2.7914
14744SOL     OW45682   5.029   6.694   4.187  0.0439  0.4290  0.6423
14744SOL    HW145683   5.057   6.611   4.149 -1.8392 -0.6275  1.3929
14744SOL    HW245684   5.083   6.704   4.265  0.1741 -0.1916  0.6425
14745SOL     OW45685   0.214   5.283   6.112  0.2790 -0.3280  0.1589
14745SOL    HW145686   0.140   5.336   6.083  0.1132 -0.4648  0.3336
14745SOL    HW245687   0.178   5.225   6.179  0.6176 -0.1506  0.5010
14746SOL     OW45688   4.063   0.076   4.203 -0.0109 -0.3820 -0.4151
14746SOL    HW145689   4.095   0.112   4.286 -1.6558 -2.9594  1.4765
14746SOL    HW245690   4.138   0.028   4.168  0.5919  0.4225 -0.2663
14747SOL     OW45691   4.400   6.101   6.821 -0.1486 -0.2948 -0.1034
14747SOL    HW145692   4.402   6.135   6.910 -1.8280  1.6517 -0.7285
14747SOL    HW245693   4.325   6.043   6.819  1.1021 -1.9935  0.2341
14748SOL     OW45694   0.893   6.204   8.808 -0.0611  0.5176  0.1669
14748SOL    HW145695   0.899   6.225   8.901  1.4338 -0.5245  0.3442
14748SOL    HW245696   0.978   6.166   8.787  0.1007  1.8879 -1.9331
14749SOL     OW45697   0.253   0.019   7.001 -0.5519 -0.0815  0.1042
14749SOL    HW145698   0.297  -0.027   7.072 -0.8438 -0.4200  0.0685
14749SOL    HW245699   0.161   0.019   7.026 -0.6081  0.1244 -0.0959
14750SOL     OW45700   5.523   4.270   7.905  0.7789 -0.2427 -0.4376
14750SOL    HW145701   5.577   4.218   7.846 -1.2437  0.9117 -3.5614
14750SOL    HW245702   5.449   4.213   7.927  0.4858  0.0192 -0.7334
14751SOL     OW45703   1.166   5.559   2.435 -0.3774 -0.0512  0.0808
14751SOL    HW145704   1.162   5.487   2.372 -0.9329 -0.1282  0.2021
14751SOL    HW245705   1.210   5.522   2.511 -0.2316 -0.1264 -0.0402
14752SOL     OW45706   4.241   3.114   6.392  0.5417 -0.4480 -0.0009
14752SOL    HW145707   4.224   3.028   6.430 -2.0142  0.2526  0.6455
14752SOL    HW245708   4.324   3.105   6.347  1.4185 -2.6411  1.8740
14753SOL     OW45709   8.869   4.779   0.089  0.2699  0.7874  0.0518
14753SOL    HW145710   8.939   4.730   0.130 -0.1191  0.2244  0.0537
14753SOL    HW245711   8.805   4.793   0.159  0.5327  1.6071  0.1423
14754SOL     OW45712   1.455   5.443   1.450  0.4513 -0.0239  0.4421
14754SOL    HW145713   1.414   5.433   1.536  1.5391  0.8596  1.0983
14754SOL    HW245714   1.410   5.380   1.394 -1.5416  0.6441  1.1930
14755SOL     OW45715   5.523   6.220   6.364  0.2796  0.5683  0.0165
14755SOL    HW145716   5.607   6.262   6.344  0.3379  0.3431 -0.2252
14755SOL    HW245717   5.511   6.157   6.293 -0.5256  1.2226 -0.4533
14756SOL     OW45718   5.683   4.403   3.204  0.4290 -0.6948  0.3346
14756SOL    HW145719   5.769   4.437   3.179  0.1939  0.9765  1.5999
14756SOL    HW245720   5.643   4.475   3.253  0.0461 -2.9144  3.5517
14757SOL     OW45721   2.304   8.832   7.960  0.7708  0.0492  0.1184
14757SOL    HW145722   2.275   8.763   7.900  0.4466 -0.3467  0.7140
14757SOL    HW245723   2.398   8.819   7.967  0.6615 -0.6241  0.5529
14758SOL     OW45724   0.691   4.222   3.419 -0.1257 -0.3435 -0.6078
14758SOL    HW145725   0.765   4.168   3.390  0.1531 -0.7068  0.7439
14758SOL    HW245726   0.701   4.229   3.513 -1.0768  0.7358 -0.5612
14759SOL     OW45727   8.389   4.501   0.098 -0.0083 -0.6951 -0.3130
14759SOL    HW145728   8.423   4.554   0.171 -0.1374  0.7647 -1.2881
14759SOL    HW245729   8.468   4.470   0.053  0.1025  0.8007 -1.2231
14760SOL     OW45730   3.181   2.605   1.440 -0.1175  0.0148  0.0714
14760SOL    HW145731   3.126   2.676   1.474 -1.6501 -1.3143  0.4947
14760SOL    HW245732   3.218   2.563   1.518  0.9365  0.4218 -0.1809
14761SOL     OW45733   1.706   4.423   7.936  0.2595  0.1000 -0.0037
14761SOL    HW145734   1.783   4.366   7.944  0.1296  0.0478  0.9253
14761SOL    HW245735   1.653   4.404   8.013  1.0667  2.7371  1.3189
14762SOL     OW45736   6.015   6.286   6.246  0.3298 -0.3911 -0.1913
14762SOL    HW145737   6.047   6.305   6.334  1.2712  0.3543 -0.6707
14762SOL    HW245738   5.982   6.196   6.251  4.0145 -1.9125 -0.0089
14763SOL     OW45739   5.371   3.346   7.003 -0.3830 -0.2320 -0.3463
14763SOL    HW145740   5.365   3.257   7.037  1.4505 -0.2609 -0.0081
14763SOL    HW245741   5.461   3.374   7.022 -0.5772  1.2948 -1.4121
14764SOL     OW45742   0.316   4.354   3.193 -0.0587  0.2943 -0.3347
14764SOL    HW145743   0.347   4.357   3.284 -0.8412  1.5552 -0.0789
14764SOL    HW245744   0.392   4.326   3.143  0.4235 -0.3170  0.6942
14765SOL     OW45745   4.219   4.631   9.215  0.4328 -0.1961 -0.2167
14765SOL    HW145746   4.284   4.627   9.285  0.9307  0.9423 -0.5969
14765SOL    HW245747   4.213   4.541   9.183 -0.5358 -0.9735  1.9103
14766SOL     OW45748   0.047   3.802   8.389 -0.4484 -0.2419  0.0465
14766SOL    HW145749   0.124   3.823   8.336 -1.3183  0.8995 -0.7986
14766SOL    HW245750   0.012   3.722   8.350  0.7871 -1.3121  1.0075
14767SOL     OW45751   6.937   2.729   0.709 -0.1534  0.2809  0.2424
14767SOL    HW145752   6.848   2.697   0.692 -0.3487  0.4999  0.8314
14767SOL    HW245753   6.981   2.655   0.751  0.3612 -0.2972 -1.2601
14768SOL     OW45754   1.530   2.754   3.366  0.0742 -0.0010 -0.4004
14768SOL    HW145755   1.587   2.831   3.366  1.4753 -0.9828  0.5349
14768SOL    HW245756   1.488   2.755   3.451  0.0641 -0.2258 -0.4000
14769SOL     OW45757   7.644   4.259   0.050 -0.3386 -0.6524  0.1209
14769SOL    HW145758   7.618   4.216  -0.031 -1.1274 -1.0488  0.5776
14769SOL    HW245759   7.644   4.352   0.029 -2.4988 -0.5940  0.1790
14770SOL     OW45760   3.115   7.082   8.490 -0.0968 -0.2359 -0.5556
14770SOL    HW145761   3.091   7.108   8.401 -1.8416 -1.2643 -0.4480
14770SOL    HW245762   3.140   6.990   8.482 -0.6256 -0.4390  0.0693
14771SOL     OW45763   8.212   2.636   5.585 -0.6095  0.3632  0.3350
14771SOL    HW145764   8.219   2.601   5.674 -1.3412  0.2020  0.3399
14771SOL    HW245765   8.195   2.559   5.530 -0.4561  0.4980  0.0985
14772SOL     OW45766   9.259   2.960   9.262  0.1230 -0.0364  0.1692
14772SOL    HW145767   9.242   2.951   9.168  0.5944  0.9823 -0.0200
14772SOL    HW245768   9.180   3.002   9.297  0.0470 -0.1997  0.1958
14773SOL     OW45769   2.245   3.114   2.677 -0.1374  0.5682  0.4456
14773SOL    HW145770   2.253   3.109   2.772  0.6721 -1.1156  0.3138
14773SOL    HW245771   2.150   3.119   2.661 -0.3860 -1.0080  1.2821
14774SOL     OW45772   2.928   1.424   8.042  0.2398 -0.0606 -0.3336
14774SOL    HW145773   2.922   1.488   7.971  0.5055  0.0044 -0.2986
14774SOL    HW245774   2.899   1.472   8.120  0.1939 -0.0564 -0.3535
14775SOL     OW45775   5.919   7.764   1.929  0.2031 -0.8740  0.1988
14775SOL    HW145776   5.980   7.723   1.992  0.5383  0.5093  0.8059
14775SOL    HW245777   5.954   7.739   1.843  0.7996 -1.2809  0.5490
14776SOL     OW45778   2.615   6.267   2.716 -0.0278 -0.1544  0.0409
14776SOL    HW145779   2.629   6.357   2.687  0.9105 -0.5224 -0.7042
14776SOL    HW245780   2.701   6.226   2.708 -0.1548 -0.7999  1.5602
14777SOL     OW45781   5.886   7.472   5.684 -0.2022  0.3069 -0.4396
14777SOL    HW145782   5.926   7.399   5.638  0.7605  0.3511  0.3087
14777SOL    HW245783   5.930   7.475   5.769 -0.9288  1.1304 -0.0678
14778SOL     OW45784   5.807   6.447   4.405  0.7456  0.5412  0.0424
14778SOL    HW145785   5.819   6.359   4.368  1.3479  0.1725  1.0772
14778SOL    HW245786   5.729   6.481   4.361 -0.7010 -1.2851  1.0490
14779SOL     OW45787   4.584   1.749   5.626 -0.4107 -0.4561  0.2822
14779SOL    HW145788   4.613   1.823   5.679  1.3602  1.2052 -2.6589
14779SOL    HW245789   4.666   1.710   5.593 -1.3588 -0.4270 -2.3244
14780SOL     OW45790   5.775   7.250   7.734 -0.1724  0.3742  0.5980
14780SOL    HW145791   5.697   7.198   7.715 -0.2234  0.4681  0.5498
14780SOL    HW245792   5.800   7.224   7.823 -0.6598  0.8448  0.8806
14781SOL     OW45793   7.528   2.138   0.274  0.0471  0.2655 -0.3016
14781SOL    HW145794   7.572   2.055   0.296 -0.5525 -0.1903 -0.7664
14781SOL    HW245795   7.544   2.194   0.350  0.0849 -0.4309  0.2261
14782SOL     OW45796   5.920   4.642   8.692  0.4511 -0.2294  0.1269
14782SOL    HW145797   5.862   4.629   8.767 -1.7576 -0.3738 -1.4994
14782SOL    HW245798   5.863   4.676   8.624  2.4297  0.1216 -1.4428
14783SOL     OW45799   5.989   4.013   0.997 -0.0146  0.1557  0.6716
14783SOL    HW145800   6.066   4.067   1.016  0.0086  0.8384 -1.1965
14783SOL    HW245801   6.017   3.924   1.017  1.7756  0.2152 -1.2496
14784SOL     OW45802   3.393   7.077   5.116 -0.4164 -0.4935  0.0702
14784SOL    HW145803   3.381   7.000   5.059  1.0701 -0.6866 -0.0196
14784SOL    HW245804   3.429   7.041   5.197  0.2843  0.1132  0.0310
14785SOL     OW45805   1.838   4.062   4.252 -0.1446 -0.1834  0.2855
14785SOL    HW145806   1.756   4.088   4.293  0.0183  1.0367 -0.1381
14785SOL    HW245807   1.812   3.998   4.185 -0.4683 -1.7188  1.8079
14786SOL     OW45808   3.963   3.569   6.674 -0.3252 -0.4611  0.2659
14786SOL    HW145809   3.961   3.629   6.749  1.2217  1.0719 -0.8422
14786SOL    HW245810   4.054   3.538   6.671 -0.3671 -0.5104 -0.9454
14787SOL     OW45811   9.104   9.092   8.924 -0.2762  0.0545 -0.2515
14787SOL    HW145812   9.068   9.179   8.909  2.2576  1.4482  1.1119
14787SOL    HW245813   9.032   9.043   8.965 -1.6486  1.5848 -0.7309
14788SOL     OW45814   8.677   0.949   0.348 -0.1426 -0.0111 -0.3626
14788SOL    HW145815   8.701   0.910   0.264 -0.1955  0.6450 -0.6892
14788SOL    HW245816   8.597   0.998   0.329  0.0927  0.5040 -0.0322
14789SOL     OW45817   4.931   5.629   4.784 -0.0045  0.4996 -0.7180
14789SOL    HW145818   5.025   5.611   4.787  0.1931  1.6034  0.3146
14789SOL    HW245819   4.890   5.542   4.785  0.9879  0.0212 -0.6682
14790SOL     OW45820   4.653   0.607   8.106 -0.2278 -0.4049  0.3546
14790SOL    HW145821   4.707   0.648   8.173 -0.8301  2.2821 -0.6622
14790SOL    HW245822   4.565   0.642   8.121 -0.8374 -1.5225 -0.4731
14791SOL     OW45823   5.072   3.049   0.370 -0.1251 -0.5146  0.4238
14791SOL    HW145824   5.124   3.047   0.289  0.0122  0.7812  0.4462
14791SOL    HW245825   5.021   2.968   0.368 -2.7524  0.9353 -2.7491
14792SOL     OW45826   3.339   6.242   4.094 -0.5061 -0.4783  0.2383
14792SOL    HW145827   3.279   6.310   4.126  0.2432  0.8259 -1.0251
14792SOL    HW245828   3.382   6.208   4.173 -1.4859 -0.0803  0.9635
14793SOL     OW45829   1.649   2.957   0.800 -0.0541 -0.1950 -0.1601
14793SOL    HW145830   1.623   3.030   0.744 -0.9354 -0.1043  0.3517
14793SOL    HW245831   1.726   2.920   0.757 -0.7809 -0.2036 -1.4885
14794SOL     OW45832   5.713   0.188   7.582 -0.3630 -0.3309  0.1533
14794SOL    HW145833   5.644   0.254   7.577  2.5419  3.0682  0.8085
14794SOL    HW245834   5.746   0.181   7.492 -0.9440 -1.3267 -0.0011
14795SOL     OW45835   6.101   7.811   4.734  0.3984  0.5602  0.4771
14795SOL    HW145836   6.134   7.827   4.646 -1.0800  0.2113 -0.1588
14795SOL    HW245837   6.044   7.886   4.752  1.2517  1.0152  1.4569
14796SOL     OW45838   8.886   7.345   1.698  0.3686  0.0661 -0.0341
14796SOL    HW145839   8.958   7.282   1.705 -0.5617 -0.8848  1.5307
14796SOL    HW245840   8.845   7.324   1.613  1.3388 -0.0239 -0.4908
14797SOL     OW45841   8.928   7.043   7.082 -0.1288 -0.5457  0.2394
14797SOL    HW145842   8.985   6.986   7.134 -0.1736 -2.7510 -1.9554
14797SOL    HW245843   8.985   7.081   7.015 -0.5576  0.2099  0.2829
14798SOL     OW45844   1.899   0.998   3.486 -0.1523 -0.0765  0.4294
14798SOL    HW145845   1.872   1.088   3.503 -0.4083 -0.5684  3.0656
14798SOL    HW245846   1.834   0.964   3.424 -0.4670  1.3082 -0.0230
14799SOL     OW45847   4.968   8.236   8.221  0.0662 -0.3091 -0.5141
14799SOL    HW145848   4.942   8.321   8.186  0.4238  0.1518  0.3331
14799SOL    HW245849   4.907   8.174   8.181  1.2833 -0.0102 -3.0485
14800SOL     OW45850   5.794   2.934   5.674 -0.3200 -0.3719  0.3098
14800SOL    HW145851   5.856   3.008   5.670  1.5056 -1.8168  0.3377
14800SOL    HW245852   5.743   2.941   5.594 -1.0990  1.6382  0.9184
14801SOL     OW45853   3.237   4.939   4.874 -0.1328 -0.2215  0.5025
14801SOL    HW145854   3.189   4.864   4.840  0.5039 -0.1131 -0.7340
14801SOL    HW245855   3.170   4.996   4.910 -0.7599 -0.8110  0.3033
14802SOL     OW45856   7.876   6.707   7.320 -0.2313  0.1865  0.2307
14802SOL    HW145857   7.796   6.658   7.337 -0.3849 -0.1364 -1.3214
14802SOL    HW245858   7.860   6.753   7.237  1.4011 -0.3646 -0.4308
14803SOL     OW45859   6.619   6.869   1.071  0.1105 -0.3358 -0.3721
14803SOL    HW145860   6.604   6.957   1.104 -1.5166 -0.9121  0.4912
14803SOL    HW245861   6.537   6.823   1.086  0.5570 -1.6928 -1.8364
14804SOL     OW45862   3.414   3.379   0.628  0.1760 -0.3821  0.5117
14804SOL    HW145863   3.440   3.323   0.701  1.2633 -0.6003 -0.0122
14804SOL    HW245864   3.325   3.405   0.647 -0.0829 -1.6798  1.1543
14805SOL     OW45865   5.877   3.149   5.976 -0.1487  0.3951 -0.3930
14805SOL    HW145866   5.817   3.075   5.989 -1.7508  1.4198 -1.6503
14805SOL    HW245867   5.872   3.198   6.058 -2.0932  1.1671 -0.9192
14806SOL     OW45868   7.410   5.202   7.327  0.0141 -0.0631  0.1612
14806SOL    HW145869   7.489   5.256   7.327  1.3012 -1.6031 -3.4880
14806SOL    HW245870   7.377   5.207   7.237 -3.8940  0.1541  1.4186
14807SOL     OW45871   4.923   1.714   5.784 -0.1402 -0.3091 -0.1272
14807SOL    HW145872   4.897   1.683   5.698  2.4803  0.2835 -1.2215
14807SOL    HW245873   4.881   1.800   5.792 -1.3296 -0.8643 -0.2925
14808SOL     OW45874   6.207   2.876   4.636  0.3329 -0.0070  0.2957
14808SOL    HW145875   6.247   2.949   4.682  3.1309 -1.5039  0.4673
14808SOL    HW245876   6.264   2.802   4.654 -3.0893 -2.6978  1.3728
14809SOL     OW45877   1.583   4.083   0.922  0.1393  0.9943 -0.1025
14809SOL    HW145878   1.530   4.130   0.858  0.3715 -0.0975 -1.1294
14809SOL    HW245879   1.588   3.993   0.888  0.0374  0.3058  1.5852
14810SOL     OW45880   4.313   5.969   7.122 -0.0684 -0.1158 -0.0654
14810SOL    HW145881   4.282   6.044   7.173 -0.4574  0.9846 -1.8556
14810SOL    HW245882   4.267   5.976   7.038  0.1850 -2.1479 -0.4221
14811SOL     OW45883   4.039   9.097   7.669 -0.2391 -0.4984 -0.0529
14811SOL    HW145884   3.954   9.136   7.649  0.0103  0.5197  0.7580
14811SOL    HW245885   4.076   9.074   7.583 -1.1010 -0.4701 -0.4413
14812SOL     OW45886   3.314   6.664   8.203  0.7526  0.2274 -0.2389
14812SOL    HW145887   3.275   6.614   8.274  1.8606  0.1459  0.3175
14812SOL    HW245888   3.302   6.756   8.229 -1.9841  0.3752 -1.6217
14813SOL     OW45889   5.370   3.190   5.527  0.4985 -0.1624 -0.0281
14813SOL    HW145890   5.383   3.141   5.446 -1.3672  1.2518 -1.2581
14813SOL    HW245891   5.452   3.237   5.540  0.5130  0.3147 -1.6400
14814SOL     OW45892   6.272   7.092   0.946  0.4338 -0.3970 -0.0562
14814SOL    HW145893   6.232   7.088   1.033 -0.8905  3.8041 -0.2702
14814SOL    HW245894   6.365   7.108   0.964  0.1808  0.3985  0.6309
14815SOL     OW45895   6.380   8.582   3.372  0.0512  0.1937 -0.3427
14815SOL    HW145896   6.327   8.656   3.342  0.2528  0.6910  0.5127
14815SOL    HW245897   6.372   8.584   3.467 -0.0551 -0.9749 -0.3127
14816SOL     OW45898   0.570   6.047   3.359  0.4109  0.0322 -0.3575
14816SOL    HW145899   0.659   6.075   3.342  0.4860  1.3413  1.7691
14816SOL    HW245900   0.579   5.977   3.424 -0.0594 -1.0861 -1.4577
14817SOL     OW45901   5.385   1.708   3.804  0.2948  0.2712  0.2799
14817SOL    HW145902   5.377   1.617   3.833  0.1620  0.1232 -0.2214
14817SOL    HW245903   5.479   1.726   3.809  0.2785  0.2293  0.7515
14818SOL     OW45904   3.305   1.344   4.994  0.4853  0.0192  0.1231
14818SOL    HW145905   3.357   1.319   4.918  0.9529  0.2006  0.3738
14818SOL    HW245906   3.355   1.415   5.035 -0.2714  0.6161  0.0300
14819SOL     OW45907   6.537   1.996   0.512  0.0444  0.2921 -0.3952
14819SOL    HW145908   6.446   1.980   0.486  0.2912  1.6550 -2.3104
14819SOL    HW245909   6.579   1.910   0.507 -1.2724 -0.5515  1.4366
14820SOL     OW45910   2.607   6.133   5.488  0.0282  0.1872 -0.3125
14820SOL    HW145911   2.606   6.192   5.412  1.3485 -1.4184 -1.6510
14820SOL    HW245912   2.516   6.129   5.516 -0.2472  2.1118 -0.7330
14821SOL     OW45913   8.098   5.575   7.323 -0.1747 -0.0877 -0.3118
14821SOL    HW145914   8.100   5.544   7.413 -2.7786  0.3851 -0.0215
14821SOL    HW245915   8.190   5.571   7.294  0.4287 -2.2159  1.6334
14822SOL     OW45916   0.742   6.233   2.376 -0.0083 -0.7362  0.1549
14822SOL    HW145917   0.792   6.304   2.417  0.1416 -0.2788 -0.7914
14822SOL    HW245918   0.662   6.227   2.429 -0.0406  0.1675  0.2287
14823SOL     OW45919   8.451   4.845   4.402 -0.0010  0.0156 -0.0735
14823SOL    HW145920   8.440   4.755   4.432  1.1393 -0.8717 -2.1178
14823SOL    HW245921   8.545   4.855   4.389 -0.2323  1.0406 -1.1414
14824SOL     OW45922   5.827   1.585   3.558 -0.0813 -0.3581  0.2560
14824SOL    HW145923   5.841   1.506   3.609 -2.2453  0.0941  1.6801
14824SOL    HW245924   5.837   1.557   3.467  1.2932 -1.7527  0.7868
14825SOL     OW45925   6.905   9.116   0.033  0.3989 -0.1261  0.7707
14825SOL    HW145926   6.951   9.177  -0.024 -0.5022 -0.3968 -0.2921
14825SOL    HW245927   6.891   9.039  -0.022 -0.5305 -0.3751  1.3427
14826SOL     OW45928   1.510   2.973   6.335  0.3167  0.0407  0.4025
14826SOL    HW145929   1.503   2.969   6.430 -0.8910 -0.9424  0.3069
14826SOL    HW245930   1.555   3.055   6.317  1.4759 -0.2361  1.8497
14827SOL     OW45931   4.780   9.031   3.708 -0.3453  0.1345 -0.2306
14827SOL    HW145932   4.772   9.045   3.802 -1.0402 -1.9483  0.0910
14827SOL    HW245933   4.804   9.116   3.672  1.1473  0.7049  1.9552
14828SOL     OW45934   2.315   2.634   5.157 -0.1575 -0.3499 -0.5896
14828SOL    HW145935   2.375   2.619   5.230  0.6861  0.4679 -1.0943
14828SOL    HW245936   2.295   2.728   5.162 -1.9477 -0.7149 -0.0239
14829SOL     OW45937   3.150   4.737   2.908  0.1502  0.4012 -0.5778
14829SOL    HW145938   3.089   4.690   2.852  0.1076  0.0411 -0.2349
14829SOL    HW245939   3.126   4.829   2.899 -0.0693  0.3121 -0.8919
14830SOL     OW45940   7.191   4.717   6.476  0.0944  0.0911  0.4379
14830SOL    HW145941   7.096   4.706   6.477  0.1153 -0.1937 -0.4324
14830SOL    HW245942   7.211   4.752   6.563 -0.5075 -2.3611  1.6593
14831SOL     OW45943   2.313   3.819   5.417  0.3993 -0.2626  0.6830
14831SOL    HW145944   2.330   3.882   5.486 -0.5625  0.1466  0.5604
14831SOL    HW245945   2.393   3.820   5.363  0.8168  0.0307  1.2964
14832SOL     OW45946   8.356   3.415   4.428 -0.0089  0.3173 -0.2683
14832SOL    HW145947   8.353   3.419   4.333  2.4416  0.2388 -0.3929
14832SOL    HW245948   8.368   3.505   4.456  0.2589  0.2275 -0.0910
14833SOL     OW45949   4.759   8.359   0.936 -0.2317 -0.3311 -0.0787
14833SOL    HW145950   4.804   8.290   0.886 -1.5250 -1.1776 -0.1364
14833SOL    HW245951   4.710   8.311   1.003 -0.7777  0.5765  0.1786
14834SOL     OW45952   2.094   3.613   9.167  0.2049  0.5185  1.0557
14834SOL    HW145953   2.153   3.650   9.233  2.2546 -0.9707  0.2007
14834SOL    HW245954   2.148   3.610   9.087 -1.5350  0.4121 -0.1593
14835SOL     OW45955   4.862   1.436   8.932  0.2038 -0.9956  0.3344
14835SOL    HW145956   4.897   1.507   8.880  0.1586 -1.3213 -0.1475
14835SOL    HW245957   4.785   1.473   8.976 -0.6140 -1.0977 -0.9472
14836SOL     OW45958   8.743   7.383   2.933  0.1157  0.5428  0.4216
14836SOL    HW145959   8.777   7.321   2.870  0.3204 -1.9883  2.8394
14836SOL    HW245960   8.792   7.464   2.917  3.0398 -1.1915 -0.0826
14837SOL     OW45961   8.710   9.066   7.561 -0.3679 -0.2167  0.3285
14837SOL    HW145962   8.747   8.983   7.591  1.1114  0.2053 -0.2273
14837SOL    HW245963   8.670   9.103   7.639 -0.9310 -1.3748  0.6176
14838SOL     OW45964   5.038   8.128   9.059  0.0960  0.2770  0.0951
14838SOL    HW145965   4.998   8.144   8.974  0.8812  1.9234 -0.0114
14838SOL    HW245966   5.128   8.104   9.039 -0.0163 -0.4561  0.4358
14839SOL     OW45967   8.683   8.123   5.987  0.1307 -0.3891  0.0202
14839SOL    HW145968   8.766   8.108   5.942 -0.4718 -0.2464 -1.1732
14839SOL    HW245969   8.671   8.046   6.043  0.4312 -1.0453 -0.8002
14840SOL     OW45970   4.437   1.921   7.375  0.0249 -0.3232 -0.4762
14840SOL    HW145971   4.350   1.957   7.396 -0.0861 -0.8959  0.0991
14840SOL    HW245972   4.451   1.944   7.283  0.2719  1.7797  0.0487
14841SOL     OW45973   8.752   5.500   6.296  0.4425  0.2322 -0.5104
14841SOL    HW145974   8.819   5.565   6.277  1.2492 -0.0945  1.0740
14841SOL    HW245975   8.671   5.538   6.261  0.2673  3.5332  2.7713
14842SOL     OW45976   8.387   8.446   0.486 -0.2910 -0.2611  0.4579
14842SOL    HW145977   8.431   8.413   0.565  1.1649  1.0414  0.2438
14842SOL    HW245978   8.398   8.376   0.422  1.1896 -0.1563  0.5407
14843SOL     OW45979   1.870   2.769   7.273 -0.6168 -0.5839  0.0634
14843SOL    HW145980   1.952   2.815   7.256 -1.8475  1.3816 -0.9512
14843SOL    HW245981   1.854   2.783   7.366 -0.3314 -0.0045  0.0355
14844SOL     OW45982   4.937   7.423   1.969 -0.0041  0.2252  0.9173
14844SOL    HW145983   5.005   7.431   2.036 -1.8539  1.3541  2.7655
14844SOL    HW245984   4.921   7.329   1.962  0.6337  0.0561  1.6188
14845SOL     OW45985   0.124   2.408   3.232 -0.2797  0.0721 -0.1255
14845SOL    HW145986   0.201   2.419   3.176 -0.5614  0.8996 -0.3614
14845SOL    HW245987   0.149   2.338   3.293  0.5227  0.0813 -0.4272
14846SOL     OW45988   4.075   2.901   0.276 -0.0048  0.0862 -0.8604
14846SOL    HW145989   4.083   2.927   0.368  0.1778 -1.8368 -0.2847
14846SOL    HW245990   4.149   2.943   0.233 -0.0745  0.9889 -0.1178
14847SOL     OW45991   2.246   4.917   7.969 -0.3828 -0.3592 -0.2492
14847SOL    HW145992   2.243   4.860   7.893  0.2389  1.3494 -1.6379
14847SOL    HW245993   2.200   4.869   8.038 -1.9476 -1.4913 -2.0120
14848SOL     OW45994   5.091   3.800   0.311 -0.4174 -0.1458 -0.0592
14848SOL    HW145995   5.059   3.752   0.235  1.3881 -1.5146 -0.0108
14848SOL    HW245996   5.185   3.784   0.312 -0.2434  0.7071  1.8714
14849SOL     OW45997   7.971   5.309   5.256  0.0121 -0.6455 -0.0234
14849SOL    HW145998   7.935   5.255   5.185 -1.0248  1.2845 -1.0566
14849SOL    HW245999   8.063   5.281   5.262  0.3058 -0.5128 -2.5361
14850SOL     OW46000   8.894   8.387   3.933  0.3199 -0.8043 -0.1328
14850SOL    HW146001   8.813   8.413   3.976 -0.0449  0.1082 -1.3069
14850SOL    HW246002   8.897   8.292   3.943 -0.7452 -0.8169  0.1873
14851SOL     OW46003   8.928   2.571   2.686 -0.1039 -0.0417 -0.1110
14851SOL    HW146004   8.958   2.523   2.763  0.5722  0.3451 -0.1240
14851SOL    HW246005   8.953   2.515   2.612  1.1328  0.5416 -0.1531
14852SOL     OW46006   4.731   4.375   4.894  0.7733 -0.2719  0.1424
14852SOL    HW146007   4.686   4.404   4.816 -0.7211 -0.6667  0.8180
14852SOL    HW246008   4.781   4.451   4.924  0.8109  0.0776 -0.8018
14853SOL     OW46009   6.780   7.395   8.726 -0.0294 -0.0083 -0.0669
14853SOL    HW146010   6.725   7.397   8.648 -0.2609 -1.6162  0.0229
14853SOL    HW246011   6.735   7.450   8.790 -0.4539  0.3496 -0.6719
14854SOL     OW46012   7.711   6.909   8.484 -0.5019  0.0986 -0.5154
14854SOL    HW146013   7.736   6.922   8.393  0.6908 -0.1481 -0.2427
14854SOL    HW246014   7.642   6.973   8.500 -0.3851  0.4687 -1.4600
14855SOL     OW46015   2.947   0.285   8.808  0.4124  0.0966  0.1651
14855SOL    HW146016   2.883   0.223   8.773  0.0302  0.0766  0.8812
14855SOL    HW246017   2.932   0.283   8.903  0.7809  0.8587  0.2417
14856SOL     OW46018   1.962   0.481   3.439  0.3604  0.4757 -0.0030
14856SOL    HW146019   1.897   0.417   3.469  0.3637  0.0972 -0.7784
14856SOL    HW246020   1.926   0.514   3.357  0.5802  1.1453  0.1686
14857SOL     OW46021   1.036   9.126   5.257 -0.2745  0.0661  0.3396
14857SOL    HW146022   0.965   9.064   5.247  0.2361 -0.3303 -1.0397
14857SOL    HW246023   1.041   9.142   5.352 -2.0087 -0.0756  0.4842
14858SOL     OW46024   8.152   3.916   4.437  0.2760 -0.5649  0.4557
14858SOL    HW146025   8.193   3.991   4.481  2.5104 -0.8810 -0.9077
14858SOL    HW246026   8.100   3.873   4.505  2.2371 -0.0884  2.3511
14859SOL     OW46027   1.603   6.809   8.165  0.3057  0.2088 -0.4656
14859SOL    HW146028   1.679   6.763   8.199 -0.2063  0.1673  0.6468
14859SOL    HW246029   1.620   6.817   8.071  1.1303 -0.8312 -0.4176
14860SOL     OW46030   7.315   5.303   7.077 -0.5199 -0.7933 -0.2739
14860SOL    HW146031   7.225   5.294   7.108 -0.7914  0.0956 -0.7492
14860SOL    HW246032   7.306   5.312   6.982  0.0752 -0.6732 -0.3220
14861SOL     OW46033   6.746   8.675   5.301  0.1849  0.1629  0.2976
14861SOL    HW146034   6.777   8.588   5.328 -0.7418  0.1922  1.5529
14861SOL    HW246035   6.707   8.660   5.215 -0.5789 -0.8299  0.7855
14862SOL     OW46036   5.299   0.047   3.254 -0.0606  0.0711 -0.3222
14862SOL    HW146037   5.205   0.059   3.267 -0.0350 -0.6208  0.5993
14862SOL    HW246038   5.312  -0.047   3.265  0.4618 -0.1468 -2.3895
14863SOL     OW46039   4.542   2.296   8.568  0.2254 -0.0747 -0.9227
14863SOL    HW146040   4.493   2.343   8.636 -1.4337 -0.1901 -1.9707
14863SOL    HW246041   4.474   2.260   8.511  1.5415 -1.2241 -1.8164
14864SOL     OW46042   5.104   8.422   7.579 -0.0077 -0.7413 -0.2188
14864SOL    HW146043   5.047   8.476   7.523  0.0285 -0.4240  0.0472
14864SOL    HW246044   5.123   8.345   7.526 -0.6248 -0.8163 -0.3447
14865SOL     OW46045   7.680   8.431   3.831 -0.2866 -0.3344 -0.1344
14865SOL    HW146046   7.659   8.429   3.924 -2.2050 -0.3240 -0.5268
14865SOL    HW246047   7.732   8.352   3.816 -0.4341 -0.6270  0.8353
14866SOL     OW46048   1.887   5.056   6.966 -0.4155  0.6603 -0.5628
14866SOL    HW146049   1.816   5.087   7.021 -0.1204 -1.0180  0.8373
14866SOL    HW246050   1.851   4.979   6.921 -0.1367  1.0571 -1.5090
14867SOL     OW46051   3.930   0.530   6.564 -0.5951  0.0233  0.0587
14867SOL    HW146052   3.870   0.505   6.494 -0.2833 -0.0438 -0.1869
14867SOL    HW246053   3.901   0.617   6.592 -1.7114 -0.6081  0.9396
14868SOL     OW46054   4.627   4.895   5.830 -0.6254  0.3544 -0.1927
14868SOL    HW146055   4.675   4.904   5.747  0.8054 -0.3878  0.5213
14868SOL    HW246056   4.537   4.919   5.808 -0.0960  1.0510 -1.7588
14869SOL     OW46057   6.525   1.481   5.567  0.3522 -0.3827  0.0218
14869SOL    HW146058   6.458   1.494   5.635  0.4863  2.1717 -0.2399
14869SOL    HW246059   6.488   1.522   5.489  0.7824 -2.0854 -1.1372
14870SOL     OW46060   6.803   8.577   4.265 -0.4605 -0.7327  0.2138
14870SOL    HW146061   6.876   8.529   4.304 -0.6652 -0.4398  0.9810
14870SOL    HW246062   6.810   8.560   4.171  0.9914 -0.1822  0.1973
14871SOL     OW46063   8.120   2.998   3.127  0.1124  0.3319  0.4482
14871SOL    HW146064   8.134   3.087   3.161  2.9164 -0.8561  2.8538
14871SOL    HW246065   8.072   2.953   3.197 -2.4741  0.1426 -1.2858
14872SOL     OW46066   6.831   8.576   4.670  0.1498  0.9696 -0.4327
14872SOL    HW146067   6.889   8.538   4.603  0.5905  0.9960 -0.0716
14872SOL    HW246068   6.753   8.604   4.621  0.5590  1.1970 -0.9704
14873SOL     OW46069   0.146   3.907   3.387 -0.3679 -0.5422 -0.2711
14873SOL    HW146070   0.057   3.871   3.379 -0.6065  0.2457 -1.2885
14873SOL    HW246071   0.140   3.995   3.351  1.0162 -0.7625 -1.1083
14874SOL     OW46072   4.030   8.609   1.875  0.0922 -0.1013 -0.0812
14874SOL    HW146073   4.112   8.574   1.842  0.2313  0.5835 -0.4972
14874SOL    HW246074   4.049   8.634   1.965  0.6268  0.8963 -0.4454
14875SOL     OW46075   7.889   7.557   5.080  0.3535  0.6844  0.2286
14875SOL    HW146076   7.825   7.493   5.109  0.5149  0.6980  0.6185
14875SOL    HW246077   7.973   7.514   5.092  0.4429  0.8416  0.1686
14876SOL     OW46078   6.927   4.907   4.731 -0.4268 -0.2758  0.2172
14876SOL    HW146079   6.877   4.988   4.717 -0.6349 -0.1493  1.5975
14876SOL    HW246080   6.862   4.837   4.725 -0.7213 -0.1401  1.6039
14877SOL     OW46081   6.609   3.638   2.813 -0.6954 -0.7306  0.5779
14877SOL    HW146082   6.615   3.605   2.902  1.3570  0.2009  0.8355
14877SOL    HW246083   6.661   3.718   2.812 -0.7077 -0.6738 -1.4426
14878SOL     OW46084   1.465   4.462   0.597  0.7636  0.3615 -0.0426
14878SOL    HW146085   1.470   4.440   0.690  1.0994  2.5816  0.5208
14878SOL    HW246086   1.399   4.531   0.592 -0.0527 -0.4797 -1.6476
14879SOL     OW46087   1.300   6.097   4.034  0.1388  0.6117 -0.3760
14879SOL    HW146088   1.359   6.082   3.960 -1.0778 -1.1676 -1.0400
14879SOL    HW246089   1.333   6.038   4.102 -0.2332  0.4057 -0.3755
14880SOL     OW46090   0.333   3.767   7.832  0.0950  0.1866 -0.2832
14880SOL    HW146091   0.298   3.680   7.814 -0.2905  0.2009  0.3725
14880SOL    HW246092   0.303   3.787   7.920  0.2220  0.9630 -0.4100
14881SOL     OW46093   1.789   8.261   3.071 -0.1331  0.1799 -0.2307
14881SOL    HW146094   1.803   8.351   3.101  0.1341 -0.1703  0.7309
14881SOL    HW246095   1.732   8.222   3.138 -0.6408 -0.2331 -0.8895
14882SOL     OW46096   5.979   5.764   0.499 -0.1383  0.1663  0.7462
14882SOL    HW146097   6.034   5.723   0.565 -1.5782  0.5913  2.2727
14882SOL    HW246098   5.975   5.856   0.525  1.4794  0.9766 -1.5310
14883SOL     OW46099   4.101   7.758   1.847 -0.1457  0.0001  0.5426
14883SOL    HW146100   4.033   7.823   1.830  0.0128 -0.1102 -0.6187
14883SOL    HW246101   4.143   7.787   1.928  0.1930  1.5869 -0.1655
14884SOL     OW46102   3.567   6.912   5.912  0.7033 -0.1562  0.2292
14884SOL    HW146103   3.598   6.872   5.831 -1.3071 -0.8058 -0.3003
14884SOL    HW246104   3.553   7.004   5.890 -0.0213 -0.3701 -0.2514
14885SOL     OW46105   6.428   5.622   6.850 -0.0059  0.2148 -0.2116
14885SOL    HW146106   6.378   5.577   6.782 -3.1818  0.9208  1.4649
14885SOL    HW246107   6.404   5.578   6.931  0.0469  2.2539  0.9900
14886SOL     OW46108   5.601   6.699   1.174  0.2549 -0.0896  0.0590
14886SOL    HW146109   5.557   6.700   1.259  0.7923 -0.2667  0.3417
14886SOL    HW246110   5.630   6.608   1.163 -1.7480 -0.6217 -1.3261
14887SOL     OW46111   7.397   1.056   2.575  0.0557 -0.4833  0.6141
14887SOL    HW146112   7.393   1.096   2.662  0.7759  0.9130  0.0424
14887SOL    HW246113   7.351   0.973   2.584  0.1041 -0.3488  2.3203
14888SOL     OW46114   2.041   5.449   1.883  0.3844  0.3174 -0.5023
14888SOL    HW146115   2.127   5.415   1.908 -0.5607 -1.6323  0.3308
14888SOL    HW246116   2.057   5.498   1.802  2.4692  1.1464  0.3523
14889SOL     OW46117   8.481   6.869   4.383 -0.4748  0.2782  0.0909
14889SOL    HW146118   8.487   6.888   4.477  0.3799  0.8142 -0.0652
14889SOL    HW246119   8.545   6.799   4.369 -2.0517 -1.2933  0.2564
14890SOL     OW46120   0.692   0.217   9.204 -0.5246  0.1970  0.2213
14890SOL    HW146121   0.676   0.137   9.255 -0.4490  1.0309  1.6118
14890SOL    HW246122   0.764   0.195   9.146 -2.6233 -1.7633 -1.8285
14891SOL     OW46123   4.074   7.464   9.076  0.0631 -0.1577  0.3458
14891SOL    HW146124   4.150   7.485   9.130 -1.0570  0.9767  1.5800
14891SOL    HW246125   4.074   7.369   9.070  0.1947 -0.3446  2.4797
14892SOL     OW46126   5.423   3.357   6.406 -0.6172 -0.2768 -0.1271
14892SOL    HW146127   5.493   3.419   6.428 -1.8836  0.3974  2.4502
14892SOL    HW246128   5.400   3.377   6.316 -0.8644  2.9843  0.5481
14893SOL     OW46129   4.762   8.583   5.156  0.0004 -0.3634  0.2149
14893SOL    HW146130   4.723   8.664   5.188 -0.0865 -0.1259 -0.4801
14893SOL    HW246131   4.831   8.563   5.220  0.4784  0.6164  0.0240
14894SOL     OW46132   8.726   0.499   4.748  0.4973  0.0214 -0.4507
14894SOL    HW146133   8.659   0.431   4.757  1.1012 -0.7373 -1.4082
14894SOL    HW246134   8.695   0.571   4.803 -0.9759 -0.3992 -0.6810
14895SOL     OW46135   5.570   4.027   1.123  0.5323 -0.3866  0.3849
14895SOL    HW146136   5.485   3.987   1.140  0.6621 -0.7592  0.1550
14895SOL    HW246137   5.550   4.119   1.107  0.0209 -0.7009 -0.9458
14896SOL     OW46138   6.234   9.041   7.762  0.4262  0.1158 -0.3511
14896SOL    HW146139   6.323   9.035   7.727  0.8699  0.5453  0.6842
14896SOL    HW246140   6.179   9.045   7.684  1.4091  1.3041 -1.0298
14897SOL     OW46141   9.031   3.542   7.005 -0.3771 -0.1278 -0.0848
14897SOL    HW146142   9.104   3.489   6.973 -0.4774 -0.2451 -0.1155
14897SOL    HW246143   8.978   3.482   7.057  0.0680  0.1810  0.7398
14898SOL     OW46144   0.729   0.985   8.329 -0.0677 -0.2625  0.1331
14898SOL    HW146145   0.701   0.940   8.249 -2.3171  0.3616  0.4935
14898SOL    HW246146   0.648   1.021   8.365  1.3278  2.1953  1.0209
14899SOL     OW46147   1.285   1.372   9.091  0.4195 -0.0615 -0.0220
14899SOL    HW146148   1.229   1.450   9.101 -0.0220 -0.4060  0.2186
14899SOL    HW246149   1.354   1.384   9.157  0.1054 -0.0807  0.3182
14900SOL     OW46150   5.902   1.686   1.443 -0.6684 -0.2087  0.3836
14900SOL    HW146151   5.820   1.704   1.489 -0.4232  1.4566  0.2598
14900SOL    HW246152   5.903   1.749   1.371 -0.7996 -2.3955 -1.6474
14901SOL     OW46153   3.224   4.149   0.197  0.4691 -0.0937  0.4119
14901SOL    HW146154   3.256   4.173   0.285  0.7406 -0.0695  0.3090
14901SOL    HW246155   3.262   4.215   0.139 -1.9256  1.5791  0.5849
14902SOL     OW46156   4.013   5.111   2.716  0.0507  0.1428  0.0028
14902SOL    HW146157   4.010   5.015   2.724 -1.9283  0.2692  1.5688
14902SOL    HW246158   4.084   5.138   2.774  0.8037 -0.3731 -0.6597
14903SOL     OW46159   1.686   3.127   4.056  0.1186 -0.6176 -0.1441
14903SOL    HW146160   1.613   3.136   4.116  0.0236 -1.0096 -0.1992
14903SOL    HW246161   1.760   3.103   4.112  0.0477 -0.9048 -0.1694
14904SOL     OW46162   5.875   3.939   7.530 -0.7954 -0.3739  0.0257
14904SOL    HW146163   5.861   3.858   7.580  0.5536 -1.3360 -1.0872
14904SOL    HW246164   5.963   3.930   7.494 -1.2895  0.8129 -1.5517
14905SOL     OW46165   1.724   4.763   3.077  0.2248  0.2547  0.1167
14905SOL    HW146166   1.762   4.719   3.001 -0.3739  0.3559 -0.2496
14905SOL    HW246167   1.758   4.853   3.072  1.3265 -0.1105  0.7800
14906SOL     OW46168   2.778   0.349   6.004 -0.2229 -0.2514 -0.0709
14906SOL    HW146169   2.774   0.318   6.094  0.5384 -1.3014 -0.3862
14906SOL    HW246170   2.811   0.275   5.954  2.1385  1.1407 -0.7842
14907SOL     OW46171   5.865   8.173   5.331  0.1796 -0.4564 -0.1106
14907SOL    HW146172   5.782   8.127   5.342  0.2461 -0.6723 -0.4985
14907SOL    HW246173   5.877   8.181   5.236 -0.0700  0.8128 -0.0563
14908SOL     OW46174   7.783   7.725   1.080  0.1967 -0.0746  0.5065
14908SOL    HW146175   7.853   7.662   1.061 -0.1508  0.0144 -1.3319
14908SOL    HW246176   7.827   7.810   1.081  0.1958 -0.0579 -0.2456
14909SOL     OW46177   0.737   4.336   2.513 -0.5600  0.9075  0.1977
14909SOL    HW146178   0.797   4.363   2.444 -0.4751  1.7737  0.5960
14909SOL    HW246179   0.666   4.400   2.510 -2.0617 -0.7059 -0.9766
14910SOL     OW46180   2.261   7.308   4.826 -0.2761  0.7667  0.3478
14910SOL    HW146181   2.238   7.394   4.793  0.8766  0.5958 -1.0077
14910SOL    HW246182   2.347   7.319   4.866 -0.6789  0.4923  1.3321
14911SOL     OW46183   8.397   5.856   1.280  0.0663 -0.1063  0.0687
14911SOL    HW146184   8.334   5.921   1.312 -0.9781  0.2392 -2.4932
14911SOL    HW246185   8.352   5.772   1.292 -0.8348  0.1201 -1.5191
14912SOL     OW46186   1.664   1.534   5.606  0.2792 -0.3789 -0.4013
14912SOL    HW146187   1.646   1.520   5.699 -0.4915  1.1620 -0.2896
14912SOL    HW246188   1.756   1.511   5.596  1.1325  1.9341  1.3272
14913SOL     OW46189   7.061   0.835   3.742 -0.3683  0.0868  0.1018
14913SOL    HW146190   7.105   0.824   3.826  0.7382  1.4046 -0.2553
14913SOL    HW246191   6.981   0.883   3.763  0.7742  2.0305  0.2573
14914SOL     OW46192   1.377   2.946   4.628  0.0180 -0.5762 -0.0267
14914SOL    HW146193   1.285   2.937   4.652  0.0178  1.6327  0.9841
14914SOL    HW246194   1.375   2.980   4.538 -0.2372  1.2843  0.6484
14915SOL     OW46195   7.824   4.594   0.560 -0.4654  0.2322  0.8870
14915SOL    HW146196   7.832   4.499   0.551 -0.1139  0.1452  2.0058
14915SOL    HW246197   7.833   4.627   0.470 -1.5603 -0.8462  0.3576
14916SOL     OW46198   7.620   8.746   1.205 -0.0933 -0.1730 -0.2366
14916SOL    HW146199   7.617   8.651   1.214 -0.0516 -0.4409 -2.5103
14916SOL    HW246200   7.661   8.761   1.120  0.3583  1.9056  0.2911
14917SOL     OW46201   7.866   3.839   2.704  0.6897 -0.0755 -0.2207
14917SOL    HW146202   7.820   3.827   2.621  0.1379 -0.7599  0.1814
14917SOL    HW246203   7.880   3.750   2.737  0.4267  0.2145  0.6885
14918SOL     OW46204   7.956   2.376   6.172  0.1833 -0.4194 -0.0121
14918SOL    HW146205   8.036   2.324   6.166  1.0124  0.1188  3.9490
14918SOL    HW246206   7.987   2.467   6.179 -0.8083 -0.1039  0.4669
14919SOL     OW46207   7.425   5.569   6.218  0.1543 -0.0353  0.6702
14919SOL    HW146208   7.509   5.608   6.194 -0.3287  0.0591 -0.9650
14919SOL    HW246209   7.369   5.582   6.142 -0.8268 -1.6085  1.0626
14920SOL     OW46210   1.237   1.563   7.483 -0.2992 -0.1590 -0.5582
14920SOL    HW146211   1.281   1.493   7.532 -0.4852 -1.4674 -2.1948
14920SOL    HW246212   1.284   1.643   7.509  1.3988 -1.1802 -0.3567
14921SOL     OW46213   2.715   4.391   7.212  0.1802 -0.6758 -0.2068
14921SOL    HW146214   2.731   4.458   7.146  1.4978 -0.1937  0.5604
14921SOL    HW246215   2.721   4.308   7.164 -0.5525 -0.2839 -0.9870
14922SOL     OW46216   2.613   6.365   9.142 -0.6918  0.1734 -0.1899
14922SOL    HW146217   2.597   6.397   9.053 -0.5166 -0.7808 -0.5709
14922SOL    HW246218   2.531   6.324   9.168 -0.4357 -0.4132 -0.2902
14923SOL     OW46219   8.011   7.954   1.044 -0.3207  0.2387 -0.5427
14923SOL    HW146220   8.015   7.997   0.958  2.0111  1.3362  0.0248
14923SOL    HW246221   7.940   7.998   1.090  0.2730  1.6753 -0.9433
14924SOL     OW46222   7.629   7.492   2.219  0.2039  0.1252 -0.0664
14924SOL    HW146223   7.680   7.413   2.201 -1.7456 -0.5221 -3.6582
14924SOL    HW246224   7.545   7.459   2.251 -1.4310  0.3740 -3.6180
14925SOL     OW46225   8.743   1.493   1.858 -0.4047  0.0758 -0.4155
14925SOL    HW146226   8.761   1.414   1.807 -0.4061 -0.7753  0.8444
14925SOL    HW246227   8.816   1.499   1.920  0.2751  1.8081 -1.3272
14926SOL     OW46228   8.960   9.095   5.431 -0.0890 -0.4014 -0.2540
14926SOL    HW146229   8.998   9.011   5.404  1.7213  0.6573 -1.1610
14926SOL    HW246230   8.960   9.148   5.351  1.4052  1.3805  0.8491
14927SOL     OW46231   2.214   5.767   7.942  0.4060 -0.3120 -0.1053
14927SOL    HW146232   2.217   5.803   8.030  0.7358 -0.6041  0.0076
14927SOL    HW246233   2.137   5.709   7.942 -0.4436  0.7899 -0.4513
14928SOL     OW46234   3.680   8.870   5.868  0.1190 -0.3797  0.1897
14928SOL    HW146235   3.728   8.864   5.785 -0.6781 -0.1377 -0.3081
14928SOL    HW246236   3.731   8.818   5.930  0.3548 -1.1590 -0.6365
14929SOL     OW46237   0.397   7.510   0.304 -0.1731 -0.0890  0.2743
14929SOL    HW146238   0.452   7.432   0.289  0.5500 -0.1134  2.6336
14929SOL    HW246239   0.330   7.480   0.364 -1.7526  0.4132 -1.1683
14930SOL     OW46240   0.012   6.048   9.150  0.6804  0.5440 -0.4817
14930SOL    HW146241   0.073   6.002   9.208  0.0418  1.9996  1.4504
14930SOL    HW246242   0.044   6.138   9.148  0.0494  0.7609 -1.5270
14931SOL     OW46243   5.720   6.418   0.245  0.6280  0.1016 -0.2537
14931SOL    HW146244   5.762   6.386   0.325  1.3993 -0.0184 -0.7042
14931SOL    HW246245   5.634   6.449   0.275  1.6941  2.0639  1.0332
14932SOL     OW46246   4.169   7.673   7.495  0.1657  0.8887 -0.0650
14932SOL    HW146247   4.151   7.761   7.462 -0.9127  0.8974  0.4853
14932SOL    HW246248   4.106   7.661   7.567  2.2062  0.7679  1.8098
14933SOL     OW46249   2.455   8.413   2.029  0.1441  0.2102  0.2429
14933SOL    HW146250   2.450   8.506   2.050 -2.2129  1.0322 -2.9807
14933SOL    HW246251   2.375   8.376   2.067  1.2796 -0.6830  1.8821
14934SOL     OW46252   2.053   8.202   6.305  0.2062 -0.0226 -0.0871
14934SOL    HW146253   2.108   8.132   6.339  1.7009  0.2364 -1.8450
14934SOL    HW246254   1.995   8.159   6.242 -1.3448 -0.2006  1.3658
14935SOL     OW46255   0.236   8.100   6.647 -0.1666  0.3273 -0.2834
14935SOL    HW146256   0.312   8.052   6.613  0.6788  1.0134  0.5751
14935SOL    HW246257   0.249   8.190   6.616 -0.7753  0.3902 -0.3613
14936SOL     OW46258   0.103   6.368   0.674  0.2343  0.3607 -0.0336
14936SOL    HW146259   0.039   6.425   0.716  0.9222  0.1833  1.2867
14936SOL    HW246260   0.050   6.299   0.634 -0.5081  1.1640 -0.4868
14937SOL     OW46261   0.422   5.883   1.786  0.1672  0.1650 -0.4531
14937SOL    HW146262   0.493   5.932   1.745 -1.6150  1.5200 -2.1067
14937SOL    HW246263   0.371   5.849   1.713 -0.9513 -0.6893  0.6769
14938SOL     OW46264   7.958   1.052   8.843  0.1830  0.2436  0.1464
14938SOL    HW146265   7.977   1.126   8.901  1.0550 -0.2500  0.5117
14938SOL    HW246266   8.041   1.035   8.798 -0.0280 -0.4682  0.0216
14939SOL     OW46267   1.329   3.466   3.012  0.2757  0.5301  0.5752
14939SOL    HW146268   1.323   3.495   3.103  1.8255 -1.4863  1.3923
14939SOL    HW246269   1.421   3.443   3.001 -0.2989 -1.2705 -0.8526
14940SOL     OW46270   8.349   9.079   2.685  0.0282  0.2124  0.3976
14940SOL    HW146271   8.339   9.133   2.763  1.5516 -0.4392  1.0999
14940SOL    HW246272   8.261   9.048   2.665 -0.2340 -0.7564  2.7288
14941SOL     OW46273   6.871   8.976   8.908 -0.0509  0.2499  0.0920
14941SOL    HW146274   6.777   8.993   8.905 -0.2292 -0.6013  0.5046
14941SOL    HW246275   6.878   8.882   8.926  0.8662  0.6889  2.3544
14942SOL     OW46276   5.276   4.095   4.484  0.4586  0.7735 -0.1456
14942SOL    HW146277   5.293   4.002   4.500 -0.5450  0.8212  1.4739
14942SOL    HW246278   5.204   4.096   4.421 -0.0223  0.4227  0.3847
14943SOL     OW46279   2.409   1.838   5.276 -0.1279  0.3863 -0.6565
14943SOL    HW146280   2.404   1.789   5.359 -1.9755  1.3690 -0.1536
14943SOL    HW246281   2.325   1.824   5.234  0.9396 -0.4891 -2.6699
14944SOL     OW46282   1.213   1.611   7.155  0.0286 -0.1031  0.2458
14944SOL    HW146283   1.195   1.518   7.138  0.0941 -0.0734  0.0170
14944SOL    HW246284   1.295   1.612   7.204 -0.1986 -0.1929  0.6367
14945SOL     OW46285   0.075   0.603   2.391  0.2915 -0.3778 -0.4334
14945SOL    HW146286   0.129   0.588   2.313 -0.0772  1.4200 -1.0842
14945SOL    HW246287  -0.015   0.601   2.358  0.0660 -0.7956  0.1857
14946SOL     OW46288   2.968   0.357   4.204 -0.9989  0.5740 -0.0041
14946SOL    HW146289   3.035   0.397   4.149 -1.9325 -0.1691 -1.7473
14946SOL    HW246290   2.949   0.424   4.270  0.6799  1.2013 -0.0991
14947SOL     OW46291   2.648   7.000   2.588 -0.4018 -0.0079 -0.3593
14947SOL    HW146292   2.592   6.985   2.664 -0.3738 -0.3547 -0.4038
14947SOL    HW246293   2.737   6.992   2.621 -0.2737  2.8459  0.2067
14948SOL     OW46294   5.617   4.736   0.423 -0.4081  0.7484 -0.3251
14948SOL    HW146295   5.632   4.663   0.364 -0.5946  0.3541  0.1155
14948SOL    HW246296   5.676   4.721   0.497  0.2609  1.5524 -0.6766
14949SOL     OW46297   1.463   5.024   0.987 -1.0116  0.2998 -0.0657
14949SOL    HW146298   1.499   4.937   0.974 -0.5614  0.7963 -2.7787
14949SOL    HW246299   1.533   5.083   0.960 -2.0921  1.4187 -0.5247
14950SOL     OW46300   5.664   0.050   6.788  0.1598 -0.0329 -0.6370
14950SOL    HW146301   5.732   0.095   6.738  0.0162  0.4272 -0.4249
14950SOL    HW246302   5.646   0.108   6.862 -0.5448 -0.0908 -0.7555
14951SOL     OW46303   3.003   2.850   2.658  0.0616  0.0671  0.0864
14951SOL    HW146304   2.932   2.872   2.719  0.8705  0.4821  0.9085
14951SOL    HW246305   2.958   2.825   2.577 -0.9936  1.9078  0.0397
14952SOL     OW46306   4.185   1.284   4.037  0.4116 -0.2970 -0.1689
14952SOL    HW146307   4.189   1.308   3.945  1.9755 -2.3140 -0.7141
14952SOL    HW246308   4.275   1.258   4.059 -0.1454 -0.8639  1.6171
14953SOL     OW46309   6.483   8.814   5.693 -0.4967 -0.1051  0.0901
14953SOL    HW146310   6.449   8.786   5.609 -1.2396  0.4445  0.1930
14953SOL    HW246311   6.412   8.797   5.755  0.8095 -2.5849  1.0446
14954SOL     OW46312   7.651   3.068   5.123 -0.2066  0.3225  0.0487
14954SOL    HW146313   7.610   2.987   5.095  0.6406  0.2222 -0.9711
14954SOL    HW246314   7.578   3.125   5.146 -0.8015 -0.7431  0.8451
14955SOL     OW46315   3.074   6.314   7.596  0.5767 -0.0844  0.1401
14955SOL    HW146316   3.119   6.368   7.531 -0.1022 -0.6857 -0.8616
14955SOL    HW246317   2.981   6.328   7.578  0.3056  1.1935  2.2208
14956SOL     OW46318   5.478   6.554   0.304 -0.1974  0.4291  0.1427
14956SOL    HW146319   5.470   6.551   0.399  2.8561 -1.8879  0.4976
14956SOL    HW246320   5.498   6.645   0.284  0.9437  0.6179  1.9846
14957SOL     OW46321   3.677   8.490   5.467 -0.5721 -0.1777  0.3965
14957SOL    HW146322   3.607   8.483   5.402 -0.0500 -1.2085 -0.0810
14957SOL    HW246323   3.752   8.522   5.417 -0.7934  1.3997  1.0010
14958SOL     OW46324   5.482   8.488   5.818  0.1457 -0.0675  0.0215
14958SOL    HW146325   5.565   8.517   5.780 -0.3963  1.9619  0.2389
14958SOL    HW246326   5.418   8.550   5.784 -0.8519 -0.0221  1.8553
14959SOL     OW46327   6.730   5.258   6.141 -0.4216  0.4403 -0.1815
14959SOL    HW146328   6.823   5.235   6.150 -0.4961  0.0785 -0.3138
14959SOL    HW246329   6.712   5.313   6.216 -0.5129 -0.8199  0.7619
14960SOL     OW46330   5.667   2.248   3.774 -0.0314 -0.4198  0.5128
14960SOL    HW146331   5.705   2.310   3.837 -0.5320  0.9558 -0.5058
14960SOL    HW246332   5.688   2.285   3.688 -0.6289 -1.5001 -0.1143
14961SOL     OW46333   1.654   6.228   2.175 -0.4974  0.3092 -0.3827
14961SOL    HW146334   1.563   6.209   2.196 -0.5434  0.5021 -0.4043
14961SOL    HW246335   1.687   6.274   2.253 -0.3538  0.0314 -0.2800
14962SOL     OW46336   0.273   0.423   5.638 -0.3710 -0.2922 -0.5905
14962SOL    HW146337   0.254   0.461   5.723 -0.1595  0.3394 -0.8144
14962SOL    HW246338   0.323   0.344   5.657 -1.8801 -1.1630 -0.0618
14963SOL     OW46339   7.183   4.283   6.480  0.3317  0.1904 -0.1460
14963SOL    HW146340   7.246   4.211   6.481  1.8962  1.4716 -0.6632
14963SOL    HW246341   7.230   4.355   6.522 -1.1118  0.9780  0.1767
14964SOL     OW46342   0.297   3.915   4.066  0.0167  0.4811 -0.2281
14964SOL    HW146343   0.368   3.955   4.017  1.4508 -1.5136  0.1100
14964SOL    HW246344   0.237   3.881   3.999  0.2345  0.6978 -0.5346
14965SOL     OW46345   1.612   3.883   3.496  0.2760 -0.0132  0.0862
14965SOL    HW146346   1.674   3.954   3.514  0.4261 -0.3483  0.9132
14965SOL    HW246347   1.668   3.808   3.474  0.1186  0.1101 -0.7625
14966SOL     OW46348   7.559   2.350   4.151 -0.3156  0.1060 -0.0685
14966SOL    HW146349   7.562   2.419   4.217 -0.0394 -0.2030  0.2493
14966SOL    HW246350   7.621   2.284   4.182 -0.3776 -0.1647 -0.5028
14967SOL     OW46351   2.726   8.793   7.484  0.0398 -0.1481 -0.0174
14967SOL    HW146352   2.685   8.871   7.523 -2.5533 -1.3440 -0.1320
14967SOL    HW246353   2.714   8.725   7.550 -0.6587 -1.2066 -1.1986
14968SOL     OW46354   8.247   0.813   5.519 -0.2343  0.1797 -0.2483
14968SOL    HW146355   8.314   0.777   5.461  0.8905 -0.6463  1.4785
14968SOL    HW246356   8.296   0.844   5.595 -1.6874  0.9934  0.3949
14969SOL     OW46357   8.367   3.560   1.202  0.5626  0.2402  0.4136
14969SOL    HW146358   8.330   3.573   1.289  0.8866  0.7857  0.4787
14969SOL    HW246359   8.400   3.470   1.202  3.1793  1.0902  1.8942
14970SOL     OW46360   2.429   6.576   6.558 -0.5159 -0.0507 -0.4962
14970SOL    HW146361   2.507   6.615   6.520 -0.7319 -0.1017 -0.9997
14970SOL    HW246362   2.357   6.606   6.502 -0.8663  0.0367 -0.0122
14971SOL     OW46363   5.149   4.189   7.918 -0.0326  0.0201  0.1510
14971SOL    HW146364   5.132   4.162   7.828  0.5809  0.3669 -0.0670
14971SOL    HW246365   5.159   4.106   7.966 -1.0782 -0.1790  0.0507
14972SOL     OW46366   6.768   1.167   4.633 -0.0407 -0.4302  0.2094
14972SOL    HW146367   6.701   1.107   4.666 -0.8501  0.2315 -0.1914
14972SOL    HW246368   6.720   1.229   4.578  0.6764  0.9741  1.1120
14973SOL     OW46369   7.497   8.613   6.833  0.0177  0.6564  0.3941
14973SOL    HW146370   7.413   8.610   6.879 -0.5068 -0.4019 -0.6083
14973SOL    HW246371   7.534   8.699   6.857 -0.3925  0.3049  2.4703
14974SOL     OW46372   6.811   1.463   8.775  0.0754 -0.2381 -0.2094
14974SOL    HW146373   6.842   1.400   8.840 -0.7213  0.1688  0.5937
14974SOL    HW246374   6.738   1.419   8.732 -0.6089  0.1674  0.4855
14975SOL     OW46375   7.590   1.153   5.709  0.0780 -0.6083  0.0164
14975SOL    HW146376   7.682   1.177   5.702  0.0399  0.1567  1.5659
14975SOL    HW246377   7.590   1.058   5.712  0.6549 -0.6872 -1.6403
14976SOL     OW46378   2.265   1.647   6.013 -0.5523 -0.2192 -0.1005
14976SOL    HW146379   2.257   1.655   6.108  1.4604 -0.3408  0.1230
14976SOL    HW246380   2.189   1.594   5.987 -1.9684  1.0665  1.2117
14977SOL     OW46381   6.948   6.218   1.206  0.2823  0.2025  0.1214
14977SOL    HW146382   6.999   6.239   1.284  3.6310  0.9028 -2.0294
14977SOL    HW246383   6.956   6.123   1.197  0.2317  0.1700  0.4318
14978SOL     OW46384   2.711   4.093   5.522 -0.4836 -0.0222  0.4454
14978SOL    HW146385   2.637   4.119   5.468 -0.7970  2.6799  2.0026
14978SOL    HW246386   2.680   4.101   5.612  1.7468  1.5609  1.1738
14979SOL     OW46387   6.261   0.109   3.201  0.1999  0.1585 -0.1163
14979SOL    HW146388   6.354   0.131   3.198  0.3243  0.5496  3.0094
14979SOL    HW246389   6.258   0.022   3.239 -0.7139  0.6845  1.0793
14980SOL     OW46390   0.323   5.988   0.518  0.5510  0.4255  0.7439
14980SOL    HW146391   0.331   5.946   0.432  0.5018  2.0351 -0.0931
14980SOL    HW246392   0.357   6.076   0.504  0.6856  0.6618  2.4373
14981SOL     OW46393   5.966   3.735   1.827 -0.0816  0.0414  0.2121
14981SOL    HW146394   5.952   3.751   1.733 -0.4185  2.7511  0.6299
14981SOL    HW246395   5.898   3.787   1.870  1.2942  0.4773  1.9857
14982SOL     OW46396   6.749   1.739   7.688 -0.0212 -0.1096 -0.8539
14982SOL    HW146397   6.777   1.830   7.686  0.5030 -0.2860 -2.3165
14982SOL    HW246398   6.657   1.742   7.715  0.7772  0.6138  2.1656
14983SOL     OW46399   6.335   4.715   5.250 -0.4348  0.0908 -0.0760
14983SOL    HW146400   6.310   4.683   5.337  1.7262  1.8711  1.3374
14983SOL    HW246401   6.406   4.657   5.223  0.7365  1.1514  0.6374
14984SOL     OW46402   7.685   3.386   1.999 -0.2188  0.3015  0.3440
14984SOL    HW146403   7.610   3.433   1.962  0.7565  0.7697 -1.1466
14984SOL    HW246404   7.647   3.323   2.060 -1.6713  1.8584  1.1018
14985SOL     OW46405   7.235   6.921   5.104 -0.0329  0.2815 -0.2178
14985SOL    HW146406   7.170   6.924   5.174 -0.0700  1.4554 -0.2866
14985SOL    HW246407   7.295   6.851   5.131  0.2794  1.0894  1.2827
14986SOL     OW46408   4.974   6.467   0.141 -0.3190  0.1306 -0.6189
14986SOL    HW146409   4.976   6.400   0.073 -0.2370 -2.3044  1.6065
14986SOL    HW246410   5.066   6.476   0.168 -0.6672 -1.9316  1.7158
14987SOL     OW46411   2.520   2.252   0.959  0.1187  0.6113 -0.2335
14987SOL    HW146412   2.495   2.313   1.028  1.4022  1.0895 -0.1595
14987SOL    HW246413   2.519   2.305   0.879  0.4011  0.5139 -0.3012
14988SOL     OW46414   3.816   7.359   4.043 -0.2183  0.1405  0.1234
14988SOL    HW146415   3.830   7.433   4.103  1.5151 -0.7908  0.9242
14988SOL    HW246416   3.749   7.306   4.087 -1.3766  1.1087 -0.3901
14989SOL     OW46417   6.959   3.658   1.867 -0.2287  0.3608 -0.7467
14989SOL    HW146418   6.899   3.589   1.837 -0.5593 -1.5989  3.6351
14989SOL    HW246419   6.902   3.728   1.898 -0.2337 -0.2327  0.6735
14990SOL     OW46420   1.506   2.536   0.399 -0.4951  0.6890  0.4242
14990SOL    HW146421   1.473   2.505   0.315  2.1078 -1.9807  0.2151
14990SOL    HW246422   1.589   2.579   0.379 -0.1040  0.5222  1.5718
14991SOL     OW46423   6.720   7.421   9.098  0.4796 -0.3470 -0.1141
14991SOL    HW146424   6.705   7.496   9.041 -0.8615  0.0689  0.7315
14991SOL    HW246425   6.703   7.454   9.186 -2.1223 -2.0543  0.1582
14992SOL     OW46426   0.770   2.107   8.511 -0.2130  0.1627 -0.0366
14992SOL    HW146427   0.777   2.132   8.604 -1.1698 -0.3270  0.1707
14992SOL    HW246428   0.821   2.174   8.465  1.3569 -0.2909  0.9386
14993SOL     OW46429   3.278   3.597   8.648 -0.0303 -0.6054 -0.1679
14993SOL    HW146430   3.372   3.587   8.632  0.2793 -1.8605  2.0192
14993SOL    HW246431   3.252   3.515   8.690 -1.8945  0.1122  0.1883
14994SOL     OW46432   0.077   1.599   1.192  0.1012  0.1940  0.0769
14994SOL    HW146433   0.088   1.536   1.263  0.2343 -0.0596 -0.1639
14994SOL    HW246434  -0.004   1.645   1.213 -0.7171 -0.9662 -0.4234
14995SOL     OW46435   2.120   0.977   3.637  0.2877  0.1257 -0.2876
14995SOL    HW146436   2.145   1.070   3.633  0.7513  0.0498  0.7645
14995SOL    HW246437   2.027   0.977   3.612  0.2932  0.8626 -0.3424
14996SOL     OW46438   2.625   5.386   0.323  0.3124  0.3756  0.9434
14996SOL    HW146439   2.627   5.446   0.398  4.3744 -1.6383  2.7962
14996SOL    HW246440   2.666   5.435   0.252 -0.6665  1.2685  0.9730
14997SOL     OW46441   4.663   2.718   0.985 -0.0363  0.1342  0.5752
14997SOL    HW146442   4.707   2.803   0.990 -0.2057  0.2061  0.8800
14997SOL    HW246443   4.675   2.680   1.072 -1.3139  0.5261  0.9462
14998SOL     OW46444   1.366   0.688   7.813  0.0004 -0.4872 -0.9922
14998SOL    HW146445   1.405   0.768   7.849 -1.7368  0.1116 -0.3604
14998SOL    HW246446   1.385   0.694   7.719 -0.1980  0.7299 -0.9802
14999SOL     OW46447   4.358   6.485   5.479 -0.1140 -0.3595 -0.1882
14999SOL    HW146448   4.337   6.513   5.569  1.7219 -1.2214  0.5454
14999SOL    HW246449   4.427   6.545   5.451 -0.0213 -0.6883 -0.6683
15000SOL     OW46450   8.418   1.422   6.521 -0.2804  0.7451  0.2233
15000SOL    HW146451   8.380   1.454   6.603 -0.8282 -1.6112  0.9695
15000SOL    HW246452   8.509   1.404   6.543  0.0476  1.7876 -0.2154
15001SOL     OW46453   9.044   4.777   4.518  0.3931 -0.4158  0.2994
15001SOL    HW146454   8.989   4.852   4.541  2.2108  1.3266 -0.6444
15001SOL    HW246455   9.009   4.745   4.435 -1.7478 -2.1162  1.7559
15002SOL     OW46456   7.344   0.707   4.462 -0.0066  0.2821 -0.3874
15002SOL    HW146457   7.354   0.631   4.519  1.2770 -0.3986 -1.4619
15002SOL    HW246458   7.334   0.781   4.523  0.3077 -0.5423  0.7065
15003SOL     OW46459   5.348   8.659   8.899 -0.1484 -0.2271 -0.3743
15003SOL    HW146460   5.376   8.744   8.867  0.5543 -0.1306  0.4604
15003SOL    HW246461   5.254   8.669   8.914  0.1789  0.9271  1.2175
15004SOL     OW46462   3.813   5.680   3.633 -0.3728 -0.4105  0.4765
15004SOL    HW146463   3.766   5.605   3.670  0.0960 -0.4455  1.0097
15004SOL    HW246464   3.790   5.678   3.540 -3.4520  1.0660  1.0849
15005SOL     OW46465   3.280   0.524   6.704 -0.1962  1.5247  0.6544
15005SOL    HW146466   3.236   0.498   6.785  1.4588 -1.0097  0.8727
15005SOL    HW246467   3.216   0.508   6.635 -0.7081  1.0281  1.2275
15006SOL     OW46468   8.210   1.933   3.910 -0.0982 -0.2909  0.5834
15006SOL    HW146469   8.267   2.010   3.906 -2.2333  1.3494  0.1889
15006SOL    HW246470   8.270   1.860   3.931  2.3100  1.0857 -1.0460
15007SOL     OW46471   1.748   8.555   5.316 -0.4863  0.1412 -0.9925
15007SOL    HW146472   1.720   8.473   5.275  1.2317 -0.8118 -0.3614
15007SOL    HW246473   1.836   8.570   5.283 -0.2956  1.0688 -0.1280
15008SOL     OW46474   1.860   5.980   3.241 -0.2746  0.2969 -0.0486
15008SOL    HW146475   1.801   5.974   3.167  0.5418  0.8803 -0.7696
15008SOL    HW246476   1.864   5.891   3.277  0.2848 -0.2928 -1.4788
15009SOL     OW46477   8.184   0.349   7.901 -0.6068 -0.1137  0.0001
15009SOL    HW146478   8.121   0.287   7.865 -1.0482  0.2329  0.1543
15009SOL    HW246479   8.259   0.346   7.842  0.3211 -2.4060  1.1908
15010SOL     OW46480   0.969   3.457   6.059 -0.6758 -0.4810 -0.2588
15010SOL    HW146481   0.882   3.497   6.065 -0.4878  0.4741 -2.5954
15010SOL    HW246482   1.028   3.522   6.097 -0.8984 -0.8845  0.8073
15011SOL     OW46483   1.832   2.967   5.916  0.4155  0.0667  0.0256
15011SOL    HW146484   1.830   2.975   6.011  0.6822 -0.5935  0.0944
15011SOL    HW246485   1.760   3.022   5.885  0.2112  0.1344  0.6181
15012SOL     OW46486   6.369   2.558   1.726  0.4668 -0.0499 -0.1198
15012SOL    HW146487   6.452   2.518   1.701  0.9001  0.7393  0.0205
15012SOL    HW246488   6.318   2.486   1.764  0.9274 -0.6258 -0.5683
15013SOL     OW46489   0.790   1.668   1.092 -0.4942  0.9062 -0.5261
15013SOL    HW146490   0.833   1.747   1.123 -2.5916  2.7845 -2.0989
15013SOL    HW246491   0.855   1.626   1.035  0.4422  1.7644 -0.1137
15014SOL     OW46492   8.796   2.167   1.083  0.1385 -0.0477 -0.0955
15014SOL    HW146493   8.852   2.232   1.043  0.3896 -0.1811  0.0387
15014SOL    HW246494   8.800   2.092   1.024  0.4400 -0.2121  0.1322
15015SOL     OW46495   9.131   0.844   7.009  0.8118  0.0329 -0.0371
15015SOL    HW146496   9.151   0.809   6.922 -0.2041 -1.3008  0.2335
15015SOL    HW246497   9.120   0.938   6.995  2.7339  0.1815 -0.9568
15016SOL     OW46498   6.668   4.389   9.254 -0.3636 -0.0039  0.1687
15016SOL    HW146499   6.634   4.433   9.332 -0.3508  1.5193 -0.6380
15016SOL    HW246500   6.760   4.415   9.251 -0.4639  0.2850 -0.5543
15017SOL     OW46501   8.513   1.438   1.029  0.0438 -0.2664  0.2235
15017SOL    HW146502   8.457   1.496   0.977  2.0423  0.6899 -0.9776
15017SOL    HW246503   8.514   1.477   1.116 -1.3393 -0.4698  0.3577
15018SOL     OW46504   0.215   3.970   5.279  0.1665 -0.5527 -0.4676
15018SOL    HW146505   0.267   3.891   5.293  2.3099  0.7265 -0.7809
15018SOL    HW246506   0.138   3.957   5.334 -0.6431 -3.7437 -2.1034
15019SOL     OW46507   0.325   3.830   6.129  0.4706 -0.0261  0.3023
15019SOL    HW146508   0.283   3.763   6.074  0.8411 -1.9953  2.2732
15019SOL    HW246509   0.417   3.828   6.103  0.0905  1.4956 -1.3028
15020SOL     OW46510   5.119   8.775   7.423  0.3944  0.1674 -0.3670
15020SOL    HW146511   5.142   8.855   7.376 -1.3150  1.7789  1.3530
15020SOL    HW246512   5.203   8.735   7.445  1.3306  1.7778 -0.8180
15021SOL     OW46513   3.413   5.508   4.131  0.0477  0.3135 -0.7303
15021SOL    HW146514   3.342   5.561   4.094  0.1261  0.8741 -0.1020
15021SOL    HW246515   3.492   5.548   4.095  0.0307 -1.8934 -3.5260
15022SOL     OW46516   4.701   4.704   3.306  0.4643  0.0751 -0.0116
15022SOL    HW146517   4.653   4.683   3.386 -0.2405  1.1447 -0.1253
15022SOL    HW246518   4.737   4.621   3.276 -1.5076 -0.8415 -0.0322
15023SOL     OW46519   4.557   8.595   6.317 -0.0214  0.2858 -0.2246
15023SOL    HW146520   4.613   8.521   6.293  0.3148  0.8956 -1.4158
15023SOL    HW246521   4.602   8.636   6.391 -0.8665 -1.4091  1.2950
15024SOL     OW46522   0.710   0.121   5.817 -0.1889 -0.2232 -0.3549
15024SOL    HW146523   0.639   0.153   5.872 -0.7309  0.0687 -1.2084
15024SOL    HW246524   0.721   0.030   5.843 -0.4983 -0.1107  0.1746
15025SOL     OW46525   5.656   2.722   4.241  0.4212 -0.6821 -0.4706
15025SOL    HW146526   5.634   2.631   4.259  0.0122 -0.2402  1.5549
15025SOL    HW246527   5.578   2.771   4.265  0.7090  0.2375 -1.3222
15026SOL     OW46528   6.565   5.230   1.336 -0.0213 -0.2687  0.3985
15026SOL    HW146529   6.609   5.275   1.409  3.3332 -1.9490 -0.3596
15026SOL    HW246530   6.591   5.281   1.259 -1.3082 -0.0520  0.0919
15027SOL     OW46531   8.440   3.895   1.908  0.2134 -0.3455 -0.1894
15027SOL    HW146532   8.430   3.800   1.905 -1.1445 -0.2411  0.1862
15027SOL    HW246533   8.448   3.922   1.817  1.3052 -0.8597 -0.2663
15028SOL     OW46534   4.974   0.692   5.100 -0.0925  0.2987 -0.4014
15028SOL    HW146535   4.966   0.787   5.112  0.0405  0.2679 -0.0509
15028SOL    HW246536   4.961   0.656   5.188  1.3553  0.0822 -0.2615
15029SOL     OW46537   7.772   4.349   9.042  0.6013 -0.3380  0.1464
15029SOL    HW146538   7.817   4.413   8.987  2.8142 -0.1912  2.0001
15029SOL    HW246539   7.829   4.337   9.118 -0.3192 -3.5549  0.5092
15030SOL     OW46540   2.230   2.164   2.540 -0.0581 -1.0687 -0.3376
15030SOL    HW146541   2.241   2.111   2.619  1.5809  1.7536  1.4818
15030SOL    HW246542   2.316   2.165   2.499  0.0970  0.4940 -0.0471
15031SOL     OW46543   5.464   2.845   6.671 -0.1650  0.5492  0.5947
15031SOL    HW146544   5.427   2.797   6.745 -0.1301 -2.0703 -0.9667
15031SOL    HW246545   5.558   2.828   6.675 -0.0509  1.0977  0.4115
15032SOL     OW46546   1.103   1.730   6.310  0.2814 -0.4754 -0.5228
15032SOL    HW146547   1.044   1.805   6.303  0.1122 -0.7431 -2.2890
15032SOL    HW246548   1.185   1.760   6.269  1.3012 -0.2377  1.5520
15033SOL     OW46549   7.039   1.611   2.303 -0.2045 -0.2867 -0.0959
15033SOL    HW146550   7.066   1.703   2.307  0.2466 -0.4116 -0.2521
15033SOL    HW246551   7.105   1.564   2.354 -0.5169 -0.5105  0.1147
15034SOL     OW46552   8.313   3.392   3.428 -0.1815 -0.2876 -0.1592
15034SOL    HW146553   8.370   3.398   3.505 -0.5336 -0.1129  0.0925
15034SOL    HW246554   8.294   3.483   3.405 -2.0255 -0.3241  1.0209
15035SOL     OW46555   9.172   8.668   9.028 -0.0835  0.3966  0.2211
15035SOL    HW146556   9.105   8.676   8.960  0.5893 -0.1717 -0.5354
15035SOL    HW246557   9.123   8.651   9.108 -0.8115 -2.4441 -0.7024
15036SOL     OW46558   0.029   1.819   3.258 -0.4340 -0.5024 -0.0754
15036SOL    HW146559   0.013   1.902   3.214 -0.4580 -0.7680 -0.5779
15036SOL    HW246560  -0.035   1.817   3.330  0.1167  0.2684  0.4371
15037SOL     OW46561   7.037   5.655   5.579  0.1388  0.6899  0.3007
15037SOL    HW146562   6.984   5.601   5.638  0.3928 -0.6091 -0.6187
15037SOL    HW246563   6.977   5.723   5.548 -0.5389  0.1925  0.5063
15038SOL     OW46564   7.969   1.414   4.993 -0.6795 -0.4451 -0.5581
15038SOL    HW146565   7.936   1.462   4.917 -1.8652 -0.2997  0.0290
15038SOL    HW246566   7.900   1.422   5.059 -0.6487 -2.4593 -0.2302
15039SOL     OW46567   0.666   8.013   3.992 -0.3296 -0.7564 -0.2595
15039SOL    HW146568   0.716   7.974   3.921 -1.0927 -1.4094 -0.4559
15039SOL    HW246569   0.596   7.949   4.010 -0.2262 -0.5436  0.9809
15040SOL     OW46570   2.420   2.035   7.520  0.1001  0.3338 -0.0708
15040SOL    HW146571   2.340   2.017   7.470  0.3575  2.0615 -1.2076
15040SOL    HW246572   2.405   2.123   7.556  1.0494  0.2157  0.6387
15041SOL     OW46573   6.916   4.578   7.104  0.4237  0.1896  0.0641
15041SOL    HW146574   6.828   4.550   7.079  0.4034 -0.7143  1.0627
15041SOL    HW246575   6.905   4.669   7.133 -0.3175 -0.1119  0.7812
15042SOL     OW46576   6.261   7.167   7.922  0.7906 -0.4829 -0.4453
15042SOL    HW146577   6.248   7.120   7.840 -2.8862 -1.6925  0.6274
15042SOL    HW246578   6.293   7.100   7.983  1.8727  0.0264 -0.4233
15043SOL     OW46579   4.947   8.083   2.279 -0.1247 -0.2124  0.3641
15043SOL    HW146580   4.923   8.171   2.310  0.7331  0.1645 -0.0110
15043SOL    HW246581   5.040   8.076   2.297  0.3486 -0.0978 -1.7692
15044SOL     OW46582   1.123   2.995   5.726  0.0688  0.3322  0.4086
15044SOL    HW146583   1.061   2.925   5.747 -0.7279  0.7655 -0.4362
15044SOL    HW246584   1.068   3.071   5.708  0.8323  0.6439 -0.6663
15045SOL     OW46585   0.845   6.679   8.679  0.0295  0.3943 -0.0484
15045SOL    HW146586   0.845   6.585   8.694  1.1785  0.2544 -0.7881
15045SOL    HW246587   0.766   6.711   8.724 -0.8568 -1.0194 -0.5321
15046SOL     OW46588   4.694   6.624   3.368 -0.1054  0.2620  0.3277
15046SOL    HW146589   4.728   6.535   3.354  0.2277  0.3470  0.5752
15046SOL    HW246590   4.602   6.619   3.343 -0.7887 -0.8115  2.7412
15047SOL     OW46591   1.556   1.485   4.676  0.2967 -0.5278  0.2924
15047SOL    HW146592   1.575   1.578   4.691  1.4175 -0.7545  0.4131
15047SOL    HW246593   1.639   1.450   4.642 -0.3269 -1.3380 -0.4234
15048SOL     OW46594   7.575   8.913   4.515 -0.4523 -0.2648 -0.0034
15048SOL    HW146595   7.535   8.968   4.583  0.1695 -0.6819  0.7233
15048SOL    HW246596   7.653   8.876   4.558 -0.7632 -1.5619 -0.5245
15049SOL     OW46597   5.663   1.900   9.263  0.7863 -0.3052  0.0526
15049SOL    HW146598   5.677   1.995   9.258 -2.1337  0.2782  0.9520
15049SOL    HW246599   5.723   1.871   9.332  0.1282  1.3268  1.3949
15050SOL     OW46600   6.264   8.833   4.315 -0.5278  0.6722 -0.3400
15050SOL    HW146601   6.288   8.887   4.240  4.4822 -2.0420 -1.1276
15050SOL    HW246602   6.240   8.749   4.278  2.7223 -0.9400  0.8633
15051SOL     OW46603   9.127   5.135   2.321  0.4662  0.4896 -0.9505
15051SOL    HW146604   9.202   5.137   2.261  0.7367  0.7794 -0.6093
15051SOL    HW246605   9.164   5.108   2.405  0.3056  1.2246 -0.6296
15052SOL     OW46606   0.291   2.331   7.541 -0.4323 -0.0131  0.0412
15052SOL    HW146607   0.225   2.307   7.606 -0.4984  0.7502  0.2677
15052SOL    HW246608   0.366   2.359   7.592  0.2834 -1.3891 -0.2154
15053SOL     OW46609   6.431   5.089   0.159  0.1627 -0.9645 -0.2242
15053SOL    HW146610   6.365   5.129   0.101 -0.3190  0.0224  0.9495
15053SOL    HW246611   6.508   5.079   0.104 -0.5342 -0.8267 -1.2597
15054SOL     OW46612   7.849   0.593   1.425 -0.1253  0.9249 -0.4109
15054SOL    HW146613   7.795   0.671   1.411 -0.0354  0.8462 -1.2848
15054SOL    HW246614   7.903   0.587   1.346  1.5550  1.2984  0.6692
15055SOL     OW46615   9.013   0.560   6.615 -0.3178 -0.0024 -0.1267
15055SOL    HW146616   8.998   0.614   6.538 -0.2723 -1.6729 -1.3554
15055SOL    HW246617   8.991   0.472   6.588  1.0273 -0.8574  1.3644
15056SOL     OW46618   0.235   2.094   1.436 -0.1471 -0.3594 -0.0275
15056SOL    HW146619   0.311   2.150   1.452 -1.4759  1.2483  1.1592
15056SOL    HW246620   0.262   2.033   1.368  1.1278  2.3412 -2.0956
15057SOL     OW46621   6.794   6.639   5.333  0.2175  0.3731  0.8127
15057SOL    HW146622   6.746   6.558   5.314  1.5793 -0.5878  1.2825
15057SOL    HW246623   6.726   6.705   5.342 -0.9062 -0.6091 -0.1061
15058SOL     OW46624   1.275   0.945   9.254 -0.2925  0.0580 -0.2766
15058SOL    HW146625   1.243   0.955   9.165  0.1055 -1.4925 -0.6261
15058SOL    HW246626   1.260   1.030   9.295  0.2555  1.0408 -2.0394
15059SOL     OW46627   9.273   0.348   1.763  0.6877  0.5225 -0.3141
15059SOL    HW146628   9.208   0.417   1.775  0.5449  0.7594 -2.2415
15059SOL    HW246629   9.321   0.346   1.846  0.0514  2.2447  0.1307
15060SOL     OW46630   3.225   1.627   0.123 -0.2395 -0.7161  0.2378
15060SOL    HW146631   3.302   1.595   0.075 -0.7437 -1.4919 -0.0617
15060SOL    HW246632   3.199   1.706   0.076 -0.5172 -1.2748 -0.5498
15061SOL     OW46633   0.497   4.228   8.290  0.4619 -0.0443  0.4827
15061SOL    HW146634   0.493   4.308   8.238  0.9683 -0.2221  0.1606
15061SOL    HW246635   0.555   4.170   8.240 -0.0803 -0.6975  0.5875
15062SOL     OW46636   8.459   3.255   9.101 -0.5509 -0.2575 -0.0694
15062SOL    HW146637   8.455   3.169   9.058 -0.5873 -0.7155  0.8225
15062SOL    HW246638   8.368   3.284   9.105 -0.5472 -0.2069 -0.3010
15063SOL     OW46639   9.261   7.892   4.395 -0.1066 -0.2364 -0.1895
15063SOL    HW146640   9.247   7.902   4.489 -0.8463 -0.3598 -0.2787
15063SOL    HW246641   9.174   7.875   4.360  0.4224 -2.2785 -0.6432
15064SOL     OW46642   1.365   7.001   4.117 -0.0808 -0.4182  0.0357
15064SOL    HW146643   1.408   6.916   4.116  0.4214 -0.1992  1.0358
15064SOL    HW246644   1.395   7.044   4.037 -2.6041 -2.2044 -2.0335
15065SOL     OW46645   5.043   1.359   6.572 -0.2563 -0.4999 -0.3349
15065SOL    HW146646   5.096   1.312   6.636 -0.0757 -2.7864 -2.0265
15065SOL    HW246647   5.034   1.298   6.499 -0.5603  1.8963 -2.4516
15066SOL     OW46648   9.272   4.681   0.365 -0.0061  0.0817 -0.0497
15066SOL    HW146649   9.294   4.607   0.308 -0.1986  0.9904 -1.3381
15066SOL    HW246650   9.339   4.746   0.347  0.1616  0.2417  1.0748
15067SOL     OW46651   1.541   3.010   5.105  0.1212 -0.0206 -0.5037
15067SOL    HW146652   1.514   3.021   5.014  2.3918  0.2267 -1.2228
15067SOL    HW246653   1.534   2.916   5.121 -0.8669  0.0092 -0.7247
15068SOL     OW46654   7.020   2.145   5.203  0.2257  0.0879  0.7126
15068SOL    HW146655   7.045   2.158   5.111 -2.3727 -2.7254 -0.5799
15068SOL    HW246656   7.072   2.209   5.251  1.1794  2.2164 -2.7644
15069SOL     OW46657   5.633   4.385   2.483 -0.5425 -0.9768  0.3329
15069SOL    HW146658   5.556   4.367   2.536 -2.1433  1.4850 -0.9733
15069SOL    HW246659   5.663   4.471   2.511  1.0681 -1.3830 -0.0045
15070SOL     OW46660   3.730   0.375   7.038  0.3085  0.7778 -0.0713
15070SOL    HW146661   3.733   0.317   6.962  2.8470  0.8196 -0.1022
15070SOL    HW246662   3.778   0.453   7.010 -0.4100  1.6205  0.9661
15071SOL     OW46663   3.225   2.632   0.565 -0.2272 -0.1045  0.0654
15071SOL    HW146664   3.164   2.624   0.638 -0.6715  0.4143 -0.2415
15071SOL    HW246665   3.170   2.642   0.488  0.2307  0.8410 -0.1570
15072SOL     OW46666   6.740   1.087   5.037 -0.6155  0.1353 -0.1743
15072SOL    HW146667   6.702   1.170   5.009  0.9585  0.6347 -0.9925
15072SOL    HW246668   6.821   1.112   5.081 -0.7384 -0.9172  0.6794
15073SOL     OW46669   3.820   9.132   5.996  0.1811  0.1432  0.6312
15073SOL    HW146670   3.765   9.210   5.991 -0.7429 -0.3969  1.7488
15073SOL    HW246671   3.769   9.064   5.950  0.5126 -0.0446  0.5391
15074SOL     OW46672   2.792   2.771   5.590 -0.6303 -0.1188  0.2332
15074SOL    HW146673   2.712   2.822   5.575 -0.8043 -0.3725  0.2947
15074SOL    HW246674   2.853   2.834   5.630 -0.7654  0.1002  0.0973
15075SOL     OW46675   8.698   4.462   6.425  0.2881 -0.1041 -0.6860
15075SOL    HW146676   8.719   4.487   6.335  1.1400 -1.2363 -0.8288
15075SOL    HW246677   8.783   4.443   6.465 -0.1674 -0.8628 -0.0326
15076SOL     OW46678   1.582   7.236   3.036  0.5701 -0.3755 -0.7998
15076SOL    HW146679   1.633   7.169   2.990  0.5102 -0.2388 -1.0695
15076SOL    HW246680   1.647   7.289   3.081  0.5539 -1.2952  0.3542
15077SOL     OW46681   4.833   5.719   0.510  0.2713  0.3725  1.0317
15077SOL    HW146682   4.786   5.754   0.586 -1.6540 -0.2774  0.1893
15077SOL    HW246683   4.845   5.626   0.529  3.2527  0.8831  2.1930
15078SOL     OW46684   1.475   7.735   7.703  0.8799  0.0486  0.2743
15078SOL    HW146685   1.465   7.643   7.679  0.8847  0.0087  0.4236
15078SOL    HW246686   1.436   7.742   7.790  0.0475  0.3760 -0.1093
15079SOL     OW46687   3.243   9.017   6.777 -0.1781  0.1633 -0.3724
15079SOL    HW146688   3.242   9.084   6.708  0.8552 -0.8479 -1.4352
15079SOL    HW246689   3.175   8.955   6.751 -0.7548  0.5070  0.3037
15080SOL     OW46690   6.895   1.208   7.031  0.2353 -0.0404  0.5238
15080SOL    HW146691   6.821   1.243   7.081 -0.1921 -0.2028  0.0115
15080SOL    HW246692   6.923   1.131   7.081 -0.6381 -0.6128  0.1585
15081SOL     OW46693   4.121   6.919   7.917 -0.6764 -0.1339 -0.3789
15081SOL    HW146694   4.080   6.848   7.966 -0.5990  0.7509  1.0336
15081SOL    HW246695   4.056   6.944   7.851 -0.3444 -2.0778 -1.5214
15082SOL     OW46696   6.686   0.179   3.579  0.5267 -0.1088 -0.0212
15082SOL    HW146697   6.625   0.215   3.514  1.1781  0.8051 -0.1517
15082SOL    HW246698   6.752   0.248   3.591  0.5793 -0.3764  1.4045
15083SOL     OW46699   5.634   8.056   5.414 -0.0626  0.6154 -0.0010
15083SOL    HW146700   5.678   7.986   5.462  0.6091  0.0999 -1.3082
15083SOL    HW246701   5.593   8.012   5.340 -1.1272  1.3770  0.1213
15084SOL     OW46702   0.042   5.651   6.384 -0.0801  0.0978 -0.0674
15084SOL    HW146703   0.041   5.559   6.411 -0.5805 -0.1922 -1.0108
15084SOL    HW246704   0.103   5.694   6.444  0.5200 -0.9417  0.0805
15085SOL     OW46705   6.886   5.152   5.753 -0.1495  0.1841 -0.4934
15085SOL    HW146706   6.791   5.153   5.749 -0.2188 -1.1249  0.2569
15085SOL    HW246707   6.912   5.072   5.708  0.4580 -0.4836  0.9719
15086SOL     OW46708   5.372   3.223   3.988 -0.4466  0.3459 -0.2897
15086SOL    HW146709   5.307   3.288   3.959  0.7433  1.3601 -0.7844
15086SOL    HW246710   5.378   3.162   3.915 -2.4325 -1.0721  0.6398
15087SOL     OW46711   1.141   2.994   3.108 -0.0173 -0.2275  0.0884
15087SOL    HW146712   1.150   3.080   3.067 -0.3967 -1.0355 -1.7888
15087SOL    HW246713   1.097   3.012   3.191  1.2803  1.5432  0.4741
15088SOL     OW46714   7.061   5.176   8.048 -0.2058  0.5130  0.1880
15088SOL    HW146715   7.151   5.203   8.033 -0.2565  0.9264  0.6030
15088SOL    HW246716   7.068   5.105   8.113 -0.1860  0.5874  0.2663
15089SOL     OW46717   4.298   2.806   1.146 -0.7865 -0.0205 -0.0323
15089SOL    HW146718   4.303   2.818   1.051  1.6291 -0.5116 -0.0227
15089SOL    HW246719   4.299   2.895   1.181  0.1727  0.1350 -0.4294
15090SOL     OW46720   6.680   4.243   8.714 -0.2266 -0.3565  0.6558
15090SOL    HW146721   6.635   4.194   8.645  1.2051 -0.3998 -0.2726
15090SOL    HW246722   6.725   4.177   8.766 -0.1021 -0.2021  0.7454
15091SOL     OW46723   5.295   4.616   3.336 -0.2858 -0.6728  0.0272
15091SOL    HW146724   5.246   4.633   3.417 -0.1081 -1.3236  0.2741
15091SOL    HW246725   5.271   4.527   3.312  0.8770 -1.0488  0.2198
15092SOL     OW46726   8.149   0.777   4.166  0.0674 -0.1273  0.1492
15092SOL    HW146727   8.059   0.783   4.135 -0.2768 -0.9119  0.9444
15092SOL    HW246728   8.161   0.853   4.223 -0.2000 -0.2001  0.3016
15093SOL     OW46729   5.328   6.466   8.784 -0.4453 -0.0356 -0.0645
15093SOL    HW146730   5.238   6.440   8.767  0.1708 -1.6885 -1.0930
15093SOL    HW246731   5.359   6.404   8.851 -0.0137  0.4041  0.1549
15094SOL     OW46732   3.673   5.600   4.569  0.7556 -0.4964 -0.5338
15094SOL    HW146733   3.588   5.595   4.612  1.4113  0.5896  0.9488
15094SOL    HW246734   3.725   5.532   4.611  0.8182 -0.7299 -0.9862
15095SOL     OW46735   4.750   8.969   4.709 -0.2311 -0.2465  0.1776
15095SOL    HW146736   4.760   8.891   4.763  0.4999  0.0460  0.4803
15095SOL    HW246737   4.672   9.012   4.744 -2.1793 -2.0907 -1.6150
15096SOL     OW46738   4.556   0.013   2.994  0.1778 -0.6652  0.1141
15096SOL    HW146739   4.546   0.046   2.905 -0.7333  0.1486  0.4976
15096SOL    HW246740   4.627  -0.051   2.989  1.8731  1.1953 -0.6911
15097SOL     OW46741   5.501   1.143   0.710  0.0907 -0.3487  0.2592
15097SOL    HW146742   5.472   1.140   0.619 -0.8416  1.9878  0.4192
15097SOL    HW246743   5.430   1.102   0.759 -1.3575  1.9892  0.2687
15098SOL     OW46744   3.808   6.812   2.069 -0.4448  0.5343  0.1533
15098SOL    HW146745   3.752   6.755   2.018 -0.9885  0.3169  0.9863
15098SOL    HW246746   3.807   6.896   2.022 -0.8386  0.3022 -0.2500
15099SOL     OW46747   5.597   5.240   7.807 -0.4408 -0.5739  0.7321
15099SOL    HW146748   5.651   5.170   7.845 -0.8947 -1.1734  0.2853
15099SOL    HW246749   5.602   5.226   7.713 -2.9020 -1.8690  0.6935
15100SOL     OW46750   7.375   7.959   6.074 -0.0103 -0.4644 -0.1240
15100SOL    HW146751   7.443   7.897   6.049  0.3813 -0.0208 -0.1632
15100SOL    HW246752   7.404   7.996   6.157 -0.1025 -0.1282 -0.2372
15101SOL     OW46753   2.592   1.466   0.422 -0.2472  0.4451  0.1924
15101SOL    HW146754   2.549   1.463   0.508  1.0949  1.4419  0.9458
15101SOL    HW246755   2.647   1.544   0.426  3.1442 -1.7015  0.1003
15102SOL     OW46756   2.140   1.123   5.680  0.8076  0.0071 -0.1559
15102SOL    HW146757   2.162   1.091   5.768 -0.1920 -0.6868 -0.1488
15102SOL    HW246758   2.055   1.085   5.661  1.1192 -0.0335 -1.5395
15103SOL     OW46759   1.015   2.284   1.106 -0.2709 -0.1133  0.0343
15103SOL    HW146760   1.064   2.210   1.143  0.5739 -0.1096 -1.0267
15103SOL    HW246761   1.010   2.264   1.012  0.6997  1.5676 -0.4097
15104SOL     OW46762   2.561   1.424   5.647  0.6701  0.2716  0.0638
15104SOL    HW146763   2.612   1.463   5.576  1.2535  1.9464  1.3556
15104SOL    HW246764   2.626   1.401   5.714  0.1738 -1.6515 -0.0530
15105SOL     OW46765   3.817   5.829   6.418 -0.5272  0.2921 -0.1779
15105SOL    HW146766   3.795   5.737   6.430 -0.3033  0.4533  1.8093
15105SOL    HW246767   3.754   5.876   6.473 -0.9757  1.3917 -1.5583
15106SOL     OW46768   8.071   7.193   7.135 -0.2030  0.8137  0.8078
15106SOL    HW146769   8.129   7.172   7.208  0.3485 -0.3741  0.0673
15106SOL    HW246770   8.126   7.240   7.072  0.5434 -1.9113 -0.7182
15107SOL     OW46771   5.498   7.530   2.624  0.3241  0.4711 -0.0923
15107SOL    HW146772   5.558   7.488   2.562 -0.1695 -0.7893  0.2583
15107SOL    HW246773   5.449   7.458   2.663  0.6389  1.2158  1.8124
15108SOL     OW46774   3.009   5.663   1.506  0.1852  0.6874 -0.1512
15108SOL    HW146775   3.094   5.623   1.488  1.2401  2.5831  0.3163
15108SOL    HW246776   2.992   5.720   1.431 -0.4565  0.6891 -0.0134
15109SOL     OW46777   4.980   7.219   5.738 -0.0388 -0.2885  0.0123
15109SOL    HW146778   4.912   7.286   5.750  2.1391  1.9380  1.0625
15109SOL    HW246779   4.972   7.193   5.647  1.1026  4.0858 -1.5916
15110SOL     OW46780   5.543   6.991   2.789 -0.0044  0.4948 -0.4149
15110SOL    HW146781   5.618   6.994   2.729 -0.6384  0.4766 -1.2176
15110SOL    HW246782   5.520   7.082   2.804  0.4058  0.5139  0.1334
15111SOL     OW46783   6.125   9.252   2.812  0.1520  0.5528  0.8566
15111SOL    HW146784   6.046   9.212   2.848  1.5153 -0.6441  2.7319
15111SOL    HW246785   6.190   9.181   2.813  1.2057  1.4022 -0.9204
15112SOL     OW46786   4.860   7.910   0.887  0.0119 -0.4054  0.0064
15112SOL    HW146787   4.854   7.858   0.807  2.4601 -1.2355  0.2641
15112SOL    HW246788   4.848   7.846   0.958  0.2840 -0.1298  0.3064
15113SOL     OW46789   3.297   1.586   6.328 -0.3166  0.2379 -0.1427
15113SOL    HW146790   3.320   1.650   6.260 -0.9460 -0.6455 -1.2119
15113SOL    HW246791   3.214   1.618   6.363 -0.8665 -0.2372 -1.0011
15114SOL     OW46792   0.136   6.550   3.690 -0.4315  0.2958 -0.1188
15114SOL    HW146793   0.146   6.619   3.625 -1.7902  0.0748 -0.5893
15114SOL    HW246794   0.134   6.469   3.640  0.0994 -0.0169  0.3472
15115SOL     OW46795   8.350   7.636   6.934  0.0895  0.1305  0.4493
15115SOL    HW146796   8.397   7.701   6.987  0.4128  1.2015 -1.0879
15115SOL    HW246797   8.260   7.638   6.966 -0.0225  1.7320  0.0969
15116SOL     OW46798   1.060   3.785   8.801 -0.3809 -0.0956 -0.4107
15116SOL    HW146799   1.113   3.731   8.743 -0.3653  0.1202 -0.5998
15116SOL    HW246800   1.088   3.760   8.889  1.6172  1.5208 -0.4974
15117SOL     OW46801   0.757   1.842   6.900 -0.1009 -0.4652 -0.2301
15117SOL    HW146802   0.749   1.839   6.804  2.1062 -0.8044 -0.4520
15117SOL    HW246803   0.766   1.751   6.926  0.6136 -0.2877  0.1572
15118SOL     OW46804   1.501   8.402   3.846  0.3572 -0.1368  1.3526
15118SOL    HW146805   1.416   8.437   3.818 -0.2458 -2.2432  0.4217
15118SOL    HW246806   1.545   8.477   3.886 -0.7246  1.7789 -0.8176
15119SOL     OW46807   1.637   7.349   8.586 -0.3212  0.0546 -0.8018
15119SOL    HW146808   1.549   7.329   8.617  0.2347 -1.0716  0.1382
15119SOL    HW246809   1.695   7.310   8.651  0.8824  1.3808 -1.0408
15120SOL     OW46810   3.255   3.707   1.439 -0.3199 -0.0951 -0.3993
15120SOL    HW146811   3.232   3.768   1.509  0.9658  0.6697 -0.6161
15120SOL    HW246812   3.348   3.686   1.455 -0.3099 -0.7593 -1.2467
15121SOL     OW46813   7.288   2.125   5.335  0.0145 -0.5596 -0.1353
15121SOL    HW146814   7.379   2.102   5.351  0.3880  1.2281  0.5608
15121SOL    HW246815   7.256   2.058   5.275  1.9306 -0.9326 -0.7966
15122SOL     OW46816   8.387   9.068   4.540  0.2105  0.0487 -0.2998
15122SOL    HW146817   8.346   9.124   4.474 -0.2908  1.5461  1.1819
15122SOL    HW246818   8.471   9.044   4.502  0.3146  1.5883 -1.1560
15123SOL     OW46819   5.668   3.179   0.597 -0.4947  0.0058 -0.2896
15123SOL    HW146820   5.634   3.186   0.508  0.7222 -1.7723 -0.9701
15123SOL    HW246821   5.709   3.263   0.614 -1.9135  0.8527 -0.8561
15124SOL     OW46822   0.088   2.362   0.347 -0.1740  0.0487  0.2970
15124SOL    HW146823   0.181   2.357   0.369 -0.7785  0.6072  3.4871
15124SOL    HW246824   0.063   2.271   0.331  0.6820 -0.2558  0.5923
15125SOL     OW46825   2.090   8.167   9.095  0.2450  0.5152 -0.4726
15125SOL    HW146826   2.037   8.124   9.162  0.6731  1.3853  0.4550
15125SOL    HW246827   2.031   8.178   9.021  0.5429 -3.1581 -1.4577
15126SOL     OW46828   3.284   4.293   0.438 -0.4089  0.0764 -0.0775
15126SOL    HW146829   3.372   4.333   0.439 -0.4151  0.1157  1.3654
15126SOL    HW246830   3.224   4.367   0.448 -0.5134 -0.0940  0.6277
15127SOL     OW46831   7.783   2.298   2.029 -0.0376 -0.4424  0.1251
15127SOL    HW146832   7.798   2.274   1.938 -0.3598 -0.2180  0.0082
15127SOL    HW246833   7.701   2.254   2.052 -0.9529  0.9681 -0.2696
15128SOL     OW46834   1.992   1.964   3.687  0.3349  0.4266  0.3643
15128SOL    HW146835   1.931   2.034   3.661  0.1678  0.3676  0.5893
15128SOL    HW246836   1.940   1.884   3.680  0.5918  0.3005 -0.1061
15129SOL     OW46837   2.863   3.184   1.678  0.3584  0.2865  0.0911
15129SOL    HW146838   2.892   3.272   1.654 -0.4335  0.0814 -1.8457
15129SOL    HW246839   2.812   3.196   1.758 -1.7789  2.0157 -1.4260
15130SOL     OW46840   7.844   3.840   3.650 -0.0137  0.1652  0.5628
15130SOL    HW146841   7.794   3.758   3.657  2.1564 -1.2316  0.6580
15130SOL    HW246842   7.875   3.841   3.560  3.8189 -1.6321  1.6583
15131SOL     OW46843   0.351   0.664   9.090 -0.1659  0.6053 -0.0420
15131SOL    HW146844   0.385   0.745   9.053 -1.2607  3.3300  4.1555
15131SOL    HW246845   0.423   0.629   9.142 -0.0503 -0.6350 -0.9702
15132SOL     OW46846   7.091   0.532   5.395  0.4763  0.2299 -0.0039
15132SOL    HW146847   7.006   0.526   5.352 -0.3362  1.6284  1.3052
15132SOL    HW246848   7.101   0.625   5.415  1.6811 -0.1130  1.1303
15133SOL     OW46849   1.356   0.705   5.993  0.1752  0.5585 -0.3050
15133SOL    HW146850   1.414   0.696   5.916 -0.2042  1.7425 -0.7415
15133SOL    HW246851   1.268   0.706   5.956 -0.0451  0.4546  0.2131
15134SOL     OW46852   1.755   8.502   3.677 -0.4912 -0.2588  0.0316
15134SOL    HW146853   1.712   8.441   3.738 -0.7455  0.2924  0.4253
15134SOL    HW246854   1.756   8.585   3.725  1.9453 -0.4676  0.4403
15135SOL     OW46855   7.664   1.341   2.517 -0.3638  0.4185 -0.0224
15135SOL    HW146856   7.721   1.336   2.441  1.9987  0.2216  1.6324
15135SOL    HW246857   7.583   1.380   2.485  0.5059  0.2714 -2.6022
15136SOL     OW46858   1.332   7.090   9.016 -0.0539  0.3482 -0.8000
15136SOL    HW146859   1.392   7.080   9.090  0.2007 -1.7443 -1.2263
15136SOL    HW246860   1.384   7.136   8.950  0.5706 -0.0159 -0.5796
15137SOL     OW46861   3.743   2.391   5.553  0.1511  0.0697 -0.2071
15137SOL    HW146862   3.692   2.380   5.633 -2.8560 -0.4474 -2.0510
15137SOL    HW246863   3.736   2.306   5.509  1.8874  0.2956 -1.0038
15138SOL     OW46864   4.952   2.554   3.909 -0.0393  0.1529 -0.8350
15138SOL    HW146865   4.892   2.603   3.853  1.5742  1.1698 -1.7600
15138SOL    HW246866   5.009   2.621   3.947  0.2933 -0.7389  0.2773
15139SOL     OW46867   7.718   5.082   1.689 -0.0996  0.2635  0.0145
15139SOL    HW146868   7.762   5.066   1.773  0.7236 -0.2872 -0.5044
15139SOL    HW246869   7.709   5.177   1.685  2.2823  0.5370 -0.4359
15140SOL     OW46870   3.782   8.133   8.585 -0.7270  0.7289 -0.0094
15140SOL    HW146871   3.693   8.112   8.557 -0.8599  1.3843 -0.0975
15140SOL    HW246872   3.837   8.071   8.538 -1.1198  0.4732 -0.1366
15141SOL     OW46873   5.076   0.398   8.939  0.2802  0.1563  0.8020
15141SOL    HW146874   5.010   0.468   8.939  0.4807  0.3856 -0.7870
15141SOL    HW246875   5.032   0.323   8.977 -0.9584  0.2802 -0.3242
15142SOL     OW46876   6.620   6.469   4.509  0.0628 -0.0276  0.0595
15142SOL    HW146877   6.536   6.490   4.549  0.4299  0.2826  0.6672
15142SOL    HW246878   6.599   6.456   4.416 -0.5603  0.5868  0.1086
15143SOL     OW46879   3.992   8.516   8.700  0.5410 -0.1847 -0.0911
15143SOL    HW146880   3.901   8.484   8.699  0.1564  0.6808  1.9691
15143SOL    HW246881   4.020   8.504   8.791  2.7041 -0.9304 -0.8065
15144SOL     OW46882   9.061   5.178   6.099 -0.2348  0.1911  0.2156
15144SOL    HW146883   9.061   5.120   6.175  1.1006  1.4343  1.2081
15144SOL    HW246884   9.107   5.257   6.129  1.5725  0.1899 -2.2655
15145SOL     OW46885   4.782   2.519   1.830 -0.7188  0.0546 -0.2168
15145SOL    HW146886   4.716   2.585   1.853 -0.8159 -0.5099  1.2389
15145SOL    HW246887   4.805   2.479   1.914  1.6289  0.3619 -0.6494
15146SOL     OW46888   4.910   1.837   7.005  0.0838  0.2913 -0.3304
15146SOL    HW146889   4.973   1.821   7.075  0.0597 -0.2369 -0.4188
15146SOL    HW246890   4.924   1.764   6.944 -0.0276  0.6385 -0.7760
15147SOL     OW46891   1.072   1.648   0.422 -0.6152  0.4933  0.2630
15147SOL    HW146892   1.057   1.621   0.332 -1.5716  0.6662  0.3594
15147SOL    HW246893   1.091   1.741   0.416  0.4345  0.2765  0.1407
15148SOL     OW46894   6.900   0.850   8.298 -0.1852 -0.1381  0.5641
15148SOL    HW146895   6.957   0.890   8.364 -1.4652  0.1960  1.5175
15148SOL    HW246896   6.894   0.916   8.229  0.6909 -0.2440  0.3725
15149SOL     OW46897   4.718   3.491   8.899 -0.3259  0.9512  0.0324
15149SOL    HW146898   4.699   3.567   8.845  0.2704  1.0047 -0.1094
15149SOL    HW246899   4.656   3.424   8.869 -0.9478  1.4281  0.2625
15150SOL     OW46900   3.776   1.214   7.380 -0.2678 -0.0995 -0.1529
15150SOL    HW146901   3.686   1.201   7.409 -0.0425 -0.1828  0.5251
15150SOL    HW246902   3.768   1.267   7.300 -0.8844  0.3424  0.1948
15151SOL     OW46903   6.896   0.210   3.301 -0.3170 -0.1739 -0.2283
15151SOL    HW146904   6.970   0.265   3.275 -0.6981  0.5404  0.1736
15151SOL    HW246905   6.921   0.173   3.385 -0.6715  0.5988  0.2347
15152SOL     OW46906   5.146   4.570   1.364 -0.3776 -0.0608 -0.3372
15152SOL    HW146907   5.082   4.641   1.361 -1.1843 -0.7960 -0.9857
15152SOL    HW246908   5.121   4.512   1.293 -0.6180 -1.7600  1.0855
15153SOL     OW46909   7.809   2.116   6.527 -0.0136 -0.1886  0.0429
15153SOL    HW146910   7.769   2.125   6.614 -1.5692  2.0401 -0.8402
15153SOL    HW246911   7.757   2.048   6.484  0.8789 -1.4370  0.8613
15154SOL     OW46912   0.915   3.127   0.305  0.2726  0.4156  0.2835
15154SOL    HW146913   0.823   3.101   0.309  0.8242 -2.3013 -1.6382
15154SOL    HW246914   0.926   3.160   0.215  1.3561 -0.2625  0.1477
15155SOL     OW46915   5.187   3.743   3.186  0.0207 -0.4700  0.1534
15155SOL    HW146916   5.203   3.746   3.092 -0.5640 -0.1851  0.0575
15155SOL    HW246917   5.274   3.735   3.225  0.3322  0.1506 -0.3819
15156SOL     OW46918   5.141   3.909   4.790 -0.7099  0.2106 -0.3059
15156SOL    HW146919   5.055   3.876   4.815 -0.4556 -0.6786 -0.5673
15156SOL    HW246920   5.137   4.002   4.810 -1.6163  0.1218  0.0014
15157SOL     OW46921   8.299   8.155   8.501 -0.0423 -0.7401  0.1990
15157SOL    HW146922   8.219   8.168   8.451 -0.2447 -1.4338  0.3275
15157SOL    HW246923   8.369   8.183   8.442 -0.4446  1.2292  0.6011
15158SOL     OW46924   4.228   8.219   4.938 -0.7613  0.9471 -0.2659
15158SOL    HW146925   4.224   8.309   4.905  1.7467  1.6420  1.1420
15158SOL    HW246926   4.320   8.193   4.929 -0.9054 -0.5265  1.7352
15159SOL     OW46927   8.907   4.723   2.103 -0.3644  0.0891 -0.3762
15159SOL    HW146928   8.901   4.801   2.158  0.4471 -0.6884  0.8732
15159SOL    HW246929   8.822   4.718   2.060  0.0539  2.4681 -1.6645
15160SOL     OW46930   4.414   1.630   7.293  0.0395 -0.5722 -0.0251
15160SOL    HW146931   4.344   1.625   7.227  0.3438 -1.9985 -0.2660
15160SOL    HW246932   4.404   1.717   7.331 -1.3953 -0.4588 -0.5845
15161SOL     OW46933   8.956   5.386   0.462  0.1189  0.1574 -0.2056
15161SOL    HW146934   8.935   5.383   0.368 -1.4969  0.0689  0.1293
15161SOL    HW246935   8.922   5.470   0.492  2.0098  0.8997  0.0447
15162SOL     OW46936   8.168   0.684   8.915  0.2782  0.5294 -0.2966
15162SOL    HW146937   8.205   0.611   8.865  0.2923  0.9144 -0.8694
15162SOL    HW246938   8.075   0.663   8.923  0.3452  0.2825 -0.1611
15163SOL     OW46939   8.812   1.920   0.965  0.1356 -0.4348 -0.1220
15163SOL    HW146940   8.808   1.837   1.012  1.0333 -0.6335 -0.3896
15163SOL    HW246941   8.904   1.933   0.946  0.3626  1.7388  1.9321
15164SOL     OW46942   0.102   8.322   8.177 -0.4287 -0.5931  0.8517
15164SOL    HW146943   0.024   8.316   8.233 -1.8166  0.6412 -0.8231
15164SOL    HW246944   0.114   8.416   8.163 -0.4813 -0.8556 -1.3246
15165SOL     OW46945   7.581   6.949   7.988  0.0402 -0.9159 -0.2737
15165SOL    HW146946   7.563   7.029   8.037 -2.4802 -0.6417 -1.4733
15165SOL    HW246947   7.552   6.879   8.046  2.8734 -1.1201  1.0571
15166SOL     OW46948   8.739   1.886   8.386  0.4060 -0.3526 -0.3794
15166SOL    HW146949   8.792   1.806   8.382  3.1796  1.1717  1.8820
15166SOL    HW246950   8.708   1.890   8.477  1.5118  1.7539 -0.0264
15167SOL     OW46951   7.920   1.047   0.127  0.1146  0.1963  0.5739
15167SOL    HW146952   7.996   0.995   0.152  0.3863  0.5199  0.4283
15167SOL    HW246953   7.932   1.130   0.172 -0.3599  0.1027  0.8698
15168SOL     OW46954   5.660   7.702   5.082  0.1268 -0.1249  0.7472
15168SOL    HW146955   5.652   7.638   5.011 -1.0351 -0.6118  1.2815
15168SOL    HW246956   5.581   7.688   5.135 -1.6459  3.5209 -0.5757
15169SOL     OW46957   3.092   7.760   0.156  0.4256 -0.3393 -0.9196
15169SOL    HW146958   3.149   7.689   0.127  0.5801 -0.7987  0.4565
15169SOL    HW246959   3.151   7.834   0.168  1.0185 -1.1193  1.6293
15170SOL     OW46960   2.973   5.971   3.971  0.5335  0.3355 -0.1672
15170SOL    HW146961   2.900   6.032   3.981 -0.1142 -0.2004 -1.3662
15170SOL    HW246962   3.007   5.987   3.883  0.9329 -0.4111 -0.1633
15171SOL     OW46963   1.486   7.134   4.597 -0.1276 -0.2166 -0.4571
15171SOL    HW146964   1.454   7.051   4.562  1.8388 -1.2753  0.0724
15171SOL    HW246965   1.454   7.200   4.536 -2.0881 -1.3022 -0.6670
15172SOL     OW46966   3.196   5.174   4.690 -0.1054 -0.0952 -0.1781
15172SOL    HW146967   3.240   5.095   4.722 -0.7644 -1.0712 -1.5692
15172SOL    HW246968   3.112   5.143   4.657  0.7228  0.6506 -3.3469
15173SOL     OW46969   8.626   6.207   8.212 -0.3721  0.2988  0.0405
15173SOL    HW146970   8.579   6.197   8.129 -0.7164  0.6036  0.1948
15173SOL    HW246971   8.694   6.140   8.209 -0.5430  0.1387 -0.3779
15174SOL     OW46972   1.842   4.551   8.590 -0.1094  0.5894  0.5656
15174SOL    HW146973   1.883   4.570   8.674 -0.7788 -0.0615  1.0506
15174SOL    HW246974   1.749   4.569   8.604 -0.3666 -0.4336  0.2575
15175SOL     OW46975   7.279   6.689   1.948 -0.2961 -0.1680 -0.1990
15175SOL    HW146976   7.264   6.774   1.990  1.4077 -0.1491  0.4410
15175SOL    HW246977   7.336   6.642   2.009  0.4459 -0.9844 -1.4856
15176SOL     OW46978   8.126   8.324   5.055 -0.4585 -0.3860 -0.3693
15176SOL    HW146979   8.135   8.298   4.963 -0.2109  0.8069 -0.6915
15176SOL    HW246980   8.084   8.248   5.096  1.0024 -1.6315 -1.0893
15177SOL     OW46981   6.029   8.234   6.293  0.7159 -0.0486 -0.4257
15177SOL    HW146982   5.936   8.214   6.291  0.9209 -1.3102 -3.5686
15177SOL    HW246983   6.037   8.319   6.250  0.9440  1.0935  1.7023
15178SOL     OW46984   0.985   9.169   1.353 -0.7233  0.4828  0.0136
15178SOL    HW146985   0.946   9.119   1.425 -0.6883  0.7976  0.2543
15178SOL    HW246986   0.953   9.258   1.366  1.4850  1.1593  1.2933
15179SOL     OW46987   0.860   0.059   6.460 -0.4578  0.1445 -0.3022
15179SOL    HW146988   0.927   0.087   6.522 -1.6933  0.6370  0.8607
15179SOL    HW246989   0.896   0.082   6.374  0.1094  2.0371  0.3967
15180SOL     OW46990   6.880   0.542   5.784 -0.1303  0.3750 -0.1654
15180SOL    HW146991   6.854   0.476   5.719  1.5644  1.2137 -1.8203
15180SOL    HW246992   6.975   0.548   5.774 -0.0031  1.5377  1.4576
15181SOL     OW46993   0.262   7.870   1.493  0.8895 -0.4328 -0.1914
15181SOL    HW146994   0.276   7.877   1.399  0.7914  1.8082 -0.1004
15181SOL    HW246995   0.263   7.776   1.511  0.2222 -0.9429 -2.5138
15182SOL     OW46996   7.603   3.466   3.126  0.0832  0.2555  0.6903
15182SOL    HW146997   7.579   3.381   3.089  1.4285  0.3588 -0.5449
15182SOL    HW246998   7.571   3.463   3.216 -0.1989 -1.4329  0.5727
15183SOL     OW46999   4.297   4.428   5.770  0.1658  0.0875  0.3170
15183SOL    HW147000   4.224   4.390   5.819  0.0155 -1.2473 -0.8766
15183SOL    HW247001   4.267   4.429   5.679  1.9878 -1.4646 -0.3627
15184SOL     OW47002   7.023   6.203   5.072 -0.8083 -0.0821 -0.0538
15184SOL    HW147003   6.940   6.245   5.048 -0.1722  1.3474  0.1423
15184SOL    HW247004   7.083   6.226   5.001 -0.2882 -0.1612  0.3541
15185SOL     OW47005   4.298   0.342   4.630  0.1700 -0.1746 -0.2841
15185SOL    HW147006   4.331   0.394   4.558  0.2316 -0.8060 -0.7193
15185SOL    HW247007   4.367   0.346   4.697  0.5620 -0.4357 -0.6729
15186SOL     OW47008   2.562   3.946   8.469 -0.3674  0.3730 -0.2758
15186SOL    HW147009   2.643   3.996   8.480 -1.2848  2.0723 -0.9432
15186SOL    HW247010   2.592   3.856   8.457  1.3950  0.8718  0.0330
15187SOL     OW47011   3.522   6.088   0.052 -0.6186 -0.3135  0.0511
15187SOL    HW147012   3.574   6.160   0.088 -1.7807  0.3811  0.4201
15187SOL    HW247013   3.575   6.053  -0.019  1.0629 -0.6992  1.4081
15188SOL     OW47014   6.725   1.375   7.428 -0.5822 -0.6388  0.2476
15188SOL    HW147015   6.662   1.347   7.495 -2.9241  1.9128 -0.6929
15188SOL    HW247016   6.776   1.444   7.470 -1.2204  0.1119 -0.1836
15189SOL     OW47017   5.991   3.164   2.743  0.4612 -0.0302 -0.5328
15189SOL    HW147018   5.964   3.225   2.674 -1.6595  0.9438  1.0694
15189SOL    HW247019   6.079   3.192   2.766  1.2818 -0.4461 -2.8615
15190SOL     OW47020   5.224   4.093   0.428 -0.0033  0.1121 -0.2561
15190SOL    HW147021   5.134   4.090   0.396 -0.1795  1.2627  0.0862
15190SOL    HW247022   5.278   4.094   0.349 -0.3772  1.3438 -0.5247
15191SOL     OW47023   7.137   6.555   5.597  0.1572 -0.0168  0.1193
15191SOL    HW147024   7.228   6.546   5.569  0.1810 -1.2762  0.5564
15191SOL    HW247025   7.109   6.466   5.616 -1.0179  0.4156  0.4734
15192SOL     OW47026   6.525   6.041   1.927  0.2851 -0.0736 -0.1015
15192SOL    HW147027   6.555   6.014   2.013  1.1095  0.8911 -0.0668
15192SOL    HW247028   6.506   6.134   1.936  0.0980 -0.0286 -0.8816
15193SOL     OW47029   0.453   6.128   8.993 -0.1895 -0.2692  0.3262
15193SOL    HW147030   0.418   6.052   9.039 -2.5342  0.3330 -0.3244
15193SOL    HW247031   0.523   6.093   8.937 -1.0399 -1.8942  0.2439
15194SOL     OW47032   6.608   1.936   5.209 -0.1454 -0.3026  0.1399
15194SOL    HW147033   6.669   2.009   5.199 -0.6730 -0.0284 -1.2519
15194SOL    HW247034   6.660   1.858   5.188  0.1978 -0.2604  0.8017
15195SOL     OW47035   3.000   6.387   3.183 -0.5934  0.5283  0.0015
15195SOL    HW147036   2.926   6.418   3.235  0.3050  0.5860  1.2738
15195SOL    HW247037   3.041   6.467   3.149  0.4369  0.6685  1.4948
15196SOL     OW47038   1.450   3.245   5.289  0.5246 -0.4929 -0.0210
15196SOL    HW147039   1.491   3.329   5.271 -1.2479  0.2472 -0.8648
15196SOL    HW247040   1.513   3.180   5.258  1.2565  0.5674 -0.8171
15197SOL     OW47041   7.660   3.398   0.725 -0.3855 -0.0380 -0.3085
15197SOL    HW147042   7.710   3.434   0.798  0.7499  0.5522 -1.3364
15197SOL    HW247043   7.595   3.341   0.766  0.8721 -0.5157  1.1090
15198SOL     OW47044   2.638   1.984   8.126 -0.2032 -0.0360 -0.1642
15198SOL    HW147045   2.644   2.055   8.190 -0.1143  0.1486 -0.3745
15198SOL    HW247046   2.619   2.028   8.043  2.3794 -0.0092 -0.7993
15199SOL     OW47047   3.259   7.339   9.168  0.5069  0.0955  0.7740
15199SOL    HW147048   3.237   7.271   9.232  1.2574 -1.7120 -0.7558
15199SOL    HW247049   3.339   7.306   9.127 -0.3707  0.7814 -1.6090
15200SOL     OW47050   0.895   3.487   6.425  0.0448  0.0521 -0.6238
15200SOL    HW147051   0.969   3.533   6.384 -1.4435  2.8861 -0.4063
15200SOL    HW247052   0.900   3.510   6.517 -0.8728 -0.0036 -0.5436
15201SOL     OW47053   1.641   4.164   6.005 -0.4666 -0.2789  0.1975
15201SOL    HW147054   1.685   4.245   6.029  0.3315 -0.6145 -0.0994
15201SOL    HW247055   1.655   4.105   6.080 -1.6774  0.0830  0.7331
15202SOL     OW47056   8.438   7.068   8.338  0.6159 -0.2701 -0.6117
15202SOL    HW147057   8.385   7.106   8.407 -1.0166 -0.7176 -1.5683
15202SOL    HW247058   8.477   6.990   8.377 -1.5733 -1.4220 -0.6143
15203SOL     OW47059   2.815   7.789   0.866  0.3442  0.2628  0.2591
15203SOL    HW147060   2.827   7.834   0.783  0.4041  1.2457  0.7803
15203SOL    HW247061   2.903   7.764   0.893  0.4841  1.1655  0.6743
15204SOL     OW47062   7.651   5.407   2.529  0.0374  0.0762  0.1849
15204SOL    HW147063   7.739   5.437   2.553  0.5259 -0.1955 -1.1406
15204SOL    HW247064   7.651   5.410   2.433 -1.1467 -0.6446  0.1467
15205SOL     OW47065   7.065   2.032   5.540  0.6038  0.6146 -0.1882
15205SOL    HW147066   7.042   2.097   5.606 -1.0357  0.7167 -0.8329
15205SOL    HW247067   7.101   2.083   5.467 -0.9519  0.8882 -0.8153
15206SOL     OW47068   4.692   0.485   5.384 -0.3288  0.0837 -0.8822
15206SOL    HW147069   4.756   0.418   5.360  0.1776  0.4889 -0.6864
15206SOL    HW247070   4.643   0.446   5.457  0.8569  0.4325  0.1297
15207SOL     OW47071   6.952   8.769   3.983  0.2369  0.5963  0.1966
15207SOL    HW147072   7.040   8.773   4.021  0.0432 -0.2443  0.7382
15207SOL    HW247073   6.947   8.683   3.942 -0.4639  0.4943  0.4867
15208SOL     OW47074   6.622   6.250   1.695  0.2972 -0.1910  0.4707
15208SOL    HW147075   6.573   6.249   1.777  0.7598 -1.0639  0.7498
15208SOL    HW247076   6.642   6.158   1.678  0.1161 -0.0308 -0.6841
15209SOL     OW47077   4.711   6.455   7.248  0.1464  0.0888  0.1298
15209SOL    HW147078   4.631   6.456   7.301  0.0400  0.8707 -0.0294
15209SOL    HW247079   4.697   6.524   7.183  0.6035 -0.3388 -0.4313
15210SOL     OW47080   5.941   3.238   0.744  0.1282 -0.3730  0.8765
15210SOL    HW147081   5.869   3.300   0.742  1.3977  1.1569 -1.2423
15210SOL    HW247082   6.016   3.289   0.773  0.9838 -1.1569  0.1269
15211SOL     OW47083   0.709   9.267   1.075 -0.3169  0.0565 -0.0141
15211SOL    HW147084   0.670   9.326   1.011  0.3239  0.3304 -0.1529
15211SOL    HW247085   0.743   9.194   1.023  1.4628  0.9486 -0.1536
15212SOL     OW47086   8.559   3.523   6.144 -0.0572 -0.1957  0.2411
15212SOL    HW147087   8.595   3.531   6.056  1.9749 -0.2040  1.0336
15212SOL    HW247088   8.582   3.606   6.187 -0.3432 -0.5060  1.0077
15213SOL     OW47089   8.062   3.313   0.917  0.0645  0.6171 -0.5626
15213SOL    HW147090   8.008   3.257   0.861 -0.7382  2.5941 -1.8673
15213SOL    HW247091   8.018   3.398   0.915  0.6251  1.0541  2.2561
15214SOL     OW47092   5.598   6.904   7.385 -0.2187 -0.3953  0.6184
15214SOL    HW147093   5.564   6.982   7.428 -1.0565 -0.9933  1.0893
15214SOL    HW247094   5.693   6.909   7.396 -0.2831  0.4510  0.8073
15215SOL     OW47095   7.249   5.410   2.773 -0.4285  0.0349  0.2928
15215SOL    HW147096   7.334   5.368   2.781  0.2064  1.1796 -0.2303
15215SOL    HW247097   7.217   5.416   2.863  0.4263  0.3675  0.5811
15216SOL     OW47098   6.082   6.982   7.757  0.1753 -0.5135  0.3925
15216SOL    HW147099   5.990   7.009   7.763  0.6008  1.4593 -0.8047
15216SOL    HW247100   6.103   6.946   7.843 -1.4767 -0.1535  0.9789
15217SOL     OW47101   4.407   7.620   8.986 -0.1405 -0.3858 -0.1999
15217SOL    HW147102   4.326   7.620   8.934  1.1853  2.1541 -2.5161
15217SOL    HW247103   4.441   7.531   8.977 -1.8977 -1.0863 -0.4051
15218SOL     OW47104   6.418   4.117   8.771 -0.2541 -0.2799 -0.5034
15218SOL    HW147105   6.325   4.101   8.783 -0.5816  1.9284  0.4459
15218SOL    HW247106   6.424   4.165   8.688 -0.1776  0.8241  0.1130
15219SOL     OW47107   8.577   1.272   7.186  0.0459 -0.5386  0.2754
15219SOL    HW147108   8.569   1.283   7.281 -2.3842 -1.1998  0.1956
15219SOL    HW247109   8.662   1.229   7.175  1.3773  1.4667  1.9332
15220SOL     OW47110   5.583   8.734   7.209 -0.3444  0.6051  0.1089
15220SOL    HW147111   5.659   8.720   7.265 -0.9004  0.2311  0.7963
15220SOL    HW247112   5.617   8.733   7.120 -0.0156 -3.2494  0.1218
15221SOL     OW47113   4.459   4.070   6.971  0.1940 -0.6212  0.1258
15221SOL    HW147114   4.534   4.038   7.022  0.6176 -0.1846 -0.2052
15221SOL    HW247115   4.384   4.023   7.006  0.6538 -1.2093  0.3336
15222SOL     OW47116   4.427   5.887   0.334  0.2334 -0.2135  0.7958
15222SOL    HW147117   4.481   5.856   0.261  1.2716  2.7126  0.1605
15222SOL    HW247118   4.366   5.815   0.352 -0.2159 -1.0270 -3.1045
15223SOL     OW47119   3.053   1.257   4.961  0.0580  0.1307 -0.0677
15223SOL    HW147120   3.057   1.254   4.866 -0.4443  1.2279 -0.1393
15223SOL    HW247121   3.140   1.286   4.988  0.4161 -0.8303 -0.1355
15224SOL     OW47122   1.135   8.916   3.501 -0.4847  0.0483 -0.0357
15224SOL    HW147123   1.058   8.866   3.473  0.2957 -1.2210  0.0038
15224SOL    HW247124   1.100   9.001   3.527 -1.9381 -0.6507  0.4213
15225SOL     OW47125   5.102   6.837   2.618 -0.0966  0.0342 -0.0312
15225SOL    HW147126   5.128   6.773   2.684  0.0258  0.4258  0.3043
15225SOL    HW247127   5.179   6.845   2.561 -0.4253 -0.7885 -0.6225
15226SOL     OW47128   0.426   8.277   2.364 -0.3023 -0.3183 -0.6641
15226SOL    HW147129   0.505   8.245   2.321 -0.3900 -1.3964 -0.0607
15226SOL    HW247130   0.456   8.347   2.422  0.3147 -1.1628  0.0558
15227SOL     OW47131   7.967   0.616   8.650  0.0337  0.3492 -0.2602
15227SOL    HW147132   7.936   0.527   8.668  1.3928  0.3300  2.5991
15227SOL    HW247133   8.062   0.610   8.658  0.0810  2.2812  1.4345
15228SOL     OW47134   9.034   7.910   7.504  0.0548 -0.8164  0.1669
15228SOL    HW147135   9.053   7.982   7.565 -1.0371 -0.1332 -0.2694
15228SOL    HW247136   9.118   7.895   7.459  0.3435  0.1019  0.3594
15229SOL     OW47137   5.481   7.156   2.165 -0.2205 -0.5029 -0.3929
15229SOL    HW147138   5.551   7.113   2.116  0.7012  0.5961 -0.1024
15229SOL    HW247139   5.408   7.162   2.104  0.2883 -0.7665 -1.0334
15230SOL     OW47140   8.433   6.496   1.396  0.1567  0.2513  0.1189
15230SOL    HW147141   8.403   6.503   1.305  2.5145  2.2368 -0.6286
15230SOL    HW247142   8.495   6.423   1.394 -1.0286 -0.7987  0.5714
15231SOL     OW47143   4.431   9.041   5.493  0.2800 -0.0232  0.4252
15231SOL    HW147144   4.518   9.004   5.504  0.9037  1.5981  1.4177
15231SOL    HW247145   4.439   9.100   5.418 -0.5667 -1.4457 -0.8318
15232SOL     OW47146   4.181   6.336   4.433  0.0850  0.9632  0.4159
15232SOL    HW147147   4.151   6.405   4.492  1.0261  0.6451  1.3075
15232SOL    HW247148   4.273   6.357   4.417  0.1605  0.3775  0.0434
15233SOL     OW47149   0.791   2.841   4.132  0.1922  0.3664  0.8735
15233SOL    HW147150   0.868   2.848   4.188 -0.1268  1.5130  1.2047
15233SOL    HW247151   0.826   2.850   4.043  0.5333  0.0415  0.9714
15234SOL     OW47152   6.981   2.155   5.785  0.7695  0.0670 -0.4847
15234SOL    HW147153   6.901   2.196   5.753  1.4688  2.4275  0.5497
15234SOL    HW247154   6.953   2.107   5.864  0.2481  0.1872 -0.5911
15235SOL     OW47155   4.719   3.595   0.592  0.1189 -0.0594  0.6769
15235SOL    HW147156   4.717   3.540   0.513 -0.6423  0.3549  0.3983
15235SOL    HW247157   4.802   3.642   0.586 -0.0581  0.1758 -0.0209
15236SOL     OW47158   3.291   6.848   3.352 -0.4026 -0.1827 -0.0080
15236SOL    HW147159   3.260   6.783   3.415  0.5014  0.3008  0.9474
15236SOL    HW247160   3.382   6.823   3.333 -0.0074  0.8478  0.4500
15237SOL     OW47161   5.446   7.894   1.199 -0.2297 -0.5866 -0.5220
15237SOL    HW147162   5.505   7.923   1.128 -0.5338 -0.6957 -0.8218
15237SOL    HW247163   5.394   7.824   1.159 -0.7205 -0.3332 -0.3262
15238SOL     OW47164   6.263   8.168   4.075  0.1958  0.3809  0.7758
15238SOL    HW147165   6.299   8.086   4.040 -1.6695  0.0676 -0.5970
15238SOL    HW247166   6.292   8.235   4.013  1.6675  0.8040  1.8633
15239SOL     OW47167   2.088   7.417   1.980  0.6717 -0.5908 -0.0398
15239SOL    HW147168   2.142   7.480   2.027  0.8121 -1.2355  0.6843
15239SOL    HW247169   2.146   7.380   1.914  1.0014 -0.9837  0.4645
15240SOL     OW47170   5.382   3.323   1.179 -0.2281 -0.4599 -0.0725
15240SOL    HW147171   5.286   3.324   1.177 -0.2481  0.0399 -2.9986
15240SOL    HW247172   5.404   3.230   1.170 -0.4212 -0.6015  0.8501
15241SOL     OW47173   6.272   4.635   4.032  0.1643 -0.0190  0.0134
15241SOL    HW147174   6.229   4.555   4.064 -0.8452  1.5653  3.0220
15241SOL    HW247175   6.341   4.603   3.973 -0.6326 -3.0449  0.5253
15242SOL     OW47176   0.504   2.220   4.431  0.1240 -0.9076  0.0603
15242SOL    HW147177   0.427   2.226   4.487  0.3473  1.6499  0.2415
15242SOL    HW247178   0.578   2.219   4.491  0.3103  0.0779 -0.1354
15243SOL     OW47179   2.173   1.589   3.522  0.3732  0.8123  0.6674
15243SOL    HW147180   2.190   1.678   3.553  2.4308  1.1408 -1.1603
15243SOL    HW247181   2.089   1.565   3.561 -0.5804  3.8060  0.6389
15244SOL     OW47182   1.397   7.036   0.065  0.5034 -0.0057 -0.6064
15244SOL    HW147183   1.330   7.104   0.076  1.7059  1.2036 -0.4941
15244SOL    HW247184   1.394   6.987   0.147 -1.6810 -1.3709 -1.4068
15245SOL     OW47185   4.982   7.523   0.718 -0.2619  0.1954 -0.4914
15245SOL    HW147186   4.936   7.439   0.715 -1.4210  0.3297  4.6237
15245SOL    HW247187   5.064   7.505   0.764  0.8839  1.4735 -1.9066
15246SOL     OW47188   3.405   1.124   1.463  0.2020  0.3178  0.0209
15246SOL    HW147189   3.352   1.195   1.500 -0.9638  0.1298 -1.1943
15246SOL    HW247190   3.387   1.049   1.519 -0.9387  0.2343 -0.4182
15247SOL     OW47191   0.239   7.923   6.965 -0.6550  0.2858 -0.2773
15247SOL    HW147192   0.286   7.864   6.906 -1.0619  0.6886 -1.0207
15247SOL    HW247193   0.147   7.900   6.953 -0.8513  1.2966 -0.8525
15248SOL     OW47194   5.739   7.723   3.180 -0.4848  0.2175 -0.0909
15248SOL    HW147195   5.679   7.729   3.255  1.8670  0.3001  1.9228
15248SOL    HW247196   5.771   7.633   3.182  1.8774  0.9956  0.9989
15249SOL     OW47197   6.308   1.510   5.738  0.6433  0.2435  0.1241
15249SOL    HW147198   6.251   1.436   5.757  0.9884 -0.0117  0.1681
15249SOL    HW247199   6.331   1.546   5.825 -0.4932  1.1537  0.0787
15250SOL     OW47200   6.350   1.327   5.144  0.0758  0.3881 -0.0190
15250SOL    HW147201   6.353   1.422   5.133 -1.4286  0.2500 -2.2724
15250SOL    HW247202   6.323   1.314   5.235 -0.2999  2.1377  0.1532
15251SOL     OW47203   5.788   3.782   5.565  0.0671 -0.6032 -0.2499
15251SOL    HW147204   5.767   3.831   5.486  0.7704 -0.3331 -0.2752
15251SOL    HW247205   5.745   3.697   5.553 -1.2306  0.0167 -0.1711
15252SOL     OW47206   7.876   1.392   3.401 -0.2518 -0.0462  0.2432
15252SOL    HW147207   7.859   1.396   3.495  2.5783 -0.6252  0.8956
15252SOL    HW247208   7.925   1.310   3.390 -0.6667 -0.0520 -1.7663
15253SOL     OW47209   5.900   0.704   5.922  0.2234 -0.0118  1.1063
15253SOL    HW147210   5.974   0.661   5.880 -0.3080 -1.1648  1.3153
15253SOL    HW247211   5.925   0.712   6.014  1.2857  2.2934  0.6897
15254SOL     OW47212   1.514   0.591   6.770  0.1796  0.0495  0.1334
15254SOL    HW147213   1.608   0.611   6.772  0.2288 -0.1619  1.6812
15254SOL    HW247214   1.472   0.677   6.766  0.4373  0.2022  0.5749
15255SOL     OW47215   3.952   2.241   4.699 -0.4322 -0.5796 -0.1442
15255SOL    HW147216   3.954   2.146   4.690  0.3292 -0.7762  1.7072
15255SOL    HW247217   3.892   2.257   4.772  0.8878  0.2260  0.7960
15256SOL     OW47218   4.054   1.382   2.697 -0.3616 -0.0578  0.0088
15256SOL    HW147219   4.127   1.439   2.720 -0.5491  0.5849 -0.9645
15256SOL    HW247220   4.026   1.345   2.781  1.7814 -1.2056  0.3176
15257SOL     OW47221   0.663   1.473   4.735 -0.5093  0.1744  0.2507
15257SOL    HW147222   0.682   1.532   4.662  0.5943  0.3585  0.6741
15257SOL    HW247223   0.604   1.407   4.698  1.0766 -0.5198 -1.2041
15258SOL     OW47224   1.119   3.023   8.479 -0.0517 -0.4638 -0.1057
15258SOL    HW147225   1.167   2.954   8.524  1.1186  0.8029  0.6847
15258SOL    HW247226   1.027   2.999   8.489  0.3284 -2.2020 -0.4046
15259SOL     OW47227   4.952   7.737   7.739  0.3602 -0.1930 -0.3534
15259SOL    HW147228   4.907   7.776   7.665  1.0602 -0.0897 -0.7301
15259SOL    HW247229   4.886   7.734   7.808 -0.2344 -0.0943 -0.9103
15260SOL     OW47230   3.914   0.094   6.861  0.0225  0.3350  0.0366
15260SOL    HW147231   3.951   0.101   6.773 -1.1458 -1.1154 -0.6120
15260SOL    HW247232   3.838   0.151   6.861  0.4951  0.9845  0.4026
15261SOL     OW47233   4.860   2.748   0.380 -0.6300  0.2705 -0.3822
15261SOL    HW147234   4.775   2.705   0.392 -0.2767 -0.2621  0.2196
15261SOL    HW247235   4.924   2.677   0.378  0.0699  0.7750  1.6382
15262SOL     OW47236   5.588   2.359   6.124  0.1777 -0.2761  0.4130
15262SOL    HW147237   5.683   2.356   6.132  0.4716 -0.7595 -2.2465
15262SOL    HW247238   5.562   2.267   6.116 -0.4131 -0.1066  0.3399
15263SOL     OW47239   2.753   4.580   6.996  0.1675  0.0173  0.0252
15263SOL    HW147240   2.786   4.657   6.950  1.0403 -0.8654 -0.8745
15263SOL    HW247241   2.717   4.524   6.927 -0.6130 -0.3206  0.6862
15264SOL     OW47242   7.994   6.895   7.524 -0.2102 -0.6466 -0.1894
15264SOL    HW147243   7.985   6.845   7.605  0.1474 -0.0143  0.2497
15264SOL    HW247244   7.976   6.832   7.455 -1.0088 -1.0778  0.3961
15265SOL     OW47245   9.096   5.959   0.452  0.2925 -0.3027 -0.4327
15265SOL    HW147246   9.020   5.989   0.402  0.6350  1.1519 -0.1381
15265SOL    HW247247   9.105   5.867   0.428 -0.9399 -0.2471 -1.2569
15266SOL     OW47248   8.740   1.623   6.138  0.0560 -0.0598 -0.3346
15266SOL    HW147249   8.733   1.622   6.233 -0.0002 -0.6199 -0.3447
15266SOL    HW247250   8.681   1.555   6.108  1.8528 -1.5594 -0.6565
15267SOL     OW47251   2.954   4.688   8.931  0.2503 -0.7503 -0.3966
15267SOL    HW147252   3.031   4.743   8.916 -0.4514  0.6388  0.8435
15267SOL    HW247253   2.981   4.626   8.998  0.5263 -0.8157 -0.5643
15268SOL     OW47254   3.531   6.920   1.649  0.0879 -0.1316 -0.2654
15268SOL    HW147255   3.457   6.910   1.709  0.3841 -0.7988 -0.0098
15268SOL    HW247256   3.502   6.988   1.587 -0.2009  0.6099  0.6566
15269SOL     OW47257   3.327   2.039   3.673  0.5393 -0.1116 -0.3018
15269SOL    HW147258   3.374   1.975   3.619  1.7138  0.2002  0.3285
15269SOL    HW247259   3.349   2.124   3.635 -1.9029 -0.0712 -1.8321
15270SOL     OW47260   4.945   4.362   7.806 -0.2043 -0.4046 -0.2302
15270SOL    HW147261   4.990   4.297   7.859  0.6150  0.8133  0.6351
15270SOL    HW247262   4.967   4.446   7.847 -1.5238  0.3977 -1.0791
15271SOL     OW47263   0.938   2.613   6.022 -1.2512  0.8736 -0.1841
15271SOL    HW147264   0.846   2.622   5.994 -1.2645  0.9543 -0.1168
15271SOL    HW247265   0.960   2.700   6.056 -0.7368  1.2414 -1.4180
15272SOL     OW47266   5.947   2.182   5.153  0.2692 -0.1712 -0.0083
15272SOL    HW147267   5.946   2.086   5.156 -0.8240 -0.1556  0.9366
15272SOL    HW247268   5.954   2.208   5.245  2.4622  0.6858 -0.3518
15273SOL     OW47269   4.796   9.074   8.438 -0.5544  0.0856  0.8069
15273SOL    HW147270   4.736   9.134   8.482 -0.5346  0.0908  0.8265
15273SOL    HW247271   4.739   9.023   8.379 -0.4323  0.8082  0.0408
15274SOL     OW47272   7.450   2.533   7.337 -0.0566  0.7040  0.5658
15274SOL    HW147273   7.498   2.576   7.409  1.4685  0.3488 -0.1961
15274SOL    HW247274   7.514   2.526   7.267 -1.0814 -0.3589 -0.2960
15275SOL     OW47275   6.003   1.949   7.006 -0.3648 -0.3008 -0.1581
15275SOL    HW147276   6.015   1.946   7.101 -0.1479 -0.1870 -0.1814
15275SOL    HW247277   6.049   2.028   6.979 -1.3390  0.2582 -0.2261
15276SOL     OW47278   9.142   4.914   8.710  0.3092 -0.4279 -0.0313
15276SOL    HW147279   9.100   4.836   8.673  2.2550 -1.5330 -0.0831
15276SOL    HW247280   9.150   4.895   8.803 -0.1285  0.1805  0.1347
15277SOL     OW47281   3.865   3.864   2.830  0.3532 -0.4580  0.2603
15277SOL    HW147282   3.795   3.849   2.894  0.1093 -1.7357 -0.2661
15277SOL    HW247283   3.946   3.853   2.880  0.1709 -0.0114  0.6548
15278SOL     OW47284   2.277   6.452   8.338  0.2725  0.1555  0.2127
15278SOL    HW147285   2.294   6.460   8.244  1.2581  1.9102  0.5086
15278SOL    HW247286   2.340   6.386   8.368 -0.7181 -1.1687 -0.4720
15279SOL     OW47287   3.872   3.593   2.432 -0.1113 -0.2405 -0.2135
15279SOL    HW147288   3.805   3.544   2.481  1.1854 -1.5242  0.3308
15279SOL    HW247289   3.839   3.595   2.342 -1.0980 -0.4432  0.1286
15280SOL     OW47290   5.933   0.537   6.985  0.1752 -0.2581  0.2481
15280SOL    HW147291   5.900   0.456   7.024 -1.3249  0.0282 -0.3580
15280SOL    HW247292   5.985   0.577   7.054  2.6171 -2.6335 -0.0306
15281SOL     OW47293   7.938   1.299   4.521 -0.3517  0.1200  0.2219
15281SOL    HW147294   8.001   1.249   4.573 -0.1852  0.1513  0.0518
15281SOL    HW247295   7.854   1.284   4.564  0.0274  1.5218  1.5062
15282SOL     OW47296   2.637   8.162   6.204 -0.6049  0.4907 -0.2410
15282SOL    HW147297   2.695   8.189   6.133  1.3834 -0.7330  0.8301
15282SOL    HW247298   2.605   8.076   6.177  2.1128 -1.1296  1.3130
15283SOL     OW47299   6.912   4.218   7.952 -0.7153 -0.1859 -0.0551
15283SOL    HW147300   6.934   4.308   7.929  0.8956 -0.6093 -0.3220
15283SOL    HW247301   6.924   4.214   8.047 -1.6461  0.0904  0.0804
15284SOL     OW47302   7.360   5.210   1.378  0.0315  0.4688  0.0269
15284SOL    HW147303   7.365   5.159   1.458  0.3638 -0.0993 -0.3538
15284SOL    HW247304   7.439   5.187   1.329  1.5086  3.1495  0.9004
15285SOL     OW47305   1.974   1.494   0.271 -0.2106 -0.1572 -0.0931
15285SOL    HW147306   1.894   1.518   0.224 -0.0603 -0.8589 -0.7254
15285SOL    HW247307   1.945   1.427   0.334 -0.0841 -0.5596 -0.4635
15286SOL     OW47308   4.881   7.905   8.168  0.6531 -0.5693 -0.0100
15286SOL    HW147309   4.852   7.848   8.096  0.4987  0.9618 -1.2182
15286SOL    HW247310   4.847   7.991   8.145  1.0382  0.0745  1.6720
15287SOL     OW47311   2.050   7.348   5.454  0.2680  0.2271  0.2400
15287SOL    HW147312   2.009   7.261   5.463  1.2432 -0.4569 -1.4833
15287SOL    HW247313   1.979   7.404   5.421  0.2970 -0.6208 -1.3888
15288SOL     OW47314   6.212   3.883   1.575 -0.0596  0.3406 -0.4147
15288SOL    HW147315   6.124   3.921   1.574 -1.1406 -1.9453  0.3888
15288SOL    HW247316   6.228   3.861   1.666  0.3871 -1.2794 -0.8435
15289SOL     OW47317   2.856   6.434   2.017  0.1486  0.0666  0.1120
15289SOL    HW147318   2.775   6.471   2.050 -0.8239 -1.2718 -0.6801
15289SOL    HW247319   2.891   6.501   1.959 -0.5959  0.4966  0.1469
15290SOL     OW47320   0.709   3.336   7.775 -0.2790 -0.4834  0.4069
15290SOL    HW147321   0.777   3.292   7.826 -2.1126 -3.6449  0.4082
15290SOL    HW247322   0.669   3.397   7.836 -0.1494 -1.6691  1.7459
15291SOL     OW47323   6.413   8.516   1.253 -0.0179 -0.8268  0.0557
15291SOL    HW147324   6.459   8.579   1.309 -2.3171 -0.4310  1.6167
15291SOL    HW247325   6.475   8.498   1.182  0.6604  3.4677 -0.7086
15292SOL     OW47326   5.595   7.075   8.469 -0.1761 -0.4810 -0.2203
15292SOL    HW147327   5.569   7.091   8.560  0.8915 -1.1230  0.2276
15292SOL    HW247328   5.538   7.006   8.439 -0.9838  0.1932 -0.2687
15293SOL     OW47329   1.507   8.091   8.482 -0.5861  0.3169  0.1970
15293SOL    HW147330   1.525   8.128   8.395  0.4638 -0.3742  0.1005
15293SOL    HW247331   1.535   8.160   8.543 -1.9281  1.0629  0.0038
15294SOL     OW47332   6.506   4.899   8.997 -0.5895  0.1104  0.2352
15294SOL    HW147333   6.434   4.841   9.021  1.3598 -2.5581  0.1683
15294SOL    HW247334   6.581   4.866   9.047  0.8816  1.9043 -0.6677
15295SOL     OW47335   3.770   6.658   8.323 -0.2119 -0.2227 -0.2156
15295SOL    HW147336   3.816   6.733   8.285  1.4356 -1.2616 -0.3621
15295SOL    HW247337   3.720   6.622   8.250  0.3476 -0.2806 -0.5707
15296SOL     OW47338   0.641   1.969   4.028  0.1354 -0.3108 -0.3222
15296SOL    HW147339   0.679   2.032   3.967 -0.0031 -0.6101 -0.7272
15296SOL    HW247340   0.716   1.930   4.072  0.2150  0.2157  0.0150
15297SOL     OW47341   3.150   0.385   3.684 -0.5275  0.0220  0.0233
15297SOL    HW147342   3.204   0.308   3.699 -0.6403 -0.5065 -2.0094
15297SOL    HW247343   3.060   0.354   3.695 -0.5356  0.0565  0.0520
15298SOL     OW47344   3.621   3.981   5.141  0.1150 -0.2052 -0.6550
15298SOL    HW147345   3.700   3.939   5.106  0.9735  0.7905  0.0242
15298SOL    HW247346   3.555   3.912   5.138  1.0526 -1.1297 -1.0616
15299SOL     OW47347   5.144   5.689   5.976 -0.3183  0.1205 -0.1477
15299SOL    HW147348   5.152   5.596   5.999  0.7049 -0.4197 -2.4548
15299SOL    HW247349   5.231   5.713   5.942 -0.7583  1.7583 -0.1974
15300SOL     OW47350   2.118   3.922   6.944 -0.0870  0.1761 -0.5292
15300SOL    HW147351   2.042   3.865   6.931 -1.8966  1.9006  1.5191
15300SOL    HW247352   2.091   3.980   7.016  3.4552  0.4654  0.7287
15301SOL     OW47353   6.207   2.713   6.200  0.1865 -0.6111 -0.2459
15301SOL    HW147354   6.253   2.630   6.184  1.1334 -0.2125  0.3087
15301SOL    HW247355   6.132   2.710   6.141  1.6255 -0.7317 -2.1733
15302SOL     OW47356   2.113   3.324   1.741 -0.2252 -0.7887  0.2917
15302SOL    HW147357   2.078   3.272   1.669 -1.4654  1.3147 -0.7239
15302SOL    HW247358   2.206   3.334   1.719 -0.3949 -0.9262 -0.5592
15303SOL     OW47359   2.138   0.243   1.404  0.0336 -0.7122 -0.3322
15303SOL    HW147360   2.111   0.175   1.467 -0.7341 -0.0122  0.1119
15303SOL    HW247361   2.079   0.230   1.330 -0.6102 -0.0650  0.0611
15304SOL     OW47362   4.418   6.745   6.063 -0.1179  0.1627  0.1511
15304SOL    HW147363   4.419   6.735   6.158  0.7500  0.4375  0.1848
15304SOL    HW247364   4.359   6.677   6.032 -0.6205  0.2464  0.9061
15305SOL     OW47365   5.045   3.326   6.551 -0.0390 -0.0586  0.2861
15305SOL    HW147366   5.085   3.407   6.582 -0.2166  0.9930 -2.0808
15305SOL    HW247367   5.118   3.263   6.549  0.4714  0.5163  0.5150
15306SOL     OW47368   2.382   5.629   5.779  0.2933  0.1146 -0.0242
15306SOL    HW147369   2.410   5.538   5.765 -0.6335 -0.0504 -0.8735
15306SOL    HW247370   2.308   5.641   5.720 -1.2245  0.6615  1.8683
15307SOL     OW47371   4.877   9.026   8.955 -0.5033 -0.0345  0.9040
15307SOL    HW147372   4.936   9.100   8.972  0.3025 -0.5890  0.5499
15307SOL    HW247373   4.874   9.018   8.860 -0.2883 -0.6966  0.9486
15308SOL     OW47374   8.522   5.943   5.317 -0.1417 -0.0224 -0.0438
15308SOL    HW147375   8.532   6.019   5.259  0.7392 -1.4844 -1.9355
15308SOL    HW247376   8.443   5.900   5.284 -0.1850 -0.3540  0.4932
15309SOL     OW47377   9.009   8.478   0.604  0.2110  0.3790  0.3985
15309SOL    HW147378   9.005   8.540   0.677 -0.2776  0.5453  0.2382
15309SOL    HW247379   8.964   8.523   0.532 -1.7411 -0.8234  0.7819
15310SOL     OW47380   2.494   0.191   6.450  0.2842 -0.2128  0.0758
15310SOL    HW147381   2.515   0.195   6.544  1.9528 -1.9265 -0.1530
15310SOL    HW247382   2.486   0.282   6.423  1.8026  0.3868  1.4890
15311SOL     OW47383   7.009   7.721   0.476 -0.4077  0.2539  0.2372
15311SOL    HW147384   7.096   7.714   0.436 -0.5221  0.8895 -0.1390
15311SOL    HW247385   6.990   7.815   0.474 -1.1461  0.1055  0.2348
15312SOL     OW47386   6.793   4.759   1.388  0.0988 -0.6557  0.2005
15312SOL    HW147387   6.773   4.788   1.299 -1.2653 -1.4117  0.2378
15312SOL    HW247388   6.723   4.698   1.410  1.7565 -2.4215  0.8851
15313SOL     OW47389   6.073   4.198   0.423 -0.6540 -0.0230  0.1722
15313SOL    HW147390   5.998   4.207   0.365  0.4594 -1.5286 -1.6225
15313SOL    HW247391   6.143   4.247   0.381  0.2863 -1.4667 -0.0392
15314SOL     OW47392   1.219   9.170   6.430 -0.0472  0.3143  0.0946
15314SOL    HW147393   1.269   9.251   6.423 -0.5674  0.5619 -1.0641
15314SOL    HW247394   1.201   9.160   6.523 -1.8170  2.6958  0.0925
15315SOL     OW47395   7.413   7.463   5.261 -0.3118 -0.1485 -0.1562
15315SOL    HW147396   7.441   7.415   5.338 -0.3072 -0.1752 -0.1745
15315SOL    HW247397   7.317   7.460   5.265 -0.3364  0.8496  0.4853
15316SOL     OW47398   6.306   3.071   2.569  0.1164  0.4600 -0.2548
15316SOL    HW147399   6.399   3.077   2.590 -0.1337  0.6667  0.8644
15316SOL    HW247400   6.262   3.115   2.642 -1.0487 -2.7298  1.1407
15317SOL     OW47401   6.875   2.944   1.986  0.5015 -0.1355  0.2654
15317SOL    HW147402   6.930   2.865   1.993  0.3785 -0.3022 -0.5274
15317SOL    HW247403   6.870   2.961   1.892  1.3038  1.3852  0.4782
15318SOL     OW47404   6.217   7.166   6.090 -0.2906  0.1888  0.7607
15318SOL    HW147405   6.253   7.242   6.135 -1.8040  0.9808  0.6641
15318SOL    HW247406   6.289   7.136   6.034  0.1766  1.8114  0.4428
15319SOL     OW47407   4.384   0.455   4.416  0.4497 -0.1123 -0.3437
15319SOL    HW147408   4.454   0.514   4.389  0.1845  0.4448  0.1573
15319SOL    HW247409   4.414   0.368   4.389  1.5062  0.0654  0.1979
15320SOL     OW47410   5.816   7.159   9.076 -0.6716  0.3482  0.1702
15320SOL    HW147411   5.839   7.224   9.010  0.2421 -1.3423 -1.2291
15320SOL    HW247412   5.736   7.117   9.043  0.7948 -1.7722 -0.8869
15321SOL     OW47413   4.668   6.167   5.919  0.0047 -0.1101 -0.5594
15321SOL    HW147414   4.587   6.142   5.963  0.7560 -2.9943 -0.6311
15321SOL    HW247415   4.730   6.182   5.990 -0.3106  1.1941 -0.5340
15322SOL     OW47416   5.306   0.414   1.667  0.0220  0.3622  0.0325
15322SOL    HW147417   5.315   0.421   1.762  0.4767  0.8710 -0.0434
15322SOL    HW247418   5.212   0.422   1.651  0.0101  1.0067  0.3873
15323SOL     OW47419   7.066   2.480   2.869 -0.0643  0.2392 -0.6237
15323SOL    HW147420   6.987   2.509   2.913  0.0020 -0.2191 -0.2032
15323SOL    HW247421   7.085   2.394   2.905 -0.2717 -0.3627 -1.8774
15324SOL     OW47422   1.432   3.842   2.182 -0.8933  0.1869  0.0781
15324SOL    HW147423   1.406   3.912   2.123 -2.6099 -0.4766  0.0086
15324SOL    HW247424   1.355   3.825   2.236 -1.0959 -2.6619 -0.9241
15325SOL     OW47425   3.007   6.912   0.397  0.6639  0.8961  0.3369
15325SOL    HW147426   3.098   6.885   0.384  1.0716  2.3491 -0.1016
15325SOL    HW247427   2.957   6.857   0.337  1.6381  2.1179 -1.7161
15326SOL     OW47428   3.243   2.938   6.905  0.2371  0.1955 -0.1023
15326SOL    HW147429   3.225   2.987   6.824 -1.9126  1.8427  1.2407
15326SOL    HW247430   3.159   2.899   6.928  0.2693  1.3989  2.3176
15327SOL     OW47431   8.234   2.235   7.365 -0.1286  0.4774 -0.1248
15327SOL    HW147432   8.221   2.172   7.294 -0.8381  0.6656 -0.1710
15327SOL    HW247433   8.223   2.184   7.445 -0.0513  0.4096 -0.1576
15328SOL     OW47434   3.447   5.890   3.468 -0.0262 -0.0500 -0.1383
15328SOL    HW147435   3.491   5.904   3.552  0.7305  1.0365 -0.6968
15328SOL    HW247436   3.354   5.903   3.488  0.0418 -0.7710  0.7219
15329SOL     OW47437   3.134   1.233   1.027 -0.0699 -0.3463 -0.5161
15329SOL    HW147438   3.137   1.313   1.080 -1.5072 -1.5053  1.4749
15329SOL    HW247439   3.185   1.170   1.078 -0.8470 -1.3080 -0.9106
15330SOL     OW47440   8.630   4.678   2.475 -0.4097 -0.7796  0.2742
15330SOL    HW147441   8.628   4.622   2.552 -0.0335 -2.7526 -1.0662
15330SOL    HW247442   8.626   4.617   2.401  0.2929  0.9501 -1.2777
15331SOL     OW47443   2.106   2.405   3.438 -0.1757 -0.3574 -0.7569
15331SOL    HW147444   2.063   2.463   3.375 -0.3684 -0.8129 -1.0506
15331SOL    HW247445   2.093   2.447   3.523  0.1335  0.2913 -1.0249
15332SOL     OW47446   5.007   4.240   3.301  0.1455 -0.5894  0.4807
15332SOL    HW147447   4.968   4.175   3.358  0.3252 -0.7925  0.3740
15332SOL    HW247448   5.002   4.202   3.213 -2.5113  0.8054 -0.0606
15333SOL     OW47449   6.087   6.329   2.802 -0.5690  0.0336  0.0187
15333SOL    HW147450   6.031   6.393   2.757 -2.0592 -0.8169  0.6052
15333SOL    HW247451   6.087   6.252   2.744 -0.5174 -0.2063  0.3379
15334SOL     OW47452   5.266   4.304   2.367 -0.6497 -0.3636 -0.1664
15334SOL    HW147453   5.239   4.396   2.363 -3.1378 -0.9429  1.4351
15334SOL    HW247454   5.220   4.268   2.443  0.3398 -2.9262 -0.6679
15335SOL     OW47455   7.594   4.497   6.241  0.1663 -0.9836  0.7090
15335SOL    HW147456   7.535   4.437   6.196 -0.4629 -0.8664  1.3703
15335SOL    HW247457   7.646   4.537   6.170 -1.9141  0.4227 -0.1097
15336SOL     OW47458   8.508   3.294   1.122  0.6244  0.2139 -0.5164
15336SOL    HW147459   8.589   3.277   1.074  0.6785 -2.7475  0.4436
15336SOL    HW247460   8.534   3.290   1.214 -0.0052  3.0111 -0.1199
15337SOL     OW47461   5.646   4.381   6.296  0.3437  0.1536 -0.6003
15337SOL    HW147462   5.717   4.407   6.238  0.9874  0.1655  0.1664
15337SOL    HW247463   5.655   4.286   6.304  0.1491  0.1309 -0.6584
15338SOL     OW47464   6.290   2.241   8.441 -0.1054  0.0848 -0.4239
15338SOL    HW147465   6.383   2.243   8.463 -0.0008 -0.3842 -0.7912
15338SOL    HW247466   6.246   2.272   8.520  0.2810 -1.0607  0.2722
15339SOL     OW47467   7.033   6.971   7.533  0.0608  0.0250  0.9290
15339SOL    HW147468   6.992   7.056   7.548 -0.0229  0.6082 -1.9454
15339SOL    HW247469   7.114   6.992   7.487 -0.8357 -1.4557 -1.4895
15340SOL     OW47470   2.100   5.474   0.515 -0.5455 -0.5288  0.1470
15340SOL    HW147471   2.020   5.511   0.478  0.4769  1.0201 -0.6121
15340SOL    HW247472   2.139   5.546   0.564  1.2148 -0.7341 -0.8893
15341SOL     OW47473   6.605   4.628   3.616 -0.4232 -0.0940  0.7689
15341SOL    HW147474   6.568   4.542   3.595 -1.2063 -0.0720  1.9844
15341SOL    HW247475   6.682   4.635   3.559 -0.2614 -1.6463  0.7456
15342SOL     OW47476   3.948   1.017   5.020  0.4178 -0.1527 -0.3414
15342SOL    HW147477   3.924   1.077   5.090  4.4715 -0.3571  1.4814
15342SOL    HW247478   3.931   0.930   5.056 -2.1927 -0.3352 -1.6986
15343SOL     OW47479   1.034   8.964   8.604  0.2208  0.2510 -0.0683
15343SOL    HW147480   1.085   9.043   8.620 -0.9455  0.7875  1.1732
15343SOL    HW247481   0.979   8.986   8.529 -0.8527  1.0236  0.9168
15344SOL     OW47482   2.579   4.047   1.994 -0.6568 -0.7686  0.1214
15344SOL    HW147483   2.584   4.022   1.902 -1.6213  1.5716 -0.6491
15344SOL    HW247484   2.668   4.071   2.018 -0.9093  2.0589 -1.3582
15345SOL     OW47485   3.722   5.019   5.116 -0.7928 -0.4237 -0.5519
15345SOL    HW147486   3.700   5.095   5.061 -1.8106  1.4309  2.2186
15345SOL    HW247487   3.638   4.983   5.142 -0.3183 -1.5988 -0.5949
15346SOL     OW47488   7.144   8.102   3.287  0.0587  0.0454 -0.2037
15346SOL    HW147489   7.101   8.165   3.230  1.5446 -0.4991 -2.0324
15346SOL    HW247490   7.162   8.150   3.368  0.6455  1.7780 -1.3272
15347SOL     OW47491   7.991   0.707   5.575  0.3084 -0.4719 -0.5886
15347SOL    HW147492   8.079   0.715   5.538  1.4184  0.2766  2.0286
15347SOL    HW247493   7.990   0.622   5.618 -0.2420 -0.4385 -0.5238
15348SOL     OW47494   7.099   4.417   5.784 -0.3146  0.2727  0.3171
15348SOL    HW147495   7.190   4.428   5.811  0.3380 -1.2362 -1.0879
15348SOL    HW247496   7.074   4.502   5.749  1.6849 -0.0979 -2.3370
15349SOL     OW47497   6.899   1.926   5.362 -0.2880  0.2818 -0.1662
15349SOL    HW147498   6.937   1.990   5.302 -1.4660  0.0528 -1.1946
15349SOL    HW247499   6.965   1.916   5.430  0.4541  1.6612 -0.6295
15350SOL     OW47500   8.724   1.753   5.804 -0.3714  0.2195  0.0556
15350SOL    HW147501   8.681   1.720   5.726 -0.4112  1.0638 -0.2934
15350SOL    HW247502   8.662   1.816   5.841 -1.5419 -2.0801  2.2964
15351SOL     OW47503   8.708   8.438   2.953  0.3593  0.2443 -0.0827
15351SOL    HW147504   8.756   8.513   2.919 -0.3637  1.1464  0.8052
15351SOL    HW247505   8.708   8.451   3.048  0.3979 -1.0007  0.1048
15352SOL     OW47506   5.387   7.000   4.735 -0.1762  0.0863  0.5766
15352SOL    HW147507   5.354   7.042   4.814 -3.0017 -1.0126  0.0855
15352SOL    HW247508   5.367   7.062   4.665 -0.2322 -0.1581  0.3785
15353SOL     OW47509   7.717   0.805   4.187 -0.3074 -0.2338 -0.1834
15353SOL    HW147510   7.625   0.787   4.206  0.0165  0.2181  2.1051
15353SOL    HW247511   7.759   0.806   4.273  1.4357  1.7831 -0.9810
15354SOL     OW47512   5.266   3.714   6.968  0.2179 -0.0391  0.8374
15354SOL    HW147513   5.280   3.725   6.874 -0.7681 -0.0631  0.6734
15354SOL    HW247514   5.246   3.621   6.978  0.2768 -0.0263  1.0632
15355SOL     OW47515   1.224   3.275   5.661 -0.0035 -0.2452  0.3168
15355SOL    HW147516   1.170   3.346   5.697  1.3731  0.8335  0.3283
15355SOL    HW247517   1.214   3.204   5.725 -2.1502 -0.4605 -0.1667
15356SOL     OW47518   2.840   7.150   0.310 -0.2785 -0.1869  0.3226
15356SOL    HW147519   2.895   7.082   0.349  0.2673 -0.8223 -1.4505
15356SOL    HW247520   2.901   7.205   0.261 -0.8812  0.8327  0.6878
15357SOL     OW47521   0.863   5.943   7.388  0.0177 -1.2864  0.0329
15357SOL    HW147522   0.852   5.848   7.387 -2.1921 -1.1276 -2.3841
15357SOL    HW247523   0.881   5.966   7.297 -1.3168  0.7333  0.2112
15358SOL     OW47524   5.573   8.603   0.161 -0.2534 -0.3786 -0.0820
15358SOL    HW147525   5.612   8.566   0.240  1.0421  1.3510  0.1472
15358SOL    HW247526   5.516   8.673   0.193  0.2201  0.2891 -0.6502
15359SOL     OW47527   2.066   2.345   1.273  0.3880  0.0502  0.5035
15359SOL    HW147528   2.080   2.251   1.262  0.1796  0.0092  0.5723
15359SOL    HW247529   2.114   2.386   1.201 -0.9095 -0.2104 -0.5595
15360SOL     OW47530   6.589   3.829   8.446 -0.4663 -0.3368  0.0773
15360SOL    HW147531   6.599   3.899   8.511  1.3068 -0.1936 -0.3096
15360SOL    HW247532   6.655   3.847   8.380  0.0817 -2.3893 -0.0186
15361SOL     OW47533   8.309   0.320   1.374 -0.0974  0.0919  0.1766
15361SOL    HW147534   8.340   0.306   1.284 -0.5061 -0.8893  0.1746
15361SOL    HW247535   8.218   0.348   1.364  0.5394  2.3866  0.2083
15362SOL     OW47536   9.096   7.604   0.745 -0.9050 -0.2670  0.2505
15362SOL    HW147537   9.109   7.513   0.720  1.1557 -0.0710  0.4311
15362SOL    HW247538   9.134   7.654   0.673  0.6410  0.3639  1.4484
15363SOL     OW47539   6.068   1.640   4.931 -0.2513 -0.3011  0.1766
15363SOL    HW147540   6.027   1.594   4.857  0.7557 -1.9078  0.5631
15363SOL    HW247541   6.086   1.728   4.898 -0.4193 -0.7875 -1.2747
15364SOL     OW47542   5.033   2.512   3.317  0.0152 -0.9981  0.0170
15364SOL    HW147543   5.061   2.587   3.369 -0.7106 -2.5720  2.9374
15364SOL    HW247544   5.098   2.444   3.335 -1.2543 -2.1655  0.3931
15365SOL     OW47545   1.924   3.885   3.787 -0.0454  0.1120 -0.0355
15365SOL    HW147546   1.998   3.853   3.736 -0.7978  0.2623 -1.2671
15365SOL    HW247547   1.954   3.882   3.878  1.4821  0.2540 -0.5148
15366SOL     OW47548   0.260   3.863   6.720 -0.4728  0.2131  0.4569
15366SOL    HW147549   0.220   3.778   6.701 -0.5588  0.0750  1.2543
15366SOL    HW247550   0.349   3.855   6.685 -1.2314  0.6764 -1.7277
15367SOL     OW47551   4.026   2.882   3.284 -0.1442  0.2333  0.2787
15367SOL    HW147552   4.018   2.787   3.273 -0.9299  0.3948 -0.6914
15367SOL    HW247553   3.945   2.917   3.249  0.8576  1.3720 -1.0428
15368SOL     OW47554   8.511   5.212   7.031  0.6364 -0.0367 -0.5654
15368SOL    HW147555   8.485   5.129   7.072 -0.9275  0.2242 -0.9708
15368SOL    HW247556   8.447   5.226   6.961 -0.5465  2.5678  0.8646
15369SOL     OW47557   0.579   8.572   8.126  0.5990  0.3493  0.1332
15369SOL    HW147558   0.579   8.668   8.127 -2.3802  0.4663  1.0701
15369SOL    HW247559   0.514   8.549   8.059 -0.2867 -0.8957  1.3558
15370SOL     OW47560   4.547   6.625   1.970  0.7713 -0.2390 -0.3395
15370SOL    HW147561   4.476   6.631   2.034  0.5799  0.2849 -0.5929
15370SOL    HW247562   4.596   6.706   1.981  0.4880  0.0551 -1.1362
15371SOL     OW47563   7.071   6.727   6.187 -0.7486 -0.1075  0.0068
15371SOL    HW147564   7.156   6.753   6.151 -1.4293  1.2564 -0.7144
15371SOL    HW247565   7.073   6.758   6.277 -1.0984  1.4914 -0.5030
15372SOL     OW47566   6.791   5.250   8.888 -0.9300  0.3742  0.5473
15372SOL    HW147567   6.778   5.190   8.814  1.5164  0.4363 -0.0121
15372SOL    HW247568   6.705   5.254   8.931 -1.9052 -1.2182 -1.1096
15373SOL     OW47569   4.097   9.151   7.937 -0.3060  0.0317 -0.5130
15373SOL    HW147570   4.034   9.141   8.008 -0.0981 -1.7144 -0.5424
15373SOL    HW247571   4.083   9.074   7.881  1.2321  0.0875 -1.0055
15374SOL     OW47572   0.322   2.357   8.292 -0.4898 -0.6387 -0.4625
15374SOL    HW147573   0.263   2.373   8.366 -0.8305  0.8509 -1.0027
15374SOL    HW247574   0.274   2.295   8.237 -0.7957 -0.7708 -0.0556
15375SOL     OW47575   2.165   3.068   0.032 -0.6372  0.0197 -0.2267
15375SOL    HW147576   2.164   3.104  -0.057  0.0962 -0.7493 -0.5616
15375SOL    HW247577   2.120   2.984   0.025 -0.6635 -0.0015  0.1544
15376SOL     OW47578   4.223   1.150   3.222 -0.2440  0.2678 -0.4063
15376SOL    HW147579   4.286   1.207   3.266  0.9437 -0.8432 -0.6138
15376SOL    HW247580   4.178   1.104   3.293  0.4986 -0.2877 -0.2761
15377SOL     OW47581   7.018   7.492   7.930 -0.6662 -0.4599  0.0431
15377SOL    HW147582   7.059   7.547   7.863  0.2661 -0.4604  0.6088
15377SOL    HW247583   6.927   7.484   7.901 -0.9137  1.6132  0.0943
15378SOL     OW47584   1.998   2.627   5.589 -0.0955 -0.4053  0.2188
15378SOL    HW147585   2.003   2.715   5.627  1.5698 -1.2678  2.2107
15378SOL    HW247586   2.033   2.570   5.657 -1.4156 -2.6801 -0.9018
15379SOL     OW47587   0.446   2.843   6.372 -0.1720 -1.0444  0.5408
15379SOL    HW147588   0.514   2.794   6.417  0.2824 -0.3100  0.6698
15379SOL    HW247589   0.421   2.787   6.298  0.7663 -1.2052  0.3322
15380SOL     OW47590   2.142   7.046   8.428 -0.2727 -0.0197  0.3968
15380SOL    HW147591   2.109   7.097   8.502 -1.4622  0.1404 -0.2196
15380SOL    HW247592   2.101   6.960   8.438 -0.1526 -0.1109  0.1143
15381SOL     OW47593   0.976   5.454   8.746 -0.1028  0.1546  0.3980
15381SOL    HW147594   0.906   5.518   8.756 -0.0836 -0.0110  1.9275
15381SOL    HW247595   0.932   5.369   8.749  0.0767  0.0651  0.6016
15382SOL     OW47596   0.607   4.838   6.217  0.0187 -0.1758 -0.0066
15382SOL    HW147597   0.699   4.811   6.224  0.2283  0.5696  0.2018
15382SOL    HW247598   0.592   4.893   6.294 -0.9002 -1.1136  0.5136
15383SOL     OW47599   2.319   2.415   4.675  0.3666 -0.1850  0.0395
15383SOL    HW147600   2.385   2.463   4.624 -0.2876  0.8591  0.1289
15383SOL    HW247601   2.324   2.454   4.762 -2.2076  1.9042 -0.6150
15384SOL     OW47602   3.933   0.838   1.974 -0.0429  0.1043  0.0678
15384SOL    HW147603   3.988   0.868   2.046  1.4621  1.8616 -1.7025
15384SOL    HW247604   3.852   0.889   1.985  0.5365  1.0712  0.0041
15385SOL     OW47605   6.992   4.071   7.658  0.1445  0.4151 -0.4099
15385SOL    HW147606   7.020   4.071   7.566 -0.5802 -1.1518 -0.6570
15385SOL    HW247607   7.062   4.026   7.705 -0.2157 -0.2093 -0.4575
15386SOL     OW47608   2.808   5.137   2.071  0.2430  0.2676 -0.2004
15386SOL    HW147609   2.785   5.196   1.999 -0.6408  0.8007  0.4817
15386SOL    HW247610   2.804   5.193   2.149 -1.9986 -0.9288  0.6535
15387SOL     OW47611   5.790   7.374   0.213  0.0492 -0.0571 -0.0836
15387SOL    HW147612   5.858   7.340   0.270  0.5937 -0.1274 -0.7580
15387SOL    HW247613   5.740   7.434   0.268 -0.0265 -0.8344  0.7177
15388SOL     OW47614   3.635   9.036   8.069  0.4289  0.5006  0.1047
15388SOL    HW147615   3.633   8.995   8.155 -0.4333 -1.4116 -0.7639
15388SOL    HW247616   3.563   8.996   8.021  1.8673  0.2828 -2.0276
15389SOL     OW47617   4.578   3.178   2.403 -0.4358 -0.5435 -0.1359
15389SOL    HW147618   4.592   3.135   2.319 -1.5702 -1.7028  0.2437
15389SOL    HW247619   4.600   3.112   2.468  0.1943  0.2642  0.4946
15390SOL     OW47620   7.873   8.823   6.186  0.2808 -0.2524 -0.3952
15390SOL    HW147621   7.821   8.755   6.230 -0.1173 -0.1747 -0.7389
15390SOL    HW247622   7.893   8.786   6.100 -0.1473  0.1567 -0.6775
15391SOL     OW47623   8.483   2.739   8.344 -0.3390  0.1791 -0.7888
15391SOL    HW147624   8.514   2.721   8.255  1.1375  0.7711 -0.4193
15391SOL    HW247625   8.420   2.811   8.333 -2.1341 -1.4314 -1.6202
15392SOL     OW47626   4.080   4.176   8.419 -0.0222 -0.9467 -0.2782
15392SOL    HW147627   4.006   4.135   8.464 -1.7811  0.8949 -1.3165
15392SOL    HW247628   4.072   4.269   8.440  2.4446 -0.7499  0.1167
15393SOL     OW47629   0.371   5.392   6.368  0.9555  0.4538  0.4910
15393SOL    HW147630   0.354   5.354   6.282  3.2603 -0.0433  0.1953
15393SOL    HW247631   0.310   5.347   6.426  1.6876 -1.7163 -0.3356
15394SOL     OW47632   5.171   4.328   8.175  0.4282 -0.1925  0.1661
15394SOL    HW147633   5.080   4.352   8.191  0.6274 -0.0237  1.0855
15394SOL    HW247634   5.168   4.277   8.094 -0.3609  0.5842 -0.3220
15395SOL     OW47635   0.161   0.422   2.591 -0.1415 -0.5004 -0.4765
15395SOL    HW147636   0.136   0.472   2.513 -0.6036  1.0703  0.6308
15395SOL    HW247637   0.104   0.456   2.660  2.1471  0.2037  1.1795
15396SOL     OW47638   7.153   6.150   3.929  0.4411 -0.0590 -0.2286
15396SOL    HW147639   7.169   6.240   3.956 -0.8264 -0.5654  2.6386
15396SOL    HW247640   7.142   6.102   4.011  1.7602 -3.0086 -1.6235
15397SOL     OW47641   0.514   2.986   2.348 -0.1434 -0.5143 -0.0118
15397SOL    HW147642   0.422   3.014   2.355  0.2238  0.6889  0.2497
15397SOL    HW247643   0.522   2.952   2.258 -1.1157 -1.7175  0.3332
15398SOL     OW47644   2.008   8.638   1.356  0.0228 -0.2393 -0.0797
15398SOL    HW147645   2.071   8.683   1.413 -1.4605  1.4495  0.3172
15398SOL    HW247646   2.063   8.593   1.291  1.6628  1.4744  0.0127
15399SOL     OW47647   4.865   5.416   0.514  0.0081 -0.0835 -0.1767
15399SOL    HW147648   4.892   5.325   0.525 -1.2770 -0.2646  1.8788
15399SOL    HW247649   4.779   5.410   0.471  0.2592  0.2135 -0.7329
15400SOL     OW47650   7.829   1.872   5.688 -0.2328 -0.5496  0.1400
15400SOL    HW147651   7.910   1.872   5.739 -0.1785 -0.2431  0.0597
15400SOL    HW247652   7.760   1.868   5.753 -0.1684  0.0842  0.2516
15401SOL     OW47653   9.087   0.367   0.653  0.4099 -0.1627  0.4814
15401SOL    HW147654   9.080   0.326   0.567 -0.0763 -2.3783  1.4832
15401SOL    HW247655   8.998   0.394   0.674  0.7231  1.4685 -0.1584
15402SOL     OW47656   7.618   3.991   7.490 -0.5069 -0.1163 -0.5772
15402SOL    HW147657   7.590   3.977   7.580  0.6639  0.4880 -0.0928
15402SOL    HW247658   7.704   4.033   7.498  1.4705 -3.5071 -1.9601
15403SOL     OW47659   5.084   4.828   2.715 -0.2157  0.6626 -0.5421
15403SOL    HW147660   5.123   4.757   2.664 -0.8003  0.9013 -1.3453
15403SOL    HW247661   5.119   4.816   2.803  1.2617  0.5771 -1.1149
15404SOL     OW47662   1.380   6.742   5.017  0.7979  0.9224 -0.2435
15404SOL    HW147663   1.349   6.662   4.974  1.8902 -0.0467  0.6936
15404SOL    HW247664   1.375   6.809   4.949 -1.6524  0.4683 -0.6371
15405SOL     OW47665   2.446   7.908   2.524  0.3966 -0.2998  0.3429
15405SOL    HW147666   2.532   7.952   2.527  0.2493 -0.0640  2.1568
15405SOL    HW247667   2.451   7.841   2.592 -0.1518 -1.7139 -0.9456
15406SOL     OW47668   2.100   5.146   4.248  0.4083 -0.0571  0.3888
15406SOL    HW147669   2.154   5.206   4.300  1.1887  0.6827 -1.1981
15406SOL    HW247670   2.096   5.187   4.161 -1.0135 -1.1433 -0.0986
15407SOL     OW47671   4.119   5.954   6.554 -0.1778  0.5908  0.6047
15407SOL    HW147672   4.122   6.032   6.498 -0.5692  0.5928  0.5871
15407SOL    HW247673   4.060   5.978   6.626  0.8468  0.8393  1.3982
15408SOL     OW47674   0.077   6.687   8.947 -0.2080 -0.7516 -0.1353
15408SOL    HW147675   0.002   6.696   8.888  0.1390 -0.1926 -0.5034
15408SOL    HW247676   0.097   6.593   8.947 -1.6038 -1.0772  0.8518
15409SOL     OW47677   8.263   7.415   2.485  0.3676 -0.5444  0.0901
15409SOL    HW147678   8.203   7.478   2.524  1.7415  0.3697  0.7992
15409SOL    HW247679   8.207   7.357   2.433 -1.0932  0.3411  0.6328
15410SOL     OW47680   5.194   9.022   7.280 -0.5593 -0.3323 -0.4429
15410SOL    HW147681   5.258   8.994   7.215 -0.4983  1.0089 -0.9932
15410SOL    HW247682   5.245   9.068   7.346 -0.4649 -2.6195  1.1992
15411SOL     OW47683   0.127   5.296   0.819 -0.0544 -0.4180  0.1411
15411SOL    HW147684   0.155   5.233   0.753  1.8267  0.5598 -0.0545
15411SOL    HW247685   0.185   5.281   0.893  0.9916  1.5549 -0.2007
15412SOL     OW47686   4.709   2.237   1.330  0.2585 -0.1951  0.1426
15412SOL    HW147687   4.709   2.309   1.394  1.0592 -1.9586  2.2600
15412SOL    HW247688   4.800   2.231   1.300  0.1449 -0.1875 -0.2080
15413SOL     OW47689   9.051   6.639   2.604  0.0900 -0.9088 -0.5783
15413SOL    HW147690   8.974   6.684   2.568  1.1439  0.7535 -0.8533
15413SOL    HW247691   9.040   6.548   2.576 -0.9368 -0.3761 -2.0666
15414SOL     OW47692   5.264   7.494   5.819  0.1715 -0.2463  0.1820
15414SOL    HW147693   5.175   7.527   5.810 -0.4897 -1.2574  2.4454
15414SOL    HW247694   5.257   7.420   5.879  2.5519 -0.2782  0.5175
15415SOL     OW47695   8.863   4.286   8.052  0.5461 -0.6103  0.3208
15415SOL    HW147696   8.860   4.229   7.976  0.9665 -1.1760  0.7140
15415SOL    HW247697   8.909   4.235   8.119 -0.7831 -0.5592  1.3209
15416SOL     OW47698   6.083   5.322   0.314 -0.1284 -0.3980  0.5353
15416SOL    HW147699   6.081   5.240   0.265  2.2948 -0.0234 -0.3350
15416SOL    HW247700   6.161   5.367   0.282 -1.7300  2.5744  0.5169
15417SOL     OW47701   8.939   9.219   6.883 -0.1330  0.0534  0.2385
15417SOL    HW147702   8.846   9.241   6.893 -0.4658 -1.2626  0.2373
15417SOL    HW247703   8.948   9.194   6.791 -0.2344 -1.7270  0.6763
15418SOL     OW47704   7.527   4.789   7.955  0.3797  0.1613 -0.1809
15418SOL    HW147705   7.456   4.822   8.009  2.5007  2.0104  1.6755
15418SOL    HW247706   7.519   4.837   7.872 -0.6831  0.0997 -0.1238
15419SOL     OW47707   4.596   2.048   9.155 -0.0861 -0.1314 -0.3880
15419SOL    HW147708   4.624   2.124   9.206 -2.4259  0.7075 -0.2443
15419SOL    HW247709   4.540   2.084   9.086 -1.3347 -1.7004 -0.2550
15420SOL     OW47710   4.154   2.404   1.452 -0.1764  0.7309 -0.3811
15420SOL    HW147711   4.239   2.433   1.484 -0.5702  0.1767  1.2940
15420SOL    HW247712   4.167   2.312   1.430 -0.3354  0.6537 -0.1523
15421SOL     OW47713   4.296   4.070   7.297 -0.8498  0.1043  0.0766
15421SOL    HW147714   4.284   4.023   7.379  0.7545  0.6832  0.6828
15421SOL    HW247715   4.315   4.160   7.324 -1.9572  0.6863 -0.9977
15422SOL     OW47716   4.162   5.599   3.365 -0.0832 -0.0680  0.1528
15422SOL    HW147717   4.076   5.560   3.351  0.7476 -1.2462 -2.4380
15422SOL    HW247718   4.222   5.525   3.365  1.0117  0.7780  1.3191
15423SOL     OW47719   0.541   7.731   0.753  0.4769  0.1364 -0.3084
15423SOL    HW147720   0.458   7.740   0.705 -0.3052  3.2762  1.3797
15423SOL    HW247721   0.607   7.763   0.691  0.1880 -0.5251 -0.9783
15424SOL     OW47722   9.016   7.419   6.598  0.7205 -0.1660  0.3007
15424SOL    HW147723   9.008   7.485   6.529  1.7451  1.2210  1.4576
15424SOL    HW247724   8.941   7.361   6.584 -0.9095  1.9067 -0.0679
15425SOL     OW47725   3.219   6.945   5.465  0.0671  0.5338  0.2870
15425SOL    HW147726   3.179   7.021   5.424  0.1403  0.3110 -0.2006
15425SOL    HW247727   3.236   6.973   5.555 -1.5949  0.4783  0.6508
15426SOL     OW47728   7.028   1.533   1.168  0.2299  0.3257  0.6386
15426SOL    HW147729   7.001   1.529   1.077  1.7312 -1.5355  0.2100
15426SOL    HW247730   6.947   1.524   1.218 -0.7685  2.5055 -0.4299
15427SOL     OW47731   2.198   1.915   3.082 -0.3994  0.3440 -0.7052
15427SOL    HW147732   2.177   2.006   3.061 -0.4232  0.9175  1.5014
15427SOL    HW247733   2.113   1.871   3.083 -0.4472  0.4180 -1.2190
15428SOL     OW47734   4.612   4.382   2.669  0.0285  0.1756 -0.0538
15428SOL    HW147735   4.557   4.451   2.705 -1.2216 -1.1071  0.5877
15428SOL    HW247736   4.606   4.311   2.733  0.0988 -1.0812 -1.3805
15429SOL     OW47737   8.404   6.629   9.162  0.1134  0.0074 -0.1545
15429SOL    HW147738   8.411   6.721   9.185  1.0268  0.6370 -2.6654
15429SOL    HW247739   8.493   6.596   9.167 -0.1286 -0.6242  0.1694
15430SOL     OW47740   5.906   8.688   0.661 -0.0151 -0.2754  0.2745
15430SOL    HW147741   5.981   8.742   0.686  0.6990  0.3016 -2.7878
15430SOL    HW247742   5.830   8.744   0.679  0.4595  0.2317  0.7611
15431SOL     OW47743   7.132   3.565   4.277 -0.1399 -0.0987  0.2815
15431SOL    HW147744   7.041   3.552   4.304  0.2584 -0.2040  1.6310
15431SOL    HW247745   7.184   3.535   4.352  0.9870  0.7036 -0.1534
15432SOL     OW47746   8.257   3.214   6.448  0.5672  0.0522 -0.0885
15432SOL    HW147747   8.175   3.195   6.493  1.0461 -0.8354  0.4234
15432SOL    HW247748   8.243   3.300   6.408 -0.0393  0.6482  1.3514
15433SOL     OW47749   0.858   2.591   1.861 -0.5835 -0.4650  0.0539
15433SOL    HW147750   0.924   2.613   1.926  0.0651  1.1366 -1.0692
15433SOL    HW247751   0.835   2.500   1.880 -1.6839  0.4014  3.5377
15434SOL     OW47752   3.052   2.003   6.902 -0.1170 -0.9451  0.3594
15434SOL    HW147753   3.037   1.911   6.881  0.3143 -0.8688 -0.3353
15434SOL    HW247754   3.036   2.010   6.996 -0.1299 -1.7308  0.4213
15435SOL     OW47755   2.441   1.770   0.908  0.1057  0.6946 -0.0760
15435SOL    HW147756   2.524   1.725   0.889  0.0971  0.0076  1.3677
15435SOL    HW247757   2.451   1.802   0.998 -2.1469 -1.7690  1.2084
15436SOL     OW47758   5.253   3.308   2.333 -0.1996 -0.6699  0.3168
15436SOL    HW147759   5.226   3.251   2.405  1.0442  0.2869  1.5909
15436SOL    HW247760   5.210   3.392   2.351  1.0311 -0.0788  0.6273
15437SOL     OW47761   3.753   3.887   4.087  0.2691 -0.4586  0.3187
15437SOL    HW147762   3.775   3.794   4.094  1.1217 -0.3351 -0.5263
15437SOL    HW247763   3.766   3.908   3.995  0.4964  0.5901  0.5774
15438SOL     OW47764   3.650   2.038   1.030 -0.6791 -0.1359  0.0412
15438SOL    HW147765   3.571   2.035   1.085  0.1007 -0.8158  1.1534
15438SOL    HW247766   3.619   2.013   0.943 -2.1612  2.0508 -0.1569
15439SOL     OW47767   8.810   7.685   2.059 -0.1259 -0.1070  0.9435
15439SOL    HW147768   8.737   7.628   2.033 -0.8366  1.2414 -0.1394
15439SOL    HW247769   8.872   7.679   1.986 -0.1729  0.4402  0.8592
15440SOL     OW47770   5.392   1.186   0.460  0.5038 -0.3732 -0.1145
15440SOL    HW147771   5.401   1.269   0.413  0.4975 -0.7974 -0.8901
15440SOL    HW247772   5.317   1.144   0.417  0.1489 -0.5320  0.6523
15441SOL     OW47773   3.200   4.236   5.175 -0.0282 -0.4138  0.1834
15441SOL    HW147774   3.197   4.152   5.219  1.1009 -0.4113  0.3106
15441SOL    HW247775   3.237   4.216   5.088  0.4623 -0.0351  0.2973
15442SOL     OW47776   4.202   7.177   2.798 -0.2048  0.4279  0.1856
15442SOL    HW147777   4.280   7.225   2.768 -1.5940  1.2906 -2.3937
15442SOL    HW247778   4.188   7.208   2.887  2.2237  0.4452  0.6471
15443SOL     OW47779   1.228   8.100   7.505  0.0966 -0.2032  0.2562
15443SOL    HW147780   1.233   8.193   7.529  1.1197  0.2581 -1.5514
15443SOL    HW247781   1.319   8.070   7.507  0.1528 -0.3669 -1.9108
15444SOL     OW47782   2.081   0.215   5.075  0.1920 -0.5432  0.0202
15444SOL    HW147783   2.052   0.170   4.996 -0.4832 -0.6488  0.3278
15444SOL    HW247784   2.171   0.183   5.088  0.0883 -0.9982 -0.3491
15445SOL     OW47785   5.551   2.797   2.780 -0.2784  0.1005  0.5219
15445SOL    HW147786   5.574   2.755   2.697  0.9872  3.3761 -0.9638
15445SOL    HW247787   5.611   2.759   2.844  1.0504 -0.1198 -0.7975
15446SOL     OW47788   0.445   9.173   0.757  0.7077 -0.4089  0.0184
15446SOL    HW147789   0.354   9.160   0.729  0.7852  0.3447 -0.5923
15446SOL    HW247790   0.447   9.261   0.793  0.8537 -0.9808  1.4922
15447SOL     OW47791   7.159   8.168   2.855 -0.2638  0.1210  0.1012
15447SOL    HW147792   7.238   8.171   2.801 -0.1126  2.4511  0.3561
15447SOL    HW247793   7.156   8.078   2.887  2.6238  0.0848  0.5734
15448SOL     OW47794   9.109   0.945   2.766 -0.0161 -0.1007 -0.1433
15448SOL    HW147795   9.029   0.980   2.726 -1.2420 -1.3643  1.0778
15448SOL    HW247796   9.110   0.853   2.740  0.0549 -0.5362  1.3513
15449SOL     OW47797   6.602   5.427   3.278 -0.6017 -0.1310 -0.0842
15449SOL    HW147798   6.602   5.448   3.185 -0.2725  0.1489 -0.0206
15449SOL    HW247799   6.560   5.341   3.283  0.5597 -0.7525 -0.6273
15450SOL     OW47800   5.970   7.558   0.508 -0.6820  0.0693  0.2927
15450SOL    HW147801   6.035   7.489   0.523 -0.2118  0.0327 -1.6193
15450SOL    HW247802   5.887   7.511   0.505 -1.3969  0.4126  5.6223
15451SOL     OW47803   2.308   4.505   2.043 -0.0832 -0.0748 -0.3962
15451SOL    HW147804   2.386   4.456   2.015  0.6556  1.9240 -2.2282
15451SOL    HW247805   2.274   4.542   1.961 -2.7008 -0.4619  0.4501
15452SOL     OW47806   4.285   1.546   2.701  0.2625  0.5368  0.2230
15452SOL    HW147807   4.304   1.630   2.659 -0.0083  0.3827 -0.2068
15452SOL    HW247808   4.291   1.565   2.795  1.5785  0.7187  0.1275
15453SOL     OW47809   0.036   0.741   2.993  0.0481 -0.8451  0.3267
15453SOL    HW147810  -0.000   0.830   2.997  0.6065 -0.6391  1.3919
15453SOL    HW247811  -0.013   0.692   3.059  1.2812 -0.7021  1.4034
15454SOL     OW47812   6.168   8.882   7.047  0.0031 -0.1174 -0.6487
15454SOL    HW147813   6.188   8.913   7.135  0.4695  1.2204 -1.1993
15454SOL    HW247814   6.123   8.799   7.060  0.6122 -0.2405  0.8283
15455SOL     OW47815   4.511   2.910   3.559 -0.5545  0.1116 -0.2101
15455SOL    HW147816   4.562   2.833   3.583  2.4732  2.2352  0.7598
15455SOL    HW247817   4.428   2.875   3.526  0.4000 -3.4746  0.7939
15456SOL     OW47818   7.042   6.056   6.290  0.0656  0.4130  0.0768
15456SOL    HW147819   6.964   6.110   6.278 -0.0388  0.2778  0.1387
15456SOL    HW247820   7.116   6.116   6.275 -0.0146  0.9996  1.8353
15457SOL     OW47821   6.434   0.599   7.622 -0.5121  0.5257 -0.0145
15457SOL    HW147822   6.451   0.650   7.544 -0.2894  1.7365  0.7967
15457SOL    HW247823   6.431   0.508   7.592 -0.1620  0.9483 -1.3637
15458SOL     OW47824   1.150   5.069   2.259  0.0108  0.4578 -0.3654
15458SOL    HW147825   1.131   5.163   2.252 -0.7138  0.3415 -0.0848
15458SOL    HW247826   1.068   5.031   2.290 -0.1849 -0.4672 -1.8983
15459SOL     OW47827   7.312   3.010   4.776 -0.3815 -0.0149 -0.1021
15459SOL    HW147828   7.274   2.943   4.833  0.6988 -0.2349  0.3890
15459SOL    HW247829   7.262   3.004   4.695 -2.5695  0.9182  1.1003
15460SOL     OW47830   8.791   7.792   8.617  0.1357  0.5256 -0.4698
15460SOL    HW147831   8.846   7.853   8.667 -0.0592 -0.0808  0.5207
15460SOL    HW247832   8.763   7.842   8.540  1.0990  1.2267 -0.3840
15461SOL     OW47833   8.825   8.431   7.976 -0.5102 -0.3514  0.3638
15461SOL    HW147834   8.825   8.413   7.882 -2.7994  2.3747 -0.2976
15461SOL    HW247835   8.915   8.459   7.996  0.0011 -0.9666 -0.9974
15462SOL     OW47836   1.014   6.634   4.504  0.3172 -0.4382 -0.3314
15462SOL    HW147837   0.920   6.623   4.486  0.1066 -0.0640  0.4709
15462SOL    HW247838   1.025   6.598   4.592  0.5356  1.2949  0.3934
15463SOL     OW47839   0.354   8.866   3.450  0.2750 -0.1489 -0.0510
15463SOL    HW147840   0.319   8.795   3.397 -0.6853  0.4753 -0.2746
15463SOL    HW247841   0.365   8.828   3.537  0.9566 -0.9107 -0.4640
15464SOL     OW47842   2.551   1.242   3.838  0.2293  0.7613 -0.3826
15464SOL    HW147843   2.494   1.273   3.767 -0.5314  0.1502 -0.0541
15464SOL    HW247844   2.616   1.187   3.794  1.0972  2.1396 -0.8663
15465SOL     OW47845   0.410   5.905   4.412  0.2258 -0.2505  0.1456
15465SOL    HW147846   0.433   5.955   4.334 -1.0165 -1.1744 -0.8510
15465SOL    HW247847   0.323   5.937   4.436  1.1841  1.1068  2.1035
15466SOL     OW47848   2.073   2.916   7.593  0.8465  0.0713 -0.0406
15466SOL    HW147849   2.124   2.839   7.617  1.2362 -0.3751 -2.0743
15466SOL    HW247850   1.983   2.884   7.586  0.8254  0.0740  0.1953
15467SOL     OW47851   3.085   6.853   6.657  0.0049 -0.5297  0.2853
15467SOL    HW147852   3.143   6.783   6.685 -0.0337 -0.7641 -0.2177
15467SOL    HW247853   3.114   6.875   6.569  0.4223  0.5175  0.6601
15468SOL     OW47854   8.209   0.511   2.214 -0.3883 -0.5789  0.4256
15468SOL    HW147855   8.172   0.511   2.302 -0.5406  0.7444  0.3819
15468SOL    HW247856   8.280   0.575   2.217  0.1797 -1.1660 -0.1870
15469SOL     OW47857   2.665   2.296   6.812 -0.7521 -0.2201 -0.0699
15469SOL    HW147858   2.622   2.251   6.885 -0.1683 -0.9426 -0.1671
15469SOL    HW247859   2.625   2.259   6.734 -2.8571  1.9848 -0.1583
15470SOL     OW47860   5.421   9.054   8.516  0.3662  0.2285 -0.1365
15470SOL    HW147861   5.482   9.125   8.539 -0.3563  0.9092 -0.2984
15470SOL    HW247862   5.429   9.046   8.421  0.8391 -0.2809 -0.0607
15471SOL     OW47863   7.408   5.507   8.676 -0.0589 -0.0652 -0.3984
15471SOL    HW147864   7.499   5.535   8.686 -0.6916  1.8463  0.4472
15471SOL    HW247865   7.404   5.467   8.589  1.9150 -1.6766  0.1753
15472SOL     OW47866   8.351   0.629   9.240 -0.3025 -0.1076  0.4559
15472SOL    HW147867   8.430   0.662   9.197 -0.2511 -1.6198 -0.6856
15472SOL    HW247868   8.377   0.544   9.276 -1.5310 -0.8696 -0.3902
15473SOL     OW47869   9.274   0.685   6.235 -0.0075 -0.6755  0.8379
15473SOL    HW147870   9.341   0.616   6.229 -0.9114 -1.4798 -0.2856
15473SOL    HW247871   9.192   0.638   6.251 -0.5936  0.1675  0.3787
15474SOL     OW47872   1.644   2.668   6.541 -0.1141  0.5196 -0.0200
15474SOL    HW147873   1.649   2.633   6.453  0.9596 -1.1681  0.6722
15474SOL    HW247874   1.572   2.620   6.582 -0.5650  1.2446  0.0640
15475SOL     OW47875   6.608   7.012   7.306 -0.0789  0.2418 -0.0066
15475SOL    HW147876   6.516   7.031   7.286 -0.3969 -1.2429 -0.0802
15475SOL    HW247877   6.644   6.978   7.224 -0.3830 -2.2946  0.8123
15476SOL     OW47878   1.828   2.293   6.331  0.2287  0.4220  0.3598
15476SOL    HW147879   1.737   2.322   6.323  0.5321  0.8204 -2.5064
15476SOL    HW247880   1.835   2.218   6.273  1.9019  0.8469 -0.0367
15477SOL     OW47881   1.109   4.004   6.942 -0.0224  0.0964 -0.5179
15477SOL    HW147882   1.200   4.007   6.969 -0.2942  0.8038  0.3543
15477SOL    HW247883   1.098   4.082   6.887 -0.6223  1.2500  1.1549
15478SOL     OW47884   1.553   4.474   1.809  0.3384  0.3833  0.3901
15478SOL    HW147885   1.565   4.379   1.806 -0.2042  0.3071  0.4864
15478SOL    HW247886   1.513   4.491   1.894 -1.8386  0.4090 -0.5725
15479SOL     OW47887   6.532   4.259   6.424  0.2374  0.9808  0.1189
15479SOL    HW147888   6.520   4.183   6.367  1.5973 -0.7213  1.9553
15479SOL    HW247889   6.490   4.331   6.377 -0.5168 -0.7388 -2.0247
15480SOL     OW47890   2.225   4.463   3.085 -0.0478  0.2382 -0.0728
15480SOL    HW147891   2.300   4.404   3.080 -0.9057 -0.9177  0.3506
15480SOL    HW247892   2.150   4.410   3.057 -1.1117  0.6208  1.8420
15481SOL     OW47893   5.347   7.055   3.055 -0.0541 -0.0892 -0.4396
15481SOL    HW147894   5.422   6.996   3.060  0.1392  0.0938 -1.1686
15481SOL    HW247895   5.274   7.003   3.089  0.0745 -0.8296 -1.2600
15482SOL     OW47896   3.684   8.487   0.926  0.4211  0.1928  0.3955
15482SOL    HW147897   3.625   8.524   0.862 -0.3372 -1.0984  0.3198
15482SOL    HW247898   3.637   8.492   1.009  1.0047  0.9554  0.6966
15483SOL     OW47899   1.377   2.042   7.005  0.3133 -0.8686  0.6754
15483SOL    HW147900   1.336   2.127   6.985 -0.1868 -0.9329  1.3836
15483SOL    HW247901   1.303   1.982   7.016  0.6767 -1.5544 -0.4345
15484SOL     OW47902   4.572   3.403   4.078  0.2380 -0.0535  0.0533
15484SOL    HW147903   4.618   3.398   3.994 -0.8707  2.7995 -0.8578
15484SOL    HW247904   4.638   3.434   4.140  0.2284  1.5233 -0.6725
15485SOL     OW47905   5.669   2.443   0.746  0.1800 -0.6794 -0.0021
15485SOL    HW147906   5.620   2.430   0.665 -0.2801  0.0765  0.1458
15485SOL    HW247907   5.645   2.368   0.801  0.3564 -1.0990 -0.4918
15486SOL     OW47908   2.309   2.842   1.095 -0.1512  0.1647 -0.4864
15486SOL    HW147909   2.269   2.767   1.050  0.1216  0.4436 -1.2079
15486SOL    HW247910   2.247   2.862   1.165 -1.0624  0.2898 -1.2925
15487SOL     OW47911   0.302   0.278   6.117  0.5341  0.0470 -0.0578
15487SOL    HW147912   0.214   0.274   6.079  1.2031 -0.5527 -1.6417
15487SOL    HW247913   0.310   0.368   6.148 -0.9278 -0.1191  0.9256
15488SOL     OW47914   1.322   6.622   6.488  0.0269 -0.0880 -0.1506
15488SOL    HW147915   1.344   6.713   6.508 -0.7065  0.1290 -0.3203
15488SOL    HW247916   1.350   6.609   6.398  0.5900 -0.1820  0.0350
15489SOL     OW47917   5.333   1.979   4.434  0.0974 -0.1393 -0.2318
15489SOL    HW147918   5.305   1.904   4.381  0.0763  0.1700 -0.6674
15489SOL    HW247919   5.278   2.051   4.404 -0.8976 -0.2565  1.1955
15490SOL     OW47920   2.795   2.384   2.413  0.0984 -0.0441 -0.0823
15490SOL    HW147921   2.735   2.333   2.357  1.1550 -0.1294 -1.1861
15490SOL    HW247922   2.872   2.398   2.358  0.0699  2.2881  0.3934
15491SOL     OW47923   0.899   6.090   1.905 -0.1932 -0.4526  0.1482
15491SOL    HW147924   0.886   6.158   1.971 -0.2523 -0.5804  0.2697
15491SOL    HW247925   0.937   6.017   1.953  2.7875  0.5188 -0.5001
15492SOL     OW47926   3.441   7.600   6.183 -0.2593 -0.0269  0.3174
15492SOL    HW147927   3.427   7.531   6.247 -0.4189 -0.4037 -0.1123
15492SOL    HW247928   3.390   7.572   6.107  0.6452 -0.0516 -0.3037
15493SOL     OW47929   7.072   7.409   7.537 -0.1220 -0.4136 -0.3631
15493SOL    HW147930   7.041   7.349   7.606  0.4982 -1.5124 -1.0066
15493SOL    HW247931   6.995   7.461   7.515 -0.2001  0.3854  1.5561
15494SOL     OW47932   0.201   4.466   5.891  0.2738 -0.3249  0.0727
15494SOL    HW147933   0.211   4.559   5.911  1.0965 -0.5404  0.6939
15494SOL    HW247934   0.275   4.424   5.934 -0.4622 -1.3549  0.3707
15495SOL     OW47935   0.322   5.906   9.108 -0.4319  0.2339 -0.5386
15495SOL    HW147936   0.279   5.966   9.169  1.7056  1.3351 -0.0018
15495SOL    HW247937   0.341   5.828   9.160  0.1556  0.6240 -0.1549
15496SOL     OW47938   1.772   1.912   8.648 -0.1745  0.2810 -0.9345
15496SOL    HW147939   1.705   1.861   8.693  0.8198  0.2564  0.6126
15496SOL    HW247940   1.735   2.000   8.640 -1.8542 -0.5505 -3.5172
15497SOL     OW47941   5.958   4.798   1.468 -0.6667  0.1399 -0.7246
15497SOL    HW147942   6.004   4.869   1.424  0.2500 -0.6852 -1.1364
15497SOL    HW247943   6.026   4.735   1.490 -1.7647 -2.2057 -3.3995
15498SOL     OW47944   3.313   4.773   5.497  0.2905 -0.1166 -0.0898
15498SOL    HW147945   3.358   4.702   5.450 -1.8984 -0.4712 -1.8424
15498SOL    HW247946   3.220   4.756   5.482 -0.3300  3.2051 -0.7136
15499SOL     OW47947   0.498   8.938   5.576  0.0692 -0.0021 -0.1863
15499SOL    HW147948   0.475   8.978   5.660 -0.2321 -1.5087  0.4771
15499SOL    HW247949   0.433   8.971   5.515 -2.1231 -1.8335  1.0054
15500SOL     OW47950   8.299   8.274   8.026  0.5750 -0.0594  0.2755
15500SOL    HW147951   8.387   8.236   8.027  0.8497  0.4043 -1.5943
15500SOL    HW247952   8.243   8.203   7.994  0.8390  0.5756 -1.7174
15501SOL     OW47953   4.995   1.142   4.921  0.0258 -0.0447 -0.1832
15501SOL    HW147954   5.072   1.142   4.978 -0.7599 -1.8655  0.9485
15501SOL    HW247955   5.008   1.067   4.863 -0.5241  0.1227 -0.5256
15502SOL     OW47956   4.950   4.918   8.220 -0.0733  0.2884  0.0629
15502SOL    HW147957   4.919   4.953   8.303 -0.3340  1.0571 -0.3434
15502SOL    HW247958   5.032   4.965   8.204 -0.5697  0.9422 -0.6289
15503SOL     OW47959   3.869   2.054   7.024 -0.5327  0.5827 -0.4616
15503SOL    HW147960   3.932   2.079   7.091 -0.1095  2.3032 -1.4474
15503SOL    HW247961   3.875   1.958   7.021  0.6727  0.5845  0.7561
15504SOL     OW47962   1.272   7.239   8.387 -0.1585  0.1217  0.0031
15504SOL    HW147963   1.207   7.175   8.357 -0.3398 -0.7140  2.0078
15504SOL    HW247964   1.264   7.312   8.326 -1.2199 -1.0172 -1.2767
15505SOL     OW47965   2.082   1.327   7.579  0.1783 -0.1316 -0.1726
15505SOL    HW147966   2.076   1.273   7.500  1.8854  1.3646 -1.4257
15505SOL    HW247967   2.122   1.270   7.644 -0.5840 -1.1807 -0.5939
15506SOL     OW47968   4.335   6.888   3.013  0.0704 -0.4725  0.1244
15506SOL    HW147969   4.322   6.880   2.918  1.0317  1.2972 -0.2065
15506SOL    HW247970   4.246   6.895   3.049 -0.4704 -3.8731 -0.2773
15507SOL     OW47971   2.880   8.806   4.752 -0.6598 -0.2207 -0.3996
15507SOL    HW147972   2.815   8.746   4.714 -0.1882 -0.7135 -0.4347
15507SOL    HW247973   2.964   8.763   4.739 -0.4587 -0.3144  1.0227
15508SOL     OW47974   5.425   7.950   2.494  0.6447  0.3582 -0.5172
15508SOL    HW147975   5.423   7.863   2.454  1.0430 -0.0065  0.2372
15508SOL    HW247976   5.451   7.934   2.585 -0.1088  1.1806 -0.1464
15509SOL     OW47977   0.548   4.961   5.664 -0.1238 -0.4446 -0.5833
15509SOL    HW147978   0.584   4.874   5.650  0.0855 -0.4203 -0.2094
15509SOL    HW247979   0.503   4.955   5.748  1.2200  0.2106  0.2282
15510SOL     OW47980   2.109   7.979   3.468 -0.2369  0.1931  0.0041
15510SOL    HW147981   2.027   8.020   3.496  0.4786  1.0517  0.9123
15510SOL    HW247982   2.172   8.051   3.466  0.6424 -0.5686 -0.0892
15511SOL     OW47983   2.015   0.977   4.361 -0.1800 -0.2110  0.0110
15511SOL    HW147984   2.062   0.988   4.279 -0.5482  0.5624 -0.0987
15511SOL    HW247985   2.078   1.000   4.429 -0.5885  1.5642 -0.1650
15512SOL     OW47986   1.080   7.250   7.829  0.5422  0.6217  0.0926
15512SOL    HW147987   1.104   7.180   7.889 -0.5829  0.2626  0.1457
15512SOL    HW247988   1.119   7.329   7.868 -0.0446  0.3690  1.2202
15513SOL     OW47989   7.682   8.074   8.574  0.2474  0.6207  0.2144
15513SOL    HW147990   7.675   8.104   8.664  0.0032  1.3445 -0.0399
15513SOL    HW247991   7.693   8.154   8.522 -0.7641  0.3092 -0.5078
15514SOL     OW47992   1.345   0.043   6.679  0.1375 -0.1329  0.4987
15514SOL    HW147993   1.399  -0.023   6.722 -0.7783 -1.0954  0.2498
15514SOL    HW247994   1.398   0.122   6.678  1.7551 -1.1741 -0.2359
15515SOL     OW47995   0.942   3.748   2.835 -0.1455  0.2734  0.1668
15515SOL    HW147996   1.025   3.715   2.870  0.3262  0.9556 -0.2893
15515SOL    HW247997   0.967   3.820   2.778 -0.9617 -0.2114 -0.8448
15516SOL     OW47998   4.006   4.782   9.091 -0.0436  0.4855  0.0503
15516SOL    HW147999   4.095   4.751   9.110  0.1975  1.1027 -0.0464
15516SOL    HW248000   4.009   4.807   8.999 -0.3283  0.4659  0.0360
15517SOL     OW48001   8.704   7.604   3.129  0.0899 -0.0699  0.2964
15517SOL    HW148002   8.628   7.612   3.071 -0.3325  1.1855  0.9902
15517SOL    HW248003   8.671   7.556   3.205 -0.2023  1.0333  0.8848
15518SOL     OW48004   4.902   6.857   0.816 -0.6859  0.0442 -0.5190
15518SOL    HW148005   4.946   6.774   0.795 -1.9572 -0.4350 -1.3753
15518SOL    HW248006   4.862   6.842   0.901  0.7510  0.4813  0.2668
15519SOL     OW48007   1.116   8.858   4.886 -0.0814  0.0963 -0.0714
15519SOL    HW148008   1.048   8.808   4.932 -0.4393 -0.4200 -1.1091
15519SOL    HW248009   1.125   8.813   4.802  1.5295  0.1839  0.0244
15520SOL     OW48010   5.214   6.782   4.694  0.5139  0.6204 -0.1481
15520SOL    HW148011   5.271   6.859   4.695 -1.1770  1.9475 -1.1426
15520SOL    HW248012   5.137   6.810   4.645 -0.8108 -1.2417  0.7597
15521SOL     OW48013   4.756   5.106   4.332  0.5435  0.4827  0.2936
15521SOL    HW148014   4.670   5.116   4.292  0.6763  2.0291  0.3586
15521SOL    HW248015   4.805   5.052   4.270  0.1031  1.1302 -0.6440
15522SOL     OW48016   2.926   3.983   8.795  0.0671  0.1588  0.1004
15522SOL    HW148017   2.903   3.921   8.725  3.1578 -0.6229 -0.3545
15522SOL    HW248018   2.926   4.069   8.752  0.4409 -0.1252 -0.4785
15523SOL     OW48019   6.216   7.604   5.221 -0.2106  0.4710 -0.2052
15523SOL    HW148020   6.149   7.537   5.209 -0.4104  0.8394 -1.2674
15523SOL    HW248021   6.171   7.687   5.204  0.2987  0.7904 -0.0279
15524SOL     OW48022   3.881   6.262   0.150  0.2651 -0.1993 -0.0970
15524SOL    HW148023   3.790   6.279   0.173  0.4498  1.6031 -0.5639
15524SOL    HW248024   3.876   6.227   0.061  0.0181 -0.2503 -0.0651
15525SOL     OW48025   4.661   7.309   3.965 -0.6175 -0.7298 -0.5941
15525SOL    HW148026   4.597   7.266   3.909 -0.9918 -0.7124 -0.1825
15525SOL    HW248027   4.655   7.263   4.049 -0.0158 -0.7992 -0.5794
15526SOL     OW48028   5.022   5.780   1.926  0.1560  0.3693 -0.2556
15526SOL    HW148029   5.010   5.855   1.985 -0.7417 -1.8547  2.6279
15526SOL    HW248030   5.117   5.767   1.922  0.2231 -0.5058  2.3379
15527SOL     OW48031   5.669   4.095   3.174 -0.2877 -0.0082  0.7893
15527SOL    HW148032   5.645   4.183   3.203 -1.9174 -0.3850  0.7204
15527SOL    HW248033   5.702   4.107   3.085 -3.1826  0.3096 -0.3539
15528SOL     OW48034   6.171   4.036   9.188 -0.1665 -0.2616 -0.2198
15528SOL    HW148035   6.143   4.127   9.180 -1.7232 -0.8233 -2.1514
15528SOL    HW248036   6.111   3.997   9.252  1.1327  0.2362  1.3732
15529SOL     OW48037   4.543   3.714   6.942  0.4538  0.1001  0.1812
15529SOL    HW148038   4.490   3.706   6.863 -1.2696  0.2858  1.2678
15529SOL    HW248039   4.571   3.806   6.943 -2.6861  1.1728  1.6189
15530SOL     OW48040   8.062   9.154   8.123 -0.2542 -0.4894 -0.2990
15530SOL    HW148041   8.116   9.130   8.048  0.3287  1.2406 -0.4897
15530SOL    HW248042   7.986   9.096   8.118 -0.5686  0.0301 -2.6503
15531SOL     OW48043   1.164   7.187   8.792  0.0932  0.0166  0.3245
15531SOL    HW148044   1.229   7.205   8.724 -1.0462  0.1193 -0.7636
15531SOL    HW248045   1.164   7.092   8.801 -2.5536 -0.4300 -2.7523
15532SOL     OW48046   8.887   6.755   1.296  0.1304  0.2861 -0.0180
15532SOL    HW148047   8.815   6.791   1.245 -0.2114  0.6766  0.7143
15532SOL    HW248048   8.961   6.813   1.277  0.4879 -0.6030 -1.4113
15533SOL     OW48049   1.701   2.586   1.020 -0.1980  0.3626 -0.4953
15533SOL    HW148050   1.622   2.537   0.996  0.1507 -0.5061  0.0668
15533SOL    HW248051   1.739   2.536   1.092  1.2836  0.3351 -1.2599
15534SOL     OW48052   5.170   2.873   8.389 -0.3894  0.0920  0.4957
15534SOL    HW148053   5.177   2.866   8.294 -1.3421  3.0123  0.0965
15534SOL    HW248054   5.253   2.913   8.416  0.7051 -2.4915  1.2348
15535SOL     OW48055   1.700   9.052   3.447  0.1836 -0.1111 -0.1724
15535SOL    HW148056   1.694   9.093   3.361 -0.0317 -1.5344 -0.8628
15535SOL    HW248057   1.695   8.958   3.429  0.4166 -0.4419  1.3724
15536SOL     OW48058   3.021   8.237   3.286 -0.1097  0.5392 -0.3820
15536SOL    HW148059   3.001   8.324   3.253 -0.3018  0.6963  0.1428
15536SOL    HW248060   2.995   8.239   3.378  0.2341  0.0470 -0.2672
15537SOL     OW48061   2.360   6.724   0.396 -0.5504 -0.0638  0.0494
15537SOL    HW148062   2.424   6.763   0.337  0.9084 -1.3821  0.6746
15537SOL    HW248063   2.380   6.630   0.394 -1.2760 -0.2909  1.6525
15538SOL     OW48064   3.330   3.136   1.989 -0.1654 -0.2791 -0.2161
15538SOL    HW148065   3.293   3.112   1.904 -0.5550 -1.3690  0.2444
15538SOL    HW248066   3.424   3.140   1.974 -0.3785  1.9428 -1.2617
15539SOL     OW48067   2.050   5.007   5.840 -0.1127 -0.2034  0.4653
15539SOL    HW148068   2.133   5.038   5.874  1.1440  0.4273 -2.7832
15539SOL    HW248069   1.985   5.068   5.874  1.2194  1.2263  0.5378
15540SOL     OW48070   1.486   0.324   6.927  0.2281  0.2259 -0.5554
15540SOL    HW148071   1.574   0.361   6.939  1.3654 -1.7164 -2.3180
15540SOL    HW248072   1.451   0.369   6.851 -0.3640  1.0174  0.1615
15541SOL     OW48073   3.145   9.166   4.757  0.1056 -0.2016 -0.3223
15541SOL    HW148074   3.083   9.112   4.806  0.5177 -1.0375 -0.6926
15541SOL    HW248075   3.227   9.158   4.806  0.7132 -1.6178 -1.4715
15542SOL     OW48076   6.318   1.063   2.453 -0.2193  0.3190  0.1608
15542SOL    HW148077   6.284   0.997   2.393  0.2917 -1.2400  1.5008
15542SOL    HW248078   6.319   1.019   2.538 -1.2164  2.5380  1.3938
15543SOL     OW48079   0.535   7.496   5.578 -0.2106  0.3834  0.4618
15543SOL    HW148080   0.475   7.514   5.506  0.3864  0.8670  0.0752
15543SOL    HW248081   0.528   7.401   5.592  0.3071  0.1353 -0.8290
15544SOL     OW48082   2.729   5.320   8.688 -0.0218  0.5851  0.0422
15544SOL    HW148083   2.787   5.317   8.763  0.5471 -2.3705 -0.3755
15544SOL    HW248084   2.642   5.301   8.724  0.3305 -1.3598 -0.0326
15545SOL     OW48085   3.928   6.134   6.022  0.1414  0.0964  0.1402
15545SOL    HW148086   3.841   6.138   6.062 -0.0966  1.3341 -0.4683
15545SOL    HW248087   3.930   6.049   5.977 -1.9408  1.3059 -2.4439
15546SOL     OW48088   0.758   2.396   2.383  0.1485  0.4529  0.4818
15546SOL    HW148089   0.742   2.477   2.432 -0.2339 -0.0665  1.2546
15546SOL    HW248090   0.750   2.327   2.449  0.9165 -0.1856 -0.0716
15547SOL     OW48091   3.239   7.996   2.437 -0.3548  0.0476 -0.0460
15547SOL    HW148092   3.325   7.993   2.395 -0.2078 -0.0766  0.2583
15547SOL    HW248093   3.187   7.930   2.392  0.2036 -1.0287  0.8399
15548SOL     OW48094   0.992   0.057   5.875  0.3230  0.0425 -0.0368
15548SOL    HW148095   1.008   0.125   5.810 -0.9492  0.7859  0.3876
15548SOL    HW248096   0.899   0.037   5.867 -0.1567  0.9771  2.2564
15549SOL     OW48097   7.696   5.484   8.719 -0.3383 -0.0099 -0.5204
15549SOL    HW148098   7.791   5.496   8.723 -0.3239 -0.2049 -0.2266
15549SOL    HW248099   7.684   5.392   8.698 -0.4634 -0.1964  0.3206
15550SOL     OW48100   4.028   1.335   4.247 -0.5478  0.6877  0.6522
15550SOL    HW148101   4.094   1.299   4.188 -0.9670  1.8613 -0.5766
15550SOL    HW248102   3.960   1.369   4.190 -2.1034 -0.1920  1.8776
15551SOL     OW48103   5.512   4.668   0.730  0.0430 -0.2140  0.1559
15551SOL    HW148104   5.469   4.704   0.652  0.1163 -0.4893 -0.0141
15551SOL    HW248105   5.440   4.626   0.778  0.2687 -1.6004 -0.6542
15552SOL     OW48106   1.253   3.776   8.499 -0.0433  0.7100  0.2422
15552SOL    HW148107   1.158   3.765   8.499 -0.0563  0.7453 -1.0253
15552SOL    HW248108   1.285   3.719   8.430  0.8775  0.6223  0.7159
15553SOL     OW48109   2.105   3.721   0.642 -0.0096  0.9143 -0.0268
15553SOL    HW148110   2.100   3.651   0.707 -1.1003  1.5472  0.5954
15553SOL    HW248111   2.183   3.771   0.667  0.4499  0.2590 -0.1351
15554SOL     OW48112   2.666   0.829   4.094  0.3020 -0.5989 -0.0726
15554SOL    HW148113   2.714   0.902   4.054  0.7076 -0.9658 -0.2555
15554SOL    HW248114   2.588   0.819   4.038  0.1788 -0.2228  0.0290
15555SOL     OW48115   1.791   1.782   4.044  0.1186  0.4099 -0.0181
15555SOL    HW148116   1.698   1.802   4.053  0.2756  1.3121 -0.2547
15555SOL    HW248117   1.799   1.739   3.959 -0.5604 -2.9796  1.4556
15556SOL     OW48118   3.984   7.933   7.236 -0.3349 -0.3877 -0.0962
15556SOL    HW148119   3.947   7.988   7.305 -0.7890 -1.6470  0.7085
15556SOL    HW248120   3.921   7.860   7.227 -0.6770  0.0944 -2.3600
15557SOL     OW48121   7.481   7.977   5.009 -0.1996 -0.2613 -0.5174
15557SOL    HW148122   7.503   7.887   4.988 -0.7114 -0.6542  0.5718
15557SOL    HW248123   7.544   8.003   5.076 -0.0915  0.1795 -0.7808
15558SOL     OW48124   6.046   5.358   7.843 -0.5539  0.2263 -0.2672
15558SOL    HW148125   5.987   5.431   7.861 -0.4808  0.1431  0.3142
15558SOL    HW248126   6.102   5.389   7.771 -0.7309  0.6234 -0.2322
15559SOL     OW48127   1.552   4.206   1.843  0.0114  0.6013  0.0792
15559SOL    HW148128   1.576   4.115   1.858 -1.6377  0.2437  0.7017
15559SOL    HW248129   1.483   4.203   1.777 -0.1262  1.3956  0.1730
15560SOL     OW48130   8.332   0.341   5.741 -0.0974  0.1087 -0.9087
15560SOL    HW148131   8.314   0.271   5.677  0.2458  0.7999 -1.7713
15560SOL    HW248132   8.380   0.407   5.691  0.7889  0.3528  0.2450
15561SOL     OW48133   1.679   4.649   3.447  0.0966 -0.7878  0.0651
15561SOL    HW148134   1.607   4.635   3.386 -0.4610  1.6107  0.0714
15561SOL    HW248135   1.752   4.677   3.392 -0.1289  0.4433  0.3486
15562SOL     OW48136   1.300   7.319   3.903  0.5356 -0.3520 -0.2677
15562SOL    HW148137   1.275   7.410   3.888 -0.5768 -1.0666 -3.7900
15562SOL    HW248138   1.394   7.317   3.881  0.6841  0.0128  0.3137
15563SOL     OW48139   0.863   6.715   8.199  0.2124 -0.1348 -0.1891
15563SOL    HW148140   0.857   6.736   8.292 -1.5721 -1.6224  0.0904
15563SOL    HW248141   0.952   6.682   8.187 -0.0390 -1.5313  1.3847
15564SOL     OW48142   4.186   3.701   0.953 -0.0732 -0.3939 -0.6256
15564SOL    HW148143   4.265   3.754   0.936  1.1847 -2.7368 -2.6256
15564SOL    HW248144   4.115   3.765   0.952  1.7453  2.0021  2.1971
15565SOL     OW48145   7.303   3.099   3.881  0.1562  0.1108  0.3657
15565SOL    HW148146   7.222   3.061   3.848 -0.3996  0.1596  1.5948
15565SOL    HW248147   7.356   3.024   3.908  0.2932  0.1033  0.0827
15566SOL     OW48148   1.821   5.887   7.939  0.1661  0.3741  0.1019
15566SOL    HW148149   1.779   5.907   8.022 -1.5034  0.2629 -0.6830
15566SOL    HW248150   1.761   5.920   7.872  0.6040 -1.0998 -1.0929
15567SOL     OW48151   1.934   7.409   2.951  0.2462 -0.3374  0.0818
15567SOL    HW148152   1.933   7.496   2.992 -2.7880  1.0917 -2.6229
15567SOL    HW248153   1.898   7.351   3.019  1.1898  0.6976  1.5271
15568SOL     OW48154   2.048   3.871   8.110 -0.1611  0.2008 -0.2895
15568SOL    HW148155   2.023   3.913   8.192  0.3978 -0.0815  0.0304
15568SOL    HW248156   1.974   3.813   8.089  0.6297 -1.4216  1.1912
15569SOL     OW48157   3.891   7.842   7.924 -0.7450  0.5647 -0.6294
15569SOL    HW148158   3.823   7.906   7.945  1.5244  3.4566 -1.3402
15569SOL    HW248159   3.948   7.842   8.001 -0.5737 -0.4887 -0.7363
15570SOL     OW48160   6.027   5.447   3.440  0.0460  0.0614 -0.0834
15570SOL    HW148161   6.073   5.483   3.364 -0.9645  0.2558 -0.6227
15570SOL    HW248162   6.088   5.384   3.477  0.0770 -1.0162 -1.8396
15571SOL     OW48163   3.067   8.859   1.044 -0.3548  0.5938 -0.0829
15571SOL    HW148164   2.979   8.895   1.054 -0.1528  0.5574  2.6237
15571SOL    HW248165   3.073   8.792   1.112  0.4913 -2.1967 -2.6856
15572SOL     OW48166   8.304   7.372   7.089  0.0955 -0.5474 -0.1262
15572SOL    HW148167   8.378   7.433   7.078  1.1393 -1.7552 -0.0744
15572SOL    HW248168   8.280   7.347   7.000 -1.0001  0.6618 -0.2024
15573SOL     OW48169   3.950   8.495   3.690  0.1674  0.0155  0.5241
15573SOL    HW148170   3.882   8.428   3.682 -1.6399  1.8111 -0.2482
15573SOL    HW248171   3.951   8.516   3.784  1.0155 -1.2941  0.8353
15574SOL     OW48172   7.547   8.151   2.898 -0.2815  0.5309  0.0288
15574SOL    HW148173   7.516   8.093   2.967  1.5832  0.5826  0.9761
15574SOL    HW248174   7.513   8.113   2.817 -2.0997  0.1968  0.9032
15575SOL     OW48175   5.972   4.950   0.991 -0.0617  0.0796  0.2565
15575SOL    HW148176   5.914   4.941   1.066 -0.7408  1.0563 -0.1263
15575SOL    HW248177   5.916   4.985   0.922  0.8568  0.5042 -0.2951
15576SOL     OW48178   1.368   5.930   5.227  0.0942 -0.2737 -0.0076
15576SOL    HW148179   1.326   6.010   5.195  1.9040  1.0985  0.8178
15576SOL    HW248180   1.318   5.906   5.305 -0.3972  0.1509 -0.1885
15577SOL     OW48181   2.693   8.776   1.941  0.1310  0.3735 -0.2342
15577SOL    HW148182   2.743   8.804   1.865 -3.0739 -1.2153 -3.1888
15577SOL    HW248183   2.683   8.681   1.929 -2.5226  0.4401  0.7461
15578SOL     OW48184   5.224   1.071   2.931  0.2995  0.2135  0.0825
15578SOL    HW148185   5.153   1.009   2.947  0.1196  0.3600 -0.1517
15578SOL    HW248186   5.189   1.156   2.961  0.6297  0.1653  0.6266
15579SOL     OW48187   3.930   0.054   1.893  0.3677 -0.8526 -0.1853
15579SOL    HW148188   3.933   0.132   1.839  1.5550 -1.7795 -1.5202
15579SOL    HW248189   3.864  -0.002   1.851  1.1922 -1.5149 -0.6378
15580SOL     OW48190   8.968   7.426   2.047  0.4009 -0.0947  0.0476
15580SOL    HW148191   9.002   7.499   1.996 -1.4328  1.4318  0.8996
15580SOL    HW248192   8.927   7.466   2.123 -0.1288 -2.0542  0.8600
15581SOL     OW48193   5.975   5.990   4.742 -0.4395 -0.1182 -0.1494
15581SOL    HW148194   6.022   6.000   4.825 -2.1391 -0.5933  0.9225
15581SOL    HW248195   5.893   6.038   4.755 -0.6529 -0.0385 -1.6298
15582SOL     OW48196   0.715   6.149   6.489  0.8372 -0.7707  0.1655
15582SOL    HW148197   0.627   6.110   6.487  1.5504 -2.4663  0.0769
15582SOL    HW248198   0.704   6.230   6.538 -0.6248 -1.3555  0.8651
15583SOL     OW48199   2.787   5.301   1.881  0.5028 -0.4582 -0.0606
15583SOL    HW148200   2.705   5.349   1.896  1.2168  0.9971 -0.5667
15583SOL    HW248201   2.808   5.317   1.789  0.0686 -2.9564 -0.6481
15584SOL     OW48202   7.016   0.712   4.775  0.0452 -0.0731  0.3364
15584SOL    HW148203   7.065   0.686   4.853 -1.6982 -2.3845  0.7513
15584SOL    HW248204   6.949   0.773   4.807 -0.9179 -1.3212  0.7591
15585SOL     OW48205   0.377   1.859   8.870 -0.3066 -0.4755  0.1125
15585SOL    HW148206   0.319   1.910   8.814  0.1660  0.0278  0.0713
15585SOL    HW248207   0.322   1.831   8.943 -0.4253  0.6416  0.4705
15586SOL     OW48208   4.296   9.052   4.500 -0.1293  0.5539  0.0865
15586SOL    HW148209   4.276   9.031   4.591  2.1037 -0.5136  0.4069
15586SOL    HW248210   4.215   9.035   4.452 -1.9714  2.9839  2.0593
15587SOL     OW48211   2.601   3.779   5.626  0.2702 -0.3925 -0.3076
15587SOL    HW148212   2.540   3.837   5.580 -0.7120 -1.1061  0.0460
15587SOL    HW248213   2.648   3.837   5.686  1.7724  0.5914 -2.3460
15588SOL     OW48214   1.543   3.972   3.097 -0.5483  0.1920 -0.0419
15588SOL    HW148215   1.463   4.022   3.115 -0.3771  1.0192 -1.4008
15588SOL    HW248216   1.583   4.018   3.023  2.1451  0.9147  1.7164
15589SOL     OW48217   2.305   5.911   5.449 -0.5353 -0.0151 -0.2663
15589SOL    HW148218   2.329   5.844   5.384 -1.4717 -0.2254 -0.4167
15589SOL    HW248219   2.281   5.987   5.397  2.1436  1.0615 -0.0639
15590SOL     OW48220   7.432   0.980   5.022  0.0786  0.2457 -0.4923
15590SOL    HW148221   7.339   1.002   5.030  0.0943  0.2282 -0.2564
15590SOL    HW248222   7.476   1.042   5.080 -0.0031 -1.3279  1.3465
15591SOL     OW48223   4.638   3.561   6.077 -0.5030 -0.9336 -0.0560
15591SOL    HW148224   4.665   3.480   6.034  1.6004 -1.2383  1.6645
15591SOL    HW248225   4.587   3.533   6.153 -1.0575 -0.5735 -0.2922
15592SOL     OW48226   0.999   5.622   4.919 -0.3818 -0.4722 -0.1709
15592SOL    HW148227   0.935   5.599   4.986 -0.8765  1.5615  0.1198
15592SOL    HW248228   1.083   5.623   4.965 -0.7087  0.8182  0.4588
15593SOL     OW48229   3.408   4.533   9.166 -0.1583 -0.9520 -0.0462
15593SOL    HW148230   3.466   4.600   9.129 -0.3504 -1.1484 -0.7155
15593SOL    HW248231   3.381   4.569   9.251 -1.0124  0.2631 -0.7920
15594SOL     OW48232   7.185   4.738   2.138  0.1747 -0.2676  0.2096
15594SOL    HW148233   7.181   4.700   2.050 -2.8489  0.3726 -0.0190
15594SOL    HW248234   7.192   4.662   2.196  1.2224 -0.7400 -0.4977
15595SOL     OW48235   7.444   4.290   1.416 -0.1243 -0.8318  0.2633
15595SOL    HW148236   7.437   4.346   1.493  0.0606  0.2450 -0.4711
15595SOL    HW248237   7.355   4.285   1.382 -0.3005 -1.7403  0.8219
15596SOL     OW48238   8.343   9.044   1.139 -0.1442 -0.0381 -0.1904
15596SOL    HW148239   8.347   9.043   1.044  1.3519  0.9148 -0.1734
15596SOL    HW248240   8.296   9.124   1.161 -1.2812 -0.7086 -0.1210
15597SOL     OW48241   2.074   1.078   6.563 -0.0764 -0.0833 -0.2354
15597SOL    HW148242   2.013   1.131   6.614  1.3457  0.7135  0.6996
15597SOL    HW248243   2.076   0.994   6.608  1.1698  0.6142  1.0893
15598SOL     OW48244   0.870   4.470   3.912 -0.4488 -0.3559  0.7201
15598SOL    HW148245   0.895   4.443   4.000  1.9545 -1.1229 -0.1185
15598SOL    HW248246   0.944   4.522   3.880 -1.5884  0.5499 -0.5841
15599SOL     OW48247   8.371   0.336   7.418 -0.6927 -0.0400 -0.1525
15599SOL    HW148248   8.325   0.253   7.432 -1.3049 -0.1037 -2.2739
15599SOL    HW248249   8.464   0.312   7.412 -0.6926 -0.3335  0.8062
15600SOL     OW48250   8.682   9.206   5.502 -0.3864  0.3508  0.3988
15600SOL    HW148251   8.777   9.192   5.504 -0.6115 -1.2612  1.9879
15600SOL    HW248252   8.652   9.153   5.428 -0.1330  0.3631  0.2847
15601SOL     OW48253   8.564   4.989   8.689 -0.1094 -0.3384 -0.1827
15601SOL    HW148254   8.641   4.995   8.631  0.4315 -0.1906  0.5390
15601SOL    HW248255   8.560   5.074   8.732  0.9390 -1.2374  1.7935
15602SOL     OW48256   6.851   5.891   7.191 -0.0266  0.0854 -0.0960
15602SOL    HW148257   6.789   5.849   7.252 -0.8014 -1.0122 -1.5771
15602SOL    HW248258   6.798   5.957   7.146  0.2682  0.1669 -0.3235
15603SOL     OW48259   4.300   7.897   9.055  0.0901  0.0976 -0.3916
15603SOL    HW148260   4.376   7.880   9.000  0.5966 -1.6307  0.7435
15603SOL    HW248261   4.310   7.837   9.129 -1.3602  1.2233  0.7992
15604SOL     OW48262   9.268   6.707   0.565 -0.1610 -0.0558 -0.0473
15604SOL    HW148263   9.237   6.720   0.475  0.7221 -0.4340 -0.4193
15604SOL    HW248264   9.194   6.664   0.609  0.1685 -1.9795 -1.2057
15605SOL     OW48265   8.376   2.525   5.800 -0.6920 -0.2082 -0.0761
15605SOL    HW148266   8.445   2.476   5.755 -2.2779 -0.9467 -1.8449
15605SOL    HW248267   8.421   2.600   5.839  1.7085 -2.5008  2.0013
15606SOL     OW48268   4.724   2.182   1.808 -0.6466  0.6013  0.1291
15606SOL    HW148269   4.814   2.161   1.833 -0.2120  0.9095 -1.0941
15606SOL    HW248270   4.716   2.276   1.828 -0.6460  0.6111  0.0826
15607SOL     OW48271   0.447   1.904   8.097 -0.1671  0.3042 -0.8464
15607SOL    HW148272   0.490   1.885   8.014  0.7289  0.1423 -0.3559
15607SOL    HW248273   0.373   1.843   8.099 -0.0683  0.1571 -1.4216
15608SOL     OW48274   4.740   1.040   2.557 -0.2949  0.3541 -0.3674
15608SOL    HW148275   4.689   1.105   2.606 -1.4397  0.0657 -1.1321
15608SOL    HW248276   4.811   1.091   2.518 -1.3957  1.2473 -1.2762
15609SOL     OW48277   5.498   7.651   5.305  0.0736  1.0281 -0.0518
15609SOL    HW148278   5.571   7.605   5.345  0.6553  2.0737  0.1287
15609SOL    HW248279   5.426   7.640   5.367  0.2177  0.4273  0.0142
15610SOL     OW48280   2.105   2.468   7.797  0.3412  0.0917 -0.4959
15610SOL    HW148281   2.065   2.395   7.845  0.6532  1.2095  1.5473
15610SOL    HW248282   2.199   2.455   7.808  0.4157  0.4015 -0.7616
15611SOL     OW48283   6.939   7.310   3.796 -0.0569  0.2972 -0.0220
15611SOL    HW148284   6.847   7.330   3.777 -0.5198  0.2542  2.0234
15611SOL    HW248285   6.950   7.220   3.765 -0.2637  0.7804 -1.6150
15612SOL     OW48286   5.400   8.711   2.639 -0.2409  0.2678 -0.0212
15612SOL    HW148287   5.468   8.674   2.695 -1.1460  0.5413  1.2981
15612SOL    HW248288   5.340   8.755   2.699 -0.8417  1.2267 -1.2793
15613SOL     OW48289   7.889   3.512   0.106  0.4118 -0.3090 -0.0541
15613SOL    HW148290   7.927   3.453   0.172 -0.6155 -0.1775  0.6725
15613SOL    HW248291   7.907   3.468   0.022  0.7042 -1.0613  0.3841
15614SOL     OW48292   5.254   6.652   3.234 -0.3062 -0.2488  0.0917
15614SOL    HW148293   5.166   6.642   3.271 -0.6492  1.5094 -0.1723
15614SOL    HW248294   5.239   6.691   3.148  0.7936  1.6565  0.7102
15615SOL     OW48295   5.961   7.069   3.496 -0.4504  0.3861  0.3303
15615SOL    HW148296   6.047   7.030   3.513  0.3750  1.8641 -0.2989
15615SOL    HW248297   5.907   7.040   3.570  0.7762 -0.0092  1.1033
15616SOL     OW48298   9.214   8.499   1.134  0.4845  0.3174 -0.0371
15616SOL    HW148299   9.306   8.508   1.110  0.5334 -2.1733 -1.0272
15616SOL    HW248300   9.167   8.540   1.061  0.7379  2.0955  0.7291
15617SOL     OW48301   1.804   4.248   7.241 -0.7864  0.0238  0.0699
15617SOL    HW148302   1.736   4.315   7.241 -1.8611 -1.0326  0.3985
15617SOL    HW248303   1.820   4.230   7.334  0.2308  0.5317  0.0071
15618SOL     OW48304   5.931   8.711   4.474 -0.7534  0.2407 -0.4373
15618SOL    HW148305   6.016   8.685   4.509 -1.3105  1.8323  2.4614
15618SOL    HW248306   5.872   8.642   4.503 -0.5357 -0.8421 -2.4137
15619SOL     OW48307   9.179   5.998   7.120  0.2468 -0.1793 -0.0029
15619SOL    HW148308   9.236   6.020   7.046  0.0040  0.3098 -0.0442
15619SOL    HW248309   9.219   6.043   7.195  0.4292 -0.5820  0.1472
15620SOL     OW48310   0.082   3.337   6.137 -0.4893  0.0546  0.0303
15620SOL    HW148311   0.120   3.264   6.089 -1.1799 -1.0968  1.1644
15620SOL    HW248312   0.142   3.351   6.210 -1.0190 -0.2663  0.5433
15621SOL     OW48313   7.995   7.783   5.355 -0.4756 -0.0791 -0.0908
15621SOL    HW148314   7.911   7.793   5.311 -0.3120  0.0951 -0.3644
15621SOL    HW248315   8.030   7.700   5.323 -1.5991 -1.3836  1.7900
15622SOL     OW48316   2.958   1.245   3.758 -0.4032 -0.8060 -0.5888
15622SOL    HW148317   3.048   1.221   3.735  0.1815 -0.6538  1.3398
15622SOL    HW248318   2.917   1.266   3.674  2.6829  3.7185 -1.3454
15623SOL     OW48319   8.220   2.621   0.839  0.0541  0.3636  0.0595
15623SOL    HW148320   8.265   2.629   0.923  0.7808 -0.2412 -0.2654
15623SOL    HW248321   8.167   2.701   0.832 -0.3777  0.2041  1.2978
15624SOL     OW48322   9.213   3.167   7.774 -0.0640 -0.3228 -0.1385
15624SOL    HW148323   9.252   3.235   7.830  0.1970  0.5569 -1.3297
15624SOL    HW248324   9.214   3.206   7.687 -1.5618 -1.1866 -0.5690
15625SOL     OW48325   2.426   1.520   0.645 -0.2023  0.5542  0.1951
15625SOL    HW148326   2.506   1.508   0.697 -0.3722 -0.0386  0.3287
15625SOL    HW248327   2.357   1.487   0.702 -0.2009 -1.8927 -1.0913
15626SOL     OW48328   8.946   4.068   5.021 -0.1655 -0.1865 -0.2769
15626SOL    HW148329   8.890   3.994   4.996 -0.2825 -0.4678  0.7488
15626SOL    HW248330   9.007   4.031   5.085 -1.6540  1.0258  1.9837
15627SOL     OW48331   3.790   4.896   2.646 -0.3474 -0.6701  0.5589
15627SOL    HW148332   3.719   4.960   2.642 -0.6777 -1.0899 -0.6795
15627SOL    HW248333   3.789   4.853   2.560  0.9798 -1.1398  0.7515
15628SOL     OW48334   0.392   7.299   3.128  0.2108  0.2367  0.3470
15628SOL    HW148335   0.458   7.243   3.171 -2.6663 -1.8316  2.4488
15628SOL    HW248336   0.349   7.241   3.065 -1.4050  0.6712  1.0081
15629SOL     OW48337   3.629   8.228   5.026 -1.0310  0.5451 -0.0959
15629SOL    HW148338   3.579   8.157   4.987 -3.0672  1.8199  0.0547
15629SOL    HW248339   3.613   8.303   4.968 -0.6102  1.3984  0.8551
15630SOL     OW48340   6.331   4.452   1.406  0.4441 -0.4572 -0.0514
15630SOL    HW148341   6.297   4.396   1.475  0.1376  1.2855  1.2948
15630SOL    HW248342   6.352   4.393   1.334  1.8797 -2.5124  1.9460
15631SOL     OW48343   6.946   6.473   7.603 -0.3408 -0.2634 -0.0234
15631SOL    HW148344   7.022   6.444   7.553 -0.0506 -0.9408  0.7963
15631SOL    HW248345   6.963   6.445   7.693 -2.4208 -2.2228 -0.1319
15632SOL     OW48346   2.497   3.640   8.484  0.0253  0.0921 -0.6215
15632SOL    HW148347   2.567   3.640   8.418 -1.2004  1.2925 -2.0019
15632SOL    HW248348   2.433   3.577   8.451 -0.0809 -0.1451  0.0287
15633SOL     OW48349   9.037   0.438   7.819 -0.0742 -0.0903 -0.2046
15633SOL    HW148350   9.070   0.451   7.907 -0.4003 -1.2125  0.0890
15633SOL    HW248351   8.941   0.436   7.829 -0.0837 -1.6711 -0.3568
15634SOL     OW48352   1.843   8.681   2.269  0.4962 -0.0469 -0.2023
15634SOL    HW148353   1.935   8.696   2.249  0.1935  0.3908 -1.3761
15634SOL    HW248354   1.844   8.621   2.343  1.7249  0.5543  0.3019
15635SOL     OW48355   2.586   2.537   6.930  0.2815  0.1118  0.4796
15635SOL    HW148356   2.595   2.459   6.876  1.2566  1.2257 -1.0389
15635SOL    HW248357   2.529   2.595   6.879 -2.6397 -0.5105  2.7296
15636SOL     OW48358   3.570   7.215   3.319 -0.1427 -0.0918 -0.1201
15636SOL    HW148359   3.581   7.163   3.240 -0.9593 -0.7512  0.1799
15636SOL    HW248360   3.535   7.299   3.288  0.5055  0.0272 -0.5422
15637SOL     OW48361   3.859   4.329   5.802 -0.3391 -0.4294  0.2010
15637SOL    HW148362   3.809   4.380   5.866  1.1541  1.4401 -0.0427
15637SOL    HW248363   3.938   4.302   5.849  0.4448  0.3739 -0.6249
15638SOL     OW48364   6.241   2.505   6.531 -0.0152  0.3506  0.3897
15638SOL    HW148365   6.270   2.586   6.574  0.6450 -0.0838  0.7869
15638SOL    HW248366   6.169   2.474   6.586  1.2450 -0.5477  1.6230
15639SOL     OW48367   4.941   7.059   1.119 -0.8600  0.2538 -0.4459
15639SOL    HW148368   4.850   7.046   1.093 -1.0412  1.7590 -0.6647
15639SOL    HW248369   4.935   7.103   1.204 -0.3045 -1.5434  0.5590
15640SOL     OW48370   8.730   1.272   0.297 -0.4216 -0.0089 -0.4401
15640SOL    HW148371   8.731   1.231   0.384  1.3996  0.3750 -0.2289
15640SOL    HW248372   8.823   1.283   0.275 -0.8541  0.8550 -1.9961
15641SOL     OW48373   4.904   2.037   5.789 -0.2707 -0.0692 -0.1434
15641SOL    HW148374   4.909   2.130   5.811 -0.1576 -0.2405  0.5623
15641SOL    HW248375   4.993   2.005   5.801 -0.0164 -0.0128 -1.6063
15642SOL     OW48376   4.080   8.981   1.910 -0.4802 -0.6330  0.3396
15642SOL    HW148377   4.042   9.064   1.880 -0.0762  0.1309  1.8453
15642SOL    HW248378   4.009   8.937   1.956 -0.1664 -0.1982  1.2632
15643SOL     OW48379   5.117   0.932   7.413 -0.0326  0.2998  0.4462
15643SOL    HW148380   5.126   1.027   7.413  1.4815  0.2192  2.0732
15643SOL    HW248381   5.107   0.908   7.321 -1.5825  2.0847  0.0960
15644SOL     OW48382   3.020   2.086   4.756  0.0450 -0.1521  0.2061
15644SOL    HW148383   2.939   2.039   4.773 -0.0979  0.0892  0.1949
15644SOL    HW248384   3.088   2.031   4.794 -0.0689 -0.6020 -0.2260
15645SOL     OW48385   8.721   2.640   1.934  0.1713 -0.1540 -0.4796
15645SOL    HW148386   8.709   2.554   1.893 -2.3866 -0.7146  1.2067
15645SOL    HW248387   8.635   2.682   1.926  0.6888  1.2549  0.8746
15646SOL     OW48388   4.188   8.707   2.788 -0.2381  0.3910  0.4675
15646SOL    HW148389   4.110   8.653   2.799  0.4530 -0.5896  0.6791
15646SOL    HW248390   4.251   8.672   2.851  0.2162  1.4884  0.6568
15647SOL     OW48391   8.563   6.034   7.713  0.2464 -0.1209 -0.4324
15647SOL    HW148392   8.625   6.059   7.645 -0.2259 -0.6647 -1.0740
15647SOL    HW248393   8.564   5.938   7.712 -2.1833 -0.2111 -1.9575
15648SOL     OW48394   0.559   5.268   4.973 -0.6124  0.2565 -0.3640
15648SOL    HW148395   0.508   5.333   5.021 -2.1966 -1.3164  0.1871
15648SOL    HW248396   0.577   5.199   5.036  3.4003  1.2450 -0.1727
15649SOL     OW48397   3.890   8.987   6.805 -0.3292 -0.3606  0.1656
15649SOL    HW148398   3.875   9.060   6.745 -0.7436 -0.4326  0.1824
15649SOL    HW248399   3.836   9.006   6.881 -0.3154 -0.6069  0.2390
15650SOL     OW48400   0.145   9.013   0.995 -0.4091  0.6102  0.0375
15650SOL    HW148401   0.233   9.041   1.019  0.7137 -1.5288 -1.2735
15650SOL    HW248402   0.130   8.934   1.047 -0.1629 -0.9032 -2.0558
15651SOL     OW48403   8.534   2.081   2.969 -0.6654  0.0726 -0.0162
15651SOL    HW148404   8.482   2.135   3.029 -0.2991  0.5306 -0.1045
15651SOL    HW248405   8.496   2.100   2.883 -0.2080  0.5912 -0.1105
15652SOL     OW48406   0.384   0.323   0.398  0.4843 -0.0694  0.3704
15652SOL    HW148407   0.393   0.352   0.307  1.2986  0.1112  0.5030
15652SOL    HW248408   0.466   0.349   0.440 -0.2561  0.7062  1.3980
15653SOL     OW48409   7.598   5.023   0.022 -0.2246  0.4055 -0.3172
15653SOL    HW148410   7.676   5.059  -0.019 -0.4154 -0.5201 -1.5625
15653SOL    HW248411   7.558   5.098   0.067 -0.5736  1.7925 -2.7449
15654SOL     OW48412   6.135   4.615   4.435 -0.1902 -0.0505 -0.2010
15654SOL    HW148413   6.063   4.610   4.498 -0.0566 -0.2419 -0.0594
15654SOL    HW248414   6.141   4.527   4.398 -0.9804  0.3424 -1.2983
15655SOL     OW48415   2.875   7.372   3.905  0.0732  0.4272  0.0837
15655SOL    HW148416   2.943   7.308   3.930 -0.9574 -0.3455  1.0558
15655SOL    HW248417   2.872   7.369   3.810 -1.0290 -2.2402  0.1078
15656SOL     OW48418   2.418   4.455   4.668  0.4273 -0.3486 -0.0937
15656SOL    HW148419   2.367   4.444   4.749  2.1445  1.1277  1.2761
15656SOL    HW248420   2.365   4.412   4.601 -1.5907 -0.7073  1.5990
15657SOL     OW48421   6.404   4.317   2.884  0.5336  0.3965 -0.1355
15657SOL    HW148422   6.338   4.383   2.903  0.6216  0.4243  0.0746
15657SOL    HW248423   6.417   4.322   2.789  0.9747  1.0968 -0.0437
15658SOL     OW48424   8.682   2.364   8.429  0.0505  0.2539  0.1305
15658SOL    HW148425   8.651   2.411   8.506  1.0382  0.5308  0.3588
15658SOL    HW248426   8.605   2.361   8.371 -0.4153  0.9037  0.6964
15659SOL     OW48427   2.821   5.609   5.906  0.5741  0.4016  0.2389
15659SOL    HW148428   2.792   5.699   5.898  0.0110  0.0372 -3.1293
15659SOL    HW248429   2.747   5.562   5.944  0.2485  1.0480  0.4082
15660SOL     OW48430   3.249   4.580   8.917 -0.2848 -0.6403 -0.6205
15660SOL    HW148431   3.242   4.494   8.876  0.0389 -1.3841  0.8238
15660SOL    HW248432   3.270   4.561   9.009 -2.2531  0.9158  0.2147
15661SOL     OW48433   0.867   6.502   2.052  0.0640 -0.4833  0.2780
15661SOL    HW148434   0.948   6.543   2.021  0.7407 -1.0145  1.2952
15661SOL    HW248435   0.828   6.568   2.109  0.1790 -0.5262  0.4064
15662SOL     OW48436   0.795   6.180   0.955  0.1271 -0.5260  0.4812
15662SOL    HW148437   0.780   6.269   0.987  3.3938  0.0621  0.7414
15662SOL    HW248438   0.767   6.124   1.027  0.2229  0.4104  1.2699
15663SOL     OW48439   0.130   5.725   5.413  0.0465 -0.3607 -0.1503
15663SOL    HW148440   0.158   5.760   5.328  1.9650 -1.8273 -0.2037
15663SOL    HW248441   0.182   5.775   5.477 -2.2472  1.5722  0.3402
15664SOL     OW48442   2.075   5.069   1.775  0.6826 -0.0511  0.8080
15664SOL    HW148443   1.988   5.070   1.735  0.4790 -0.7478  1.2084
15664SOL    HW248444   2.114   5.153   1.751  0.7265 -0.5967 -1.2056
15665SOL     OW48445   6.892   8.202   2.709 -0.4570  1.0046 -0.3716
15665SOL    HW148446   6.802   8.216   2.680 -0.9378 -0.3109  0.3799
15665SOL    HW248447   6.883   8.163   2.796  0.7966 -0.0471 -0.6726
15666SOL     OW48448   5.572   5.414   8.016  0.0225  0.6367 -0.0741
15666SOL    HW148449   5.622   5.397   7.936  0.1920  0.2428  0.1167
15666SOL    HW248450   5.628   5.474   8.067  1.1020 -1.1216  0.9108
15667SOL     OW48451   1.518   6.807   1.604 -0.5683 -0.2406  0.2368
15667SOL    HW148452   1.518   6.711   1.603  2.0443 -0.3103 -1.2735
15667SOL    HW248453   1.491   6.831   1.515  0.0074  0.3945  0.2300
15668SOL     OW48454   8.745   1.410   6.909 -0.1952  0.0307 -0.3366
15668SOL    HW148455   8.705   1.360   6.980 -0.7600  1.2322  0.2205
15668SOL    HW248456   8.822   1.452   6.948 -1.0249  1.4391 -0.1620
15669SOL     OW48457   3.519   7.988   6.913 -0.1891  0.1194 -0.2098
15669SOL    HW148458   3.428   7.965   6.931 -0.3683  0.1088 -1.0815
15669SOL    HW248459   3.522   8.083   6.921 -0.0149  0.0357  0.9119
15670SOL     OW48460   5.297   8.392   6.632 -0.4340 -0.3000 -0.3090
15670SOL    HW148461   5.372   8.344   6.669 -0.6392 -0.4619 -0.0998
15670SOL    HW248462   5.307   8.383   6.537 -0.2254 -0.3753 -0.2811
15671SOL     OW48463   1.028   6.212   5.470 -0.7622 -0.2184  0.2186
15671SOL    HW148464   0.961   6.159   5.428  0.5412  0.1286 -2.5478
15671SOL    HW248465   1.008   6.302   5.443 -0.3370  0.1239  1.0171
15672SOL     OW48466   5.543   5.854   7.755 -0.0577  0.7102 -0.1571
15672SOL    HW148467   5.623   5.899   7.784 -0.1342 -0.6428  2.4854
15672SOL    HW248468   5.500   5.829   7.836 -1.1878 -2.0349 -1.5035
15673SOL     OW48469   3.570   3.470   0.439  0.2040  0.1475  0.6370
15673SOL    HW148470   3.527   3.423   0.511  1.5487  0.4220  1.6681
15673SOL    HW248471   3.558   3.562   0.461 -0.3636  0.2588 -0.1182
15674SOL     OW48472   0.624   0.991   0.781  0.0691  0.0377  0.3747
15674SOL    HW148473   0.569   0.960   0.710  1.0890  0.2524 -0.5347
15674SOL    HW248474   0.709   1.008   0.740  0.5718  0.5166  1.5687
15675SOL     OW48475   4.297   2.844   8.845 -0.3505 -0.5690  0.0401
15675SOL    HW148476   4.390   2.868   8.834 -0.6072  1.1118  1.0763
15675SOL    HW248477   4.287   2.830   8.940 -1.3275  0.1170  0.0509
15676SOL     OW48478   3.338   8.612   5.534 -0.8417 -0.1137  0.1839
15676SOL    HW148479   3.409   8.582   5.476 -1.2105  1.1870 -0.9974
15676SOL    HW248480   3.304   8.532   5.573  0.1374 -0.9340 -0.5664
15677SOL     OW48481   1.294   1.276   4.262  0.0294  0.0350  0.2448
15677SOL    HW148482   1.295   1.357   4.313 -0.9709  0.7421 -0.8311
15677SOL    HW248483   1.274   1.207   4.326  1.0511  0.5912  1.1950
15678SOL     OW48484   6.180   8.346   8.706 -0.2888 -0.4138 -0.0573
15678SOL    HW148485   6.258   8.395   8.735 -0.5536  0.1755 -0.3260
15678SOL    HW248486   6.113   8.413   8.695 -1.2003 -1.0637  1.3654
15679SOL     OW48487   8.182   4.525   3.859  0.0011  0.2223  0.5557
15679SOL    HW148488   8.151   4.610   3.889  0.0389  0.5296 -0.2519
15679SOL    HW248489   8.105   4.469   3.863 -0.0479  0.3159  0.9904
15680SOL     OW48490   2.402   7.474   6.864  0.2908 -0.0806 -0.1658
15680SOL    HW148491   2.423   7.383   6.881 -0.7742 -0.0055  1.8332
15680SOL    HW248492   2.485   7.512   6.832  0.5164 -1.8834 -1.9710
15681SOL     OW48493   3.975   5.788   4.602 -0.3118  0.1022 -0.0185
15681SOL    HW148494   3.885   5.801   4.630 -0.2494  1.0613 -0.2243
15681SOL    HW248495   4.004   5.875   4.573  0.4798 -0.3183 -0.5194
15682SOL     OW48496   7.282   1.359   3.053 -0.4221  0.0202  0.3407
15682SOL    HW148497   7.266   1.453   3.054 -2.5100 -0.2904  1.7742
15682SOL    HW248498   7.378   1.351   3.056 -0.2079  2.0665  0.2261
15683SOL     OW48499   1.518   0.391   3.926 -0.0024 -0.3718  0.0546
15683SOL    HW148500   1.499   0.297   3.920 -0.6177 -0.2835  0.4794
15683SOL    HW248501   1.525   0.420   3.835 -1.4632 -0.5138 -0.1234
15684SOL     OW48502   0.612   5.187   0.180  0.0379 -0.3873  0.2943
15684SOL    HW148503   0.554   5.137   0.122  0.1800 -0.2366  0.0189
15684SOL    HW248504   0.588   5.158   0.268 -1.2724  0.5120  0.2674
15685SOL     OW48505   4.822   8.660   0.132  0.0213  0.5165 -0.1539
15685SOL    HW148506   4.907   8.643   0.091  0.3563  1.3560  0.1769
15685SOL    HW248507   4.759   8.615   0.076  0.5226  1.2375 -1.3064
15686SOL     OW48508   4.675   4.781   0.145 -0.2887 -0.4582 -0.8308
15686SOL    HW148509   4.696   4.852   0.085 -2.1247  0.9217  0.0979
15686SOL    HW248510   4.757   4.764   0.191  0.7738 -0.5688 -2.6665
15687SOL     OW48511   1.376   1.112   8.759  0.2463 -0.4212 -0.5254
15687SOL    HW148512   1.326   1.031   8.768 -0.2291 -0.0607  0.2012
15687SOL    HW248513   1.331   1.174   8.816  0.0251  0.6324 -1.8194
15688SOL     OW48514   4.756   4.698   2.190  0.7688 -0.2299 -0.7481
15688SOL    HW148515   4.821   4.651   2.243  0.9675  1.6409  0.7937
15688SOL    HW248516   4.806   4.734   2.117  1.3845  0.6427  0.0729
15689SOL     OW48517   8.595   8.698   6.173 -0.8042  0.1251 -0.3483
15689SOL    HW148518   8.522   8.637   6.181  2.0390 -3.6258 -0.5403
15689SOL    HW248519   8.667   8.658   6.222  1.8371  2.4480 -1.9624
15690SOL     OW48520   4.787   0.085   1.349  0.3578 -0.2337 -0.1958
15690SOL    HW148521   4.762   0.138   1.425  0.3047 -0.2087 -0.2306
15690SOL    HW248522   4.881   0.100   1.339  0.3683 -0.2528 -0.1231
15691SOL     OW48523   3.041   8.494   2.298 -0.2692  0.0779 -0.2283
15691SOL    HW148524   3.039   8.401   2.322  3.1382  0.1912  1.1268
15691SOL    HW248525   3.033   8.541   2.381  2.1431  0.7669 -0.2900
15692SOL     OW48526   9.109   8.882   2.070 -0.2952  0.0126 -0.0290
15692SOL    HW148527   9.021   8.914   2.091  0.1442  0.5974  0.9646
15692SOL    HW248528   9.116   8.892   1.975 -0.4488  2.1939  0.1513
15693SOL     OW48529   3.256   7.266   6.607  0.4074  0.4018  0.0002
15693SOL    HW148530   3.298   7.339   6.653  0.1854  1.0027 -0.7365
15693SOL    HW248531   3.233   7.301   6.522 -2.8555  0.5784  0.8101
15694SOL     OW48532   2.968   8.126   6.133 -0.3686 -0.4140 -0.1772
15694SOL    HW148533   3.057   8.093   6.134 -0.7582 -1.6021 -1.5803
15694SOL    HW248534   2.926   8.083   6.208  0.5233  1.1666  1.3086
15695SOL     OW48535   8.124   7.808   0.511 -0.2864  0.9996 -0.5899
15695SOL    HW148536   8.138   7.741   0.444  0.4814  0.3506  0.1988
15695SOL    HW248537   8.144   7.890   0.466  1.3991  0.4940 -0.8630
15696SOL     OW48538   0.864   8.701   2.816 -0.3916  0.0377 -0.2985
15696SOL    HW148539   0.883   8.610   2.837 -0.7965  0.2603  1.1803
15696SOL    HW248540   0.922   8.722   2.743  0.4638 -1.0927  0.0240
15697SOL     OW48541   8.239   4.074   4.028  0.1528 -0.4370 -0.2538
15697SOL    HW148542   8.155   4.097   4.068  0.3069 -0.7209  0.2448
15697SOL    HW248543   8.274   4.005   4.085  1.8319  1.3096  0.9767
15698SOL     OW48544   3.884   6.615   6.987 -0.3015 -0.4212  0.3389
15698SOL    HW148545   3.818   6.580   6.927 -0.7323  0.8403  0.0429
15698SOL    HW248546   3.948   6.658   6.930 -0.5804  0.5687  0.7546
15699SOL     OW48547   3.853   2.050   7.868 -0.4120  0.0924 -0.7544
15699SOL    HW148548   3.777   1.993   7.856 -0.5315  0.3603 -1.3147
15699SOL    HW248549   3.822   2.119   7.927 -0.0128 -0.8821  0.6254
15700SOL     OW48550   4.249   7.382   4.366 -0.4110  0.0477 -0.4774
15700SOL    HW148551   4.261   7.356   4.458 -3.9693 -0.0237  0.1417
15700SOL    HW248552   4.312   7.452   4.352  2.0604 -1.6610  1.1391
15701SOL     OW48553   1.280   4.660   0.607 -0.0514 -0.0758 -0.4725
15701SOL    HW148554   1.338   4.729   0.639 -2.1724  0.1875  3.4946
15701SOL    HW248555   1.212   4.707   0.558 -0.4385  0.4870  0.5680
15702SOL     OW48556   2.127   6.871   5.584  0.0221 -0.2471 -0.4283
15702SOL    HW148557   2.072   6.921   5.644 -1.2320 -1.9507 -0.1129
15702SOL    HW248558   2.068   6.841   5.516  1.1971  0.5796 -1.8688
15703SOL     OW48559   8.979   4.498   3.763 -0.1322  0.4181  0.2627
15703SOL    HW148560   8.902   4.463   3.716  0.0078  1.8982 -1.1764
15703SOL    HW248561   9.016   4.423   3.808 -1.9313 -0.5125  0.2709
15704SOL     OW48562   3.784   3.822   2.579  0.0129  0.2312  0.2942
15704SOL    HW148563   3.856   3.762   2.559 -0.3650 -0.2478  0.3528
15704SOL    HW248564   3.799   3.847   2.670 -0.1374 -0.2161  0.4458
15705SOL     OW48565   5.694   2.861   1.629 -0.0701 -0.3575  0.6549
15705SOL    HW148566   5.656   2.775   1.613  1.2493 -1.0160  0.9337
15705SOL    HW248567   5.761   2.871   1.562 -0.8467  0.8978  0.0095
15706SOL     OW48568   7.884   3.313   7.762  0.1648 -0.3394  0.0162
15706SOL    HW148569   7.931   3.355   7.690 -3.0482  0.8495 -1.5953
15706SOL    HW248570   7.886   3.378   7.833 -2.2147  1.4615 -1.4214
15707SOL     OW48571   2.565   4.756   7.761 -0.2194 -0.6406  0.2295
15707SOL    HW148572   2.631   4.695   7.727 -0.1075 -0.5313  0.2491
15707SOL    HW248573   2.569   4.746   7.856  0.0233 -0.3738  0.2507
15708SOL     OW48574   3.579   1.141   8.009  0.1783 -0.2443  0.3165
15708SOL    HW148575   3.584   1.140   7.914  2.2564  0.9925  0.3360
15708SOL    HW248576   3.671   1.142   8.037 -0.3591 -2.0894  2.3919
15709SOL     OW48577   4.385   4.136   3.439 -0.0360 -0.4369 -0.0203
15709SOL    HW148578   4.321   4.094   3.382 -0.8026 -3.6290  2.8686
15709SOL    HW248579   4.338   4.209   3.479  0.0429  0.8491 -2.1053
15710SOL     OW48580   7.962   5.469   8.719  0.6561  0.1833 -0.4639
15710SOL    HW148581   8.018   5.446   8.644  0.4301 -1.5745 -0.1427
15710SOL    HW248582   8.019   5.518   8.778  2.3756 -2.6936  0.4872
15711SOL     OW48583   3.456   0.275   1.949 -0.1723  0.6272  0.2530
15711SOL    HW148584   3.384   0.319   1.904 -0.2175  2.0536  1.6326
15711SOL    HW248585   3.447   0.183   1.923 -1.6454  0.9917 -0.6920
15712SOL     OW48586   6.124   1.021   8.566 -0.4405  0.2747 -0.4590
15712SOL    HW148587   6.167   1.001   8.483  1.8102  0.9091  0.4934
15712SOL    HW248588   6.040   0.975   8.560 -0.2772  0.1337 -2.9762
15713SOL     OW48589   2.546   5.746   2.220 -0.3723  0.4712 -0.0952
15713SOL    HW148590   2.633   5.711   2.203 -0.2650  0.0795  1.1636
15713SOL    HW248591   2.511   5.767   2.133  0.9427  0.5903 -0.6143
15714SOL     OW48592   0.631   5.298   4.704 -0.4433  0.8261 -0.3964
15714SOL    HW148593   0.603   5.222   4.652  2.1332  0.0416 -0.7708
15714SOL    HW248594   0.593   5.283   4.791  0.6429 -1.3459 -0.2375
15715SOL     OW48595   1.950   4.026   2.883  0.4429 -0.2502 -0.3874
15715SOL    HW148596   2.008   3.949   2.890 -1.2917 -1.5646  0.2016
15715SOL    HW248597   1.924   4.044   2.973 -1.5861 -0.9132 -0.8079
15716SOL     OW48598   5.300   8.968   1.515 -0.2784  0.0177 -0.7050
15716SOL    HW148599   5.251   8.973   1.597  0.6040  0.3936 -0.1956
15716SOL    HW248600   5.246   8.911   1.459 -0.3643 -1.1244  0.4927
15717SOL     OW48601   0.565   9.227   5.199  0.2244  0.1688  0.0604
15717SOL    HW148602   0.511   9.263   5.129  1.0776 -2.0205 -1.8637
15717SOL    HW248603   0.653   9.258   5.180  0.4288 -0.2788  0.2590
15718SOL     OW48604   6.544   5.991   5.577 -0.3536 -0.2760  0.0559
15718SOL    HW148605   6.624   5.997   5.628  0.2972 -2.6081 -0.5793
15718SOL    HW248606   6.544   5.902   5.541 -2.9081 -0.1534 -0.4865
15719SOL     OW48607   8.100   6.644   4.795 -0.3171  0.5693 -0.0588
15719SOL    HW148608   8.165   6.686   4.852 -0.8183 -0.6732  1.5074
15719SOL    HW248609   8.152   6.609   4.723  0.8489 -0.6143  1.2800
15720SOL     OW48610   0.202   2.715   4.829 -0.1106  0.3050  0.2437
15720SOL    HW148611   0.157   2.734   4.912 -1.0158  2.0634 -0.5979
15720SOL    HW248612   0.241   2.799   4.803  0.3629 -0.2757 -0.9937
15721SOL     OW48613   0.113   0.442   7.283  0.0764  0.3423 -0.6957
15721SOL    HW148614   0.169   0.460   7.358  0.8181  2.1759 -1.6401
15721SOL    HW248615   0.027   0.477   7.308 -0.3287 -1.1323  0.1541
15722SOL     OW48616   4.525   2.786   0.346  0.1890  0.5353 -0.0779
15722SOL    HW148617   4.453   2.839   0.380 -1.2906 -0.3653 -1.6330
15722SOL    HW248618   4.548   2.827   0.263 -0.3545 -0.6849 -0.8596
15723SOL     OW48619   0.308   8.335   6.290  0.3890  0.3965 -0.3890
15723SOL    HW148620   0.245   8.385   6.239  0.5546  1.4240  0.3951
15723SOL    HW248621   0.353   8.280   6.225  0.9537  2.0330 -1.4398
15724SOL     OW48622   0.219   5.772   3.205  0.0743 -0.7439  0.8022
15724SOL    HW148623   0.258   5.791   3.291  2.2067  2.0285 -0.5910
15724SOL    HW248624   0.125   5.784   3.218  0.5521  2.8384  2.1962
15725SOL     OW48625   7.635   7.235   6.461  0.4323 -0.0363 -0.2504
15725SOL    HW148626   7.702   7.199   6.519 -0.0722 -1.7816 -0.6933
15725SOL    HW248627   7.567   7.167   6.458 -0.8435  1.2186 -0.6825
15726SOL     OW48628   5.936   5.724   8.137  0.2503 -0.6399  0.3243
15726SOL    HW148629   5.890   5.741   8.219  1.1719  0.4629  0.6444
15726SOL    HW248630   6.022   5.693   8.164 -0.0578 -2.0575 -0.2585
15727SOL     OW48631   6.243   7.156   1.397 -0.1357  0.6400 -0.8116
15727SOL    HW148632   6.287   7.219   1.340  0.2778 -0.4278 -1.7237
15727SOL    HW248633   6.161   7.136   1.352  0.7229 -1.1076 -1.7150
15728SOL     OW48634   0.556   7.010   5.655  0.4486 -0.0564  1.3285
15728SOL    HW148635   0.484   6.946   5.655  1.0649 -0.7683  0.3773
15728SOL    HW248636   0.586   7.013   5.565  0.5123  1.5220  1.3824
15729SOL     OW48637   2.000   2.876   1.214 -0.0298 -0.5780  0.4605
15729SOL    HW148638   1.933   2.907   1.154  0.0945 -1.0924  0.0472
15729SOL    HW248639   1.958   2.806   1.263  0.0474 -0.5537  0.5627
15730SOL     OW48640   3.314   7.723   2.903  0.4345  0.4360 -0.4818
15730SOL    HW148641   3.382   7.790   2.898 -0.3249  1.1496 -1.8971
15730SOL    HW248642   3.362   7.642   2.918  1.6004  0.9429 -1.2614
15731SOL     OW48643   5.562   2.399   8.686 -0.0360  0.1461 -0.1850
15731SOL    HW148644   5.574   2.460   8.614 -1.3637  0.2522 -0.3504
15731SOL    HW248645   5.599   2.443   8.762  1.3323  0.0508 -0.7749
15732SOL     OW48646   1.379   3.029   1.891 -0.4979  0.1271 -0.3746
15732SOL    HW148647   1.387   2.968   1.965  1.6757  0.1120 -0.5583
15732SOL    HW248648   1.427   3.107   1.919 -1.7396  1.0940 -0.8466
15733SOL     OW48649   1.212   5.990   2.111  0.2313 -0.1063 -0.7550
15733SOL    HW148650   1.145   5.952   2.055 -0.8971 -2.7623  2.1191
15733SOL    HW248651   1.169   6.064   2.154 -0.3098 -0.7096 -0.2424
15734SOL     OW48652   6.898   6.891   8.902 -0.2177 -0.6120 -0.1014
15734SOL    HW148653   6.882   6.984   8.921 -0.3361 -0.6044 -0.2329
15734SOL    HW248654   6.916   6.889   8.808  1.7247 -0.4621  0.2326
15735SOL     OW48655   7.024   7.750   5.392 -0.0997 -0.0367 -0.2761
15735SOL    HW148656   6.989   7.831   5.428 -1.6812 -0.7479 -0.1015
15735SOL    HW248657   7.019   7.687   5.464 -0.1898 -0.6247 -0.7839
15736SOL     OW48658   3.215   2.274   4.362 -0.2476  0.0023 -0.5004
15736SOL    HW148659   3.218   2.291   4.268  2.8582 -0.1782 -0.5299
15736SOL    HW248660   3.130   2.231   4.376 -1.1742  0.8347 -3.0285
15737SOL     OW48661   5.802   4.139   7.708  0.1160  0.2533  0.2097
15737SOL    HW148662   5.830   4.085   7.634 -2.1666  0.7038 -1.0755
15737SOL    HW248663   5.813   4.082   7.784  0.2750 -1.0924 -0.7743
15738SOL     OW48664   3.959   8.128   2.908  0.2140  0.3157  0.5167
15738SOL    HW148665   3.888   8.085   2.957 -0.0327  1.8866  1.6067
15738SOL    HW248666   4.034   8.070   2.920 -0.4236 -0.4578  0.8826
15739SOL     OW48667   2.370   3.797   2.861 -0.5262  0.1588  0.1550
15739SOL    HW148668   2.415   3.812   2.944 -0.9327  1.1554  0.2135
15739SOL    HW248669   2.279   3.782   2.885 -0.6031  0.2248 -0.0876
15740SOL     OW48670   1.351   3.736   4.749 -0.0094  0.7376 -0.0205
15740SOL    HW148671   1.283   3.694   4.802 -1.4355  0.0289 -2.2835
15740SOL    HW248672   1.336   3.830   4.760 -0.8117  0.5906  0.1845
15741SOL     OW48673   0.283   3.402   6.312 -0.3678 -0.0920 -0.4771
15741SOL    HW148674   0.372   3.414   6.278  0.3745 -1.1206  0.9949
15741SOL    HW248675   0.261   3.487   6.352  1.3895 -0.7735  2.2185
15742SOL     OW48676   2.886   0.938   6.650  0.4983 -0.1799 -0.4011
15742SOL    HW148677   2.859   0.919   6.560 -1.1473 -0.4579  0.1191
15742SOL    HW248678   2.925   0.856   6.681  0.9409 -0.1269 -0.8200
15743SOL     OW48679   1.416   6.954   7.833 -0.6279  0.1954 -0.5528
15743SOL    HW148680   1.413   6.982   7.924 -0.0334 -0.5465 -0.2858
15743SOL    HW248681   1.509   6.939   7.816 -0.9235 -2.0409 -0.5095
15744SOL     OW48682   3.872   2.425   7.975  0.1982 -0.3551 -0.6776
15744SOL    HW148683   3.941   2.398   8.035 -0.9331 -2.6069 -0.2949
15744SOL    HW248684   3.806   2.356   7.981 -1.0476  0.5577 -2.7487
15745SOL     OW48685   3.904   8.997   4.160 -0.1296 -0.6909  0.8889
15745SOL    HW148686   3.870   9.086   4.155 -0.2322 -0.7852 -0.1974
15745SOL    HW248687   3.826   8.941   4.157 -0.1350 -0.8118  2.5234
15746SOL     OW48688   5.180   2.062   9.064 -0.7018  0.0581  0.4362
15746SOL    HW148689   5.252   2.022   9.113  0.1186 -0.9960 -1.5465
15746SOL    HW248690   5.207   2.153   9.051 -0.6222  0.1729  1.2986
15747SOL     OW48691   8.456   1.560   8.555  0.4689 -0.0247 -0.2142
15747SOL    HW148692   8.371   1.524   8.528 -0.4468  2.2092 -0.4889
15747SOL    HW248693   8.506   1.569   8.474  0.0922  0.7832 -0.3643
15748SOL     OW48694   6.686   5.849   6.273  0.3255  0.1182  0.6252
15748SOL    HW148695   6.780   5.843   6.288  0.3517  0.0677  0.4447
15748SOL    HW248696   6.665   5.942   6.284  0.6352  0.3586 -0.7288
15749SOL     OW48697   7.697   0.786   0.311  0.3377  0.3685  0.0633
15749SOL    HW148698   7.789   0.774   0.287  0.6952  2.4430  0.1781
15749SOL    HW248699   7.664   0.850   0.248 -1.7422 -1.9973 -1.4669
15750SOL     OW48700   5.432   3.057   7.495  0.2858  0.1011 -0.0118
15750SOL    HW148701   5.441   3.008   7.577 -2.4739  1.0085  0.9407
15750SOL    HW248702   5.375   3.003   7.440  1.8332 -0.3385 -1.2419
15751SOL     OW48703   7.206   0.913   2.813  0.0082 -0.0724 -0.3418
15751SOL    HW148704   7.133   0.944   2.760 -1.4013  1.0141  2.0478
15751SOL    HW248705   7.250   0.992   2.844 -0.0634 -0.5799  1.1642
15752SOL     OW48706   6.868   2.051   0.765 -0.0809 -0.6747  0.1805
15752SOL    HW148707   6.865   2.065   0.860  2.2759  0.2164  0.1975
15752SOL    HW248708   6.801   2.110   0.729  1.0723  1.3077  1.1278
15753SOL     OW48709   2.276   8.002   6.365 -0.2846  0.4224 -0.6143
15753SOL    HW148710   2.336   8.046   6.425 -0.0703 -2.0289  1.0951
15753SOL    HW248711   2.327   7.989   6.285  0.0582  2.0333 -0.6830
15754SOL     OW48712   2.689   3.916   2.329 -0.0494  0.6668  0.4236
15754SOL    HW148713   2.644   3.880   2.406 -0.0639 -0.9102 -0.2838
15754SOL    HW248714   2.738   3.991   2.363  0.9482 -0.7239  2.2381
15755SOL     OW48715   3.055   3.319   7.756 -0.3072  0.0073 -0.8231
15755SOL    HW148716   3.040   3.386   7.690 -2.3679  0.2631 -0.1634
15755SOL    HW248717   2.968   3.287   7.778  0.4907 -1.5457  0.2641
15756SOL     OW48718   8.831   1.006   3.697  0.2260 -0.5960  0.0484
15756SOL    HW148719   8.740   0.999   3.666 -0.0905  0.6427  0.6396
15756SOL    HW248720   8.828   0.976   3.787  0.5053 -1.0175 -0.0798
15757SOL     OW48721   4.593   7.427   1.693 -0.5043 -0.0394 -0.0094
15757SOL    HW148722   4.560   7.419   1.783 -0.2182  1.2353  0.2269
15757SOL    HW248723   4.527   7.481   1.649 -1.2983 -1.7118 -0.9344
15758SOL     OW48724   4.904   7.082   0.194  0.1713 -0.2662 -0.4106
15758SOL    HW148725   4.902   7.028   0.272  0.7615 -0.6694 -0.6653
15758SOL    HW248726   4.951   7.029   0.129  1.1065  0.6943 -0.5490
15759SOL     OW48727   8.131   1.993   0.182 -0.1507  0.2893  0.3522
15759SOL    HW148728   8.164   1.916   0.228  0.0179  0.8024  1.1086
15759SOL    HW248729   8.041   2.003   0.212 -0.3911  0.0184 -0.2466
15760SOL     OW48730   6.637   6.813   4.757  0.4658  0.4688 -0.6104
15760SOL    HW148731   6.637   6.791   4.850 -0.4584 -0.5570 -0.8345
15760SOL    HW248732   6.547   6.798   4.729  0.0966  3.1581 -1.1495
15761SOL     OW48733   3.677   8.022   4.133  0.4021 -0.0509 -0.0606
15761SOL    HW148734   3.754   8.077   4.122  1.4141 -1.4256 -0.1716
15761SOL    HW248735   3.690   7.980   4.219 -0.6748  0.3774  0.3242
15762SOL     OW48736   0.683   8.756   8.325  0.2925 -0.2376 -0.2941
15762SOL    HW148737   0.644   8.774   8.411  1.6214 -0.5709  0.4012
15762SOL    HW248738   0.755   8.696   8.343  1.4134  0.6780 -1.4854
15763SOL     OW48739   0.672   6.692   5.727 -0.2592  0.2066 -0.5842
15763SOL    HW148740   0.618   6.709   5.804 -1.2347  0.6727 -1.3418
15763SOL    HW248741   0.661   6.771   5.673  0.4531 -0.0876 -1.1636
15764SOL     OW48742   3.273   9.064   0.189  0.0073 -0.4899  0.2258
15764SOL    HW148743   3.201   9.113   0.228 -0.7150 -0.0675 -1.5207
15764SOL    HW248744   3.351   9.092   0.236 -0.7320  0.4401  0.9170
15765SOL     OW48745   5.460   6.594   3.646 -0.6064  0.6204 -0.5810
15765SOL    HW148746   5.523   6.632   3.708  0.2948 -1.0424 -0.4285
15765SOL    HW248747   5.476   6.641   3.564  1.1522 -0.0507 -0.6605
15766SOL     OW48748   2.784   6.003   2.354  0.3916  0.0692 -0.3867
15766SOL    HW148749   2.858   5.969   2.405  0.7423 -1.6584 -1.9328
15766SOL    HW248750   2.817   6.006   2.264 -1.1879 -0.0711 -0.9988
15767SOL     OW48751   6.416   9.079   8.502  0.0451  0.5610 -0.2854
15767SOL    HW148752   6.328   9.051   8.527 -0.1032  0.2061 -1.1538
15767SOL    HW248753   6.450   9.124   8.579 -1.5813  2.3522 -0.5117
15768SOL     OW48754   8.849   8.252   0.667 -0.9988 -0.0006  0.6925
15768SOL    HW148755   8.813   8.236   0.754  0.1985  0.0207  1.2116
15768SOL    HW248756   8.891   8.337   0.674  0.4740 -0.6858  0.5732
15769SOL     OW48757   1.720   6.725   4.437  0.0577 -0.4513  0.3365
15769SOL    HW148758   1.739   6.819   4.440  1.4407 -0.6867 -0.2559
15769SOL    HW248759   1.662   6.710   4.512  1.8395  0.4681  2.0058
15770SOL     OW48760   7.684   0.574   3.735 -0.4512 -0.0188 -0.2821
15770SOL    HW148761   7.681   0.602   3.643  2.0128  2.9000  0.3543
15770SOL    HW248762   7.598   0.597   3.770 -1.0624 -0.1950 -1.6096
15771SOL     OW48763   4.168   6.786   3.422 -0.0742  0.3874  0.4309
15771SOL    HW148764   4.141   6.851   3.487 -1.6091 -0.5595  0.7997
15771SOL    HW248765   4.137   6.821   3.339 -0.9345  0.1514  0.6337
15772SOL     OW48766   2.560   3.421   7.684  0.3044 -0.3317  1.0173
15772SOL    HW148767   2.592   3.356   7.746  0.1159  0.8352  2.3642
15772SOL    HW248768   2.494   3.471   7.732  0.1619  0.6242 -0.1142
15773SOL     OW48769   3.296   8.727   0.883 -0.4096  0.4234  0.0089
15773SOL    HW148770   3.368   8.696   0.938 -1.9045  0.0576  1.9128
15773SOL    HW248771   3.245   8.784   0.942 -2.0224  0.1301 -1.0547
15774SOL     OW48772   3.190   1.906   5.198  0.2733 -0.5236 -0.2728
15774SOL    HW148773   3.144   1.967   5.140 -1.4098 -2.3134 -0.9294
15774SOL    HW248774   3.143   1.913   5.281  1.7293  0.9270  0.4762
15775SOL     OW48775   2.018   1.200   4.641 -0.0431  0.0187 -0.6397
15775SOL    HW148776   2.092   1.152   4.604  2.0062  0.8048  2.1208
15775SOL    HW248777   2.049   1.291   4.647 -0.5317  0.0748  2.0440
15776SOL     OW48778   6.338   1.803   9.089  0.9133  0.1695 -0.2683
15776SOL    HW148779   6.327   1.783   9.182  1.5257 -0.7497 -0.3779
15776SOL    HW248780   6.427   1.836   9.082  1.0551 -0.2689 -0.5989
15777SOL     OW48781   4.709   8.176   6.493  0.5479 -0.2897  0.0453
15777SOL    HW148782   4.631   8.144   6.448 -0.1690 -0.2203  1.1962
15777SOL    HW248783   4.693   8.156   6.585  1.3717  0.7604  0.4331
15778SOL     OW48784   3.452   7.787   1.128  0.2730 -0.1691  0.0391
15778SOL    HW148785   3.527   7.745   1.172 -0.6559  0.9784  2.9301
15778SOL    HW248786   3.492   7.846   1.064  1.7631 -1.0690  0.0956
15779SOL     OW48787   4.870   3.050   7.384  0.8030 -0.0531 -0.3346
15779SOL    HW148788   4.919   2.970   7.405  0.8710 -0.1852 -0.9642
15779SOL    HW248789   4.926   3.121   7.415  1.1846 -0.2199 -0.6303
15780SOL     OW48790   5.847   2.258   2.401  0.3808 -0.7579 -0.2283
15780SOL    HW148791   5.768   2.209   2.378  0.6719 -2.4005  1.8695
15780SOL    HW248792   5.909   2.190   2.429  2.9035  0.3822 -2.6095
15781SOL     OW48793   7.733   6.117   9.101 -0.3348  0.1226  0.1769
15781SOL    HW148794   7.694   6.204   9.093  0.8129  0.7683  1.1025
15781SOL    HW248795   7.787   6.108   9.023 -1.5960 -0.4014 -0.6590
15782SOL     OW48796   5.696   4.108   6.218 -0.2417  0.6651 -0.7473
15782SOL    HW148797   5.754   4.136   6.147 -1.1969  0.9626 -1.4262
15782SOL    HW248798   5.715   4.015   6.229  1.0032  0.9504 -0.3434
15783SOL     OW48799   3.238   4.849   3.888 -0.4979 -0.0876 -0.1694
15783SOL    HW148800   3.183   4.849   3.966  0.0354  2.6342  0.2850
15783SOL    HW248801   3.191   4.792   3.826 -1.5074 -1.3698  1.6948
15784SOL     OW48802   4.289   0.585   0.529  0.0168  0.0208  0.3724
15784SOL    HW148803   4.310   0.641   0.454  0.5130 -0.1327  0.3968
15784SOL    HW248804   4.345   0.508   0.519 -0.0912 -0.1151  0.7716
15785SOL     OW48805   2.642   4.450   3.237 -0.2886  0.1305 -0.3283
15785SOL    HW148806   2.717   4.432   3.293 -0.0554 -1.1147 -0.9918
15785SOL    HW248807   2.676   4.511   3.172 -0.0660  0.1966 -0.1535
15786SOL     OW48808   0.245   4.357   6.429 -0.2393 -0.6693 -0.1954
15786SOL    HW148809   0.264   4.263   6.429 -3.6906 -1.5388 -2.0530
15786SOL    HW248810   0.262   4.384   6.339 -0.0644  0.3238  0.1291
15787SOL     OW48811   0.683   7.428   5.199 -0.5918  0.3501  0.1707
15787SOL    HW148812   0.655   7.436   5.107 -0.3886  0.0509  0.0830
15787SOL    HW248813   0.631   7.355   5.233 -0.5158  0.3277  0.2375
15788SOL     OW48814   0.030   1.362   3.671  0.5869 -0.3758 -0.8874
15788SOL    HW148815   0.083   1.441   3.661  1.2008 -0.8825 -1.7660
15788SOL    HW248816   0.080   1.307   3.731 -0.3909  0.3521  0.6367
15789SOL     OW48817   3.509   7.638   0.090  0.6409 -0.2318 -0.0408
15789SOL    HW148818   3.520   7.729   0.064  0.5260 -0.4315 -0.8238
15789SOL    HW248819   3.591   7.595   0.066  0.3652 -0.5140 -0.5066
15790SOL     OW48820   2.333   4.391   0.400  0.0314  0.1347 -0.2508
15790SOL    HW148821   2.265   4.458   0.407  0.5153  0.5539  0.6579
15790SOL    HW248822   2.387   4.404   0.478  1.0257 -0.3330 -0.8445
15791SOL     OW48823   6.918   9.013   3.221  0.3290 -0.5324 -0.4326
15791SOL    HW148824   6.839   8.959   3.230 -0.0878  0.0955 -0.2942
15791SOL    HW248825   6.937   9.011   3.128  0.9918 -1.8611 -0.2959
15792SOL     OW48826   3.703   7.378   1.976  0.2680 -0.2782  0.3615
15792SOL    HW148827   3.745   7.294   1.957  0.9593  0.0883  0.2363
15792SOL    HW248828   3.748   7.441   1.920  0.3942  0.3339  1.1319
15793SOL     OW48829   8.227   3.651   0.578 -0.7940  0.0437  1.0242
15793SOL    HW148830   8.319   3.667   0.599 -0.0212 -2.6223  0.1541
15793SOL    HW248831   8.225   3.639   0.483 -1.5854 -1.9254  1.2219
15794SOL     OW48832   1.142   5.256   3.874 -0.3113  0.3020  0.0629
15794SOL    HW148833   1.237   5.267   3.866 -0.2379 -0.1446  0.3005
15794SOL    HW248834   1.108   5.346   3.882 -0.0493  0.5542 -1.4247
15795SOL     OW48835   7.651   6.648   3.068  0.0799  0.3946  0.7402
15795SOL    HW148836   7.701   6.718   3.027  1.1523  0.7032  2.4676
15795SOL    HW248837   7.591   6.693   3.127 -0.1389 -0.0975  0.9014
15796SOL     OW48838   6.526   4.235   1.689  1.0010 -0.8783  0.3745
15796SOL    HW148839   6.578   4.314   1.704  1.2415 -1.3151  1.9624
15796SOL    HW248840   6.574   4.187   1.621  2.5935 -1.1557  1.6337
15797SOL     OW48841   7.889   6.198   1.010  0.2128  0.1935  0.3194
15797SOL    HW148842   7.844   6.120   1.041 -2.0431  0.3606 -2.1708
15797SOL    HW248843   7.982   6.182   1.028 -0.4427 -1.8683  2.2168
15798SOL     OW48844   9.194   8.188   8.724 -0.0769 -0.0943 -0.4420
15798SOL    HW148845   9.129   8.245   8.764 -3.1315  0.3214 -5.1825
15798SOL    HW248846   9.168   8.100   8.751 -1.4151  0.2226 -0.5960
15799SOL     OW48847   1.953   5.032   1.051  0.2723  0.1306  0.3485
15799SOL    HW148848   1.903   5.054   0.972  2.1920 -0.2988 -1.0588
15799SOL    HW248849   1.947   4.936   1.057 -0.8971  0.2473  1.4880
15800SOL     OW48850   5.740   4.272   5.023  0.0376 -0.2414  0.6739
15800SOL    HW148851   5.806   4.263   4.954 -0.0525  0.1369  0.5330
15800SOL    HW248852   5.664   4.311   4.978  0.0624  0.2233  1.0298
15801SOL     OW48853   6.754   7.650   5.294  0.2341 -0.6076  0.2303
15801SOL    HW148854   6.795   7.614   5.215  1.0145 -1.5773  1.0535
15801SOL    HW248855   6.818   7.635   5.363 -0.7569 -0.4802  1.2032
15802SOL     OW48856   4.334   3.391   2.896  0.0431 -0.0690 -0.0425
15802SOL    HW148857   4.318   3.395   2.801  0.4758 -0.1318 -0.1177
15802SOL    HW248858   4.424   3.420   2.906 -0.1084  0.2492  0.3850
15803SOL     OW48859   7.337   3.077   2.793 -0.5435 -0.0776 -0.7189
15803SOL    HW148860   7.349   3.167   2.823  0.1529 -0.2566 -0.4404
15803SOL    HW248861   7.253   3.078   2.746 -0.8653  0.5654 -0.1481
15804SOL     OW48862   4.757   1.695   1.377 -0.2264  0.1211  0.1178
15804SOL    HW148863   4.796   1.761   1.320 -1.4631  2.0865  1.3742
15804SOL    HW248864   4.808   1.616   1.362  0.2122  0.8394 -2.7953
15805SOL     OW48865   2.338   5.815   0.068 -0.4192 -0.4437  0.3835
15805SOL    HW148866   2.293   5.746   0.019  1.7154 -0.6717 -1.4482
15805SOL    HW248867   2.424   5.777   0.088  0.7751  1.5956 -0.5899
15806SOL     OW48868   5.085   3.870   5.559 -0.9473  0.2362 -0.6491
15806SOL    HW148869   4.990   3.861   5.568 -1.0187  0.6515 -0.9122
15806SOL    HW248870   5.103   3.843   5.469 -0.5746 -1.5291 -0.0740
15807SOL     OW48871   3.835   8.672   1.462  0.1445 -0.6050 -0.1786
15807SOL    HW148872   3.922   8.661   1.501 -0.1416 -3.1361 -0.0500
15807SOL    HW248873   3.790   8.732   1.521  1.4957 -0.0170  0.2931
15808SOL     OW48874   5.389   0.761   3.487 -0.0979  0.0307  0.0174
15808SOL    HW148875   5.473   0.791   3.520  0.7210 -1.6957 -0.3893
15808SOL    HW248876   5.341   0.732   3.565  1.7288 -3.7947 -0.0115
15809SOL     OW48877   8.549   2.610   3.351 -0.4924 -0.2837  0.5412
15809SOL    HW148878   8.510   2.697   3.355 -1.5619 -0.7167  0.0284
15809SOL    HW248879   8.641   2.624   3.371 -0.5967  1.0029  0.2121
15810SOL     OW48880   4.144   1.195   0.033  0.6197 -0.4387 -0.1891
15810SOL    HW148881   4.116   1.108   0.062  0.4799  0.0365  1.1923
15810SOL    HW248882   4.239   1.190   0.031  0.6748 -0.3276  1.0035
15811SOL     OW48883   4.095   6.624   6.276 -0.0142 -0.1530 -0.4059
15811SOL    HW148884   4.000   6.609   6.274 -0.2581  1.1471 -0.0053
15811SOL    HW248885   4.133   6.537   6.288 -1.1192 -0.7794 -1.2318
15812SOL     OW48886   5.917   7.438   4.255  0.7008 -0.7037 -0.6541
15812SOL    HW148887   5.911   7.411   4.163 -0.9142  0.3571 -0.9150
15812SOL    HW248888   5.827   7.432   4.287  0.7858  1.3320  0.1165
15813SOL     OW48889   7.700   8.157   2.239 -0.4375  0.1033 -0.6643
15813SOL    HW148890   7.748   8.077   2.259  0.5364  0.7688 -0.2897
15813SOL    HW248891   7.622   8.153   2.294  0.7885  0.5330  1.1829
15814SOL     OW48892   9.078   6.980   4.736  0.8489  0.0314  0.4345
15814SOL    HW148893   9.156   6.986   4.681  0.6685  0.2026  0.1965
15814SOL    HW248894   9.103   6.921   4.807  1.0844 -0.1865  0.1711
15815SOL     OW48895   2.985   4.118   0.036  0.1174  0.1253  0.2363
15815SOL    HW148896   3.055   4.137   0.098  1.0779 -0.5591 -0.5909
15815SOL    HW248897   2.999   4.026   0.012 -2.3777 -0.7197  1.6652
15816SOL     OW48898   2.742   3.280   8.223 -0.3410 -0.4209  0.3486
15816SOL    HW148899   2.806   3.241   8.283  1.0148 -0.3597 -1.0055
15816SOL    HW248900   2.764   3.373   8.222  0.3991 -0.5787 -1.0658
15817SOL     OW48901   4.354   3.164   1.543  0.2587 -0.2679 -0.0496
15817SOL    HW148902   4.336   3.083   1.496 -0.3329 -0.4852  0.5306
15817SOL    HW248903   4.313   3.232   1.490 -0.8591 -0.5715  0.3787
15818SOL     OW48904   7.844   7.870   0.626 -0.1795  0.5409 -0.4562
15818SOL    HW148905   7.778   7.824   0.574 -0.7285 -0.9080  1.3806
15818SOL    HW248906   7.919   7.810   0.628  0.5092  1.3647 -1.0032
15819SOL     OW48907   3.898   1.429   6.084 -0.2772 -0.1540 -0.7212
15819SOL    HW148908   3.967   1.398   6.026 -0.8933 -2.4661 -0.3026
15819SOL    HW248909   3.869   1.351   6.132 -1.4230  1.2189  0.9748
15820SOL     OW48910   7.926   5.470   5.856 -0.3837  0.1846  0.6312
15820SOL    HW148911   7.914   5.520   5.776 -1.3202 -1.1543 -0.0910
15820SOL    HW248912   7.991   5.404   5.834 -0.9760 -0.4769  0.8152
15821SOL     OW48913   3.775   0.275   8.720 -0.3583 -0.4624  0.4297
15821SOL    HW148914   3.694   0.291   8.672  0.3458  1.1073 -0.3065
15821SOL    HW248915   3.773   0.181   8.741 -2.4320 -0.4125  0.6121
15822SOL     OW48916   2.386   0.799   5.758 -0.3941  0.8167  0.1827
15822SOL    HW148917   2.426   0.838   5.681  0.7105  1.0956  0.8723
15822SOL    HW248918   2.331   0.729   5.724 -0.3787  1.3085 -0.8904
15823SOL     OW48919   1.541   8.210   6.466 -0.2598  0.4401  0.3226
15823SOL    HW148920   1.446   8.208   6.473 -0.2175  1.2396  1.6771
15823SOL    HW248921   1.563   8.303   6.476  0.6802  0.1819  0.7718
15824SOL     OW48922   4.537   1.351   5.669  0.3073 -0.3840  0.5643
15824SOL    HW148923   4.523   1.363   5.576 -1.2543 -1.9746  0.5509
15824SOL    HW248924   4.459   1.388   5.711  0.1222 -1.3470  1.1016
15825SOL     OW48925   4.651   5.869   4.329 -0.1190 -0.2648 -0.4454
15825SOL    HW148926   4.698   5.931   4.384 -1.1573 -1.3850  1.8847
15825SOL    HW248927   4.560   5.898   4.331 -0.1600 -0.2479 -1.7403
15826SOL     OW48928   7.232   3.234   0.392 -0.0117 -0.8267  0.3154
15826SOL    HW148929   7.231   3.314   0.445  0.0748  0.6046 -1.7180
15826SOL    HW248930   7.142   3.223   0.363  0.2014 -0.7205 -0.4186
15827SOL     OW48931   2.702   2.337   0.049 -0.6906  0.0928 -0.3840
15827SOL    HW148932   2.785   2.353   0.002  0.8006 -0.1338  2.0311
15827SOL    HW248933   2.665   2.425   0.061 -0.1991  0.3084 -0.4087
15828SOL     OW48934   8.192   6.252   2.484 -0.0335 -0.0811 -0.0967
15828SOL    HW148935   8.132   6.182   2.459 -0.7875  0.2293  0.7862
15828SOL    HW248936   8.189   6.253   2.580 -0.2548  1.3364 -0.0929
15829SOL     OW48937   0.971   3.083   0.973  0.3417 -0.3456 -0.0104
15829SOL    HW148938   0.886   3.038   0.971 -0.1728  0.5887 -1.6622
15829SOL    HW248939   0.952   3.171   0.940  1.6366  0.5164  1.4236
15830SOL     OW48940   3.611   7.935   7.302  0.3389  0.1738 -0.2011
15830SOL    HW148941   3.659   7.857   7.331  2.1462  1.2390 -0.1566
15830SOL    HW248942   3.647   7.954   7.215  0.2188  1.1972 -0.0367
15831SOL     OW48943   6.649   8.477   9.146  0.2631  0.1444  0.0897
15831SOL    HW148944   6.633   8.430   9.064  0.7727 -0.7727  0.5062
15831SOL    HW248945   6.735   8.517   9.134  0.4494 -0.2028  0.2791
15832SOL     OW48946   0.606   4.363   0.558  0.2057  0.2602  0.1270
15832SOL    HW148947   0.597   4.391   0.649 -1.1557 -1.0518  0.4445
15832SOL    HW248948   0.630   4.270   0.563 -3.6682 -0.9750 -0.7056
15833SOL     OW48949   2.667   4.632   0.422 -0.5998  0.3172  0.1498
15833SOL    HW148950   2.683   4.562   0.485  0.9838  1.0548  0.6295
15833SOL    HW248951   2.573   4.645   0.423 -0.8576 -1.3451  0.5311
15834SOL     OW48952   4.061   7.957   6.053  0.1273 -0.3110  0.1212
15834SOL    HW148953   3.969   7.946   6.027  0.5942 -1.0203 -1.3496
15834SOL    HW248954   4.059   8.028   6.116 -1.2036  1.1678 -1.4543
15835SOL     OW48955   3.605   6.294   5.979 -0.5228 -0.7822  0.0865
15835SOL    HW148956   3.656   6.249   5.912  0.1271  1.0603 -0.7051
15835SOL    HW248957   3.670   6.325   6.042 -0.8150  0.1018 -0.0329
15836SOL     OW48958   5.925   6.732   8.350  0.3118  0.2464 -0.4239
15836SOL    HW148959   5.969   6.648   8.363 -0.1447 -0.4268 -2.8199
15836SOL    HW248960   5.850   6.729   8.409  0.2900 -1.0523 -0.4965
15837SOL     OW48961   1.945   7.796   8.695 -0.2187  0.6174  0.2614
15837SOL    HW148962   1.951   7.733   8.624 -0.4333 -0.3925  1.1263
15837SOL    HW248963   1.871   7.852   8.671 -1.8594 -1.2078  0.8235
15838SOL     OW48964   5.027   4.756   3.192 -0.6051  0.8367 -0.6879
15838SOL    HW148965   5.103   4.721   3.146  0.4416  1.8432  0.2369
15838SOL    HW248966   4.976   4.678   3.216  0.8561  0.0359 -0.0555
15839SOL     OW48967   4.838   2.416   3.562  0.4979 -0.3023 -0.5988
15839SOL    HW148968   4.821   2.327   3.533  0.6206 -0.1531 -1.1380
15839SOL    HW248969   4.909   2.447   3.505 -2.4948  1.7119 -3.6657
15840SOL     OW48970   3.407   5.813   4.302 -0.8351  0.1265  0.3282
15840SOL    HW148971   3.450   5.804   4.218  3.0276 -0.8929  2.2055
15840SOL    HW248972   3.315   5.791   4.285 -0.1930 -0.1625 -3.4873
15841SOL     OW48973   5.782   3.655   2.518  0.2824 -0.0635  0.0359
15841SOL    HW148974   5.715   3.716   2.550 -1.6765  0.2544 -3.9936
15841SOL    HW248975   5.754   3.569   2.548 -0.5895  0.3507  0.4204
15842SOL     OW48976   1.542   7.070   8.294 -0.2374 -0.5742  0.3339
15842SOL    HW148977   1.563   6.977   8.285  0.3675 -0.2720 -1.7911
15842SOL    HW248978   1.627   7.111   8.315 -0.7143 -0.5934  2.6067
15843SOL     OW48979   5.032   7.629   1.041  0.2988 -0.2913 -0.0901
15843SOL    HW148980   5.024   7.590   0.954 -1.7057 -0.8254  0.2919
15843SOL    HW248981   4.944   7.659   1.063  0.5018 -1.1247  2.1754
15844SOL     OW48982   4.441   8.686   3.300  0.2818 -0.3647  0.0093
15844SOL    HW148983   4.368   8.723   3.349  1.2133  0.6403  0.6854
15844SOL    HW248984   4.432   8.592   3.310  0.1735 -0.1965  1.7436
15845SOL     OW48985   6.420   4.608   6.312 -0.0122  0.1762 -0.2777
15845SOL    HW148986   6.503   4.601   6.360 -0.0862 -0.2578 -0.2129
15845SOL    HW248987   6.427   4.544   6.241 -1.3427 -1.8569  1.2911
15846SOL     OW48988   8.620   8.146   4.224 -0.2956  0.2951  0.9056
15846SOL    HW148989   8.541   8.128   4.275 -0.9345 -0.6201 -0.3663
15846SOL    HW248990   8.670   8.208   4.278 -1.6633  0.5452  1.9262
15847SOL     OW48991   2.510   8.672   2.938 -0.1730  0.2789  0.4727
15847SOL    HW148992   2.440   8.629   2.889  0.5674 -1.7776  1.1061
15847SOL    HW248993   2.566   8.712   2.872 -0.4503 -0.4345 -0.1970
15848SOL     OW48994   2.462   0.440   9.145  0.3695  0.3361  0.6020
15848SOL    HW148995   2.469   0.401   9.232 -0.1667  0.8808  0.8968
15848SOL    HW248996   2.544   0.489   9.134  0.6223 -0.0841  0.6260
15849SOL     OW48997   5.901   0.515   5.377 -0.3209 -0.2333 -0.1614
15849SOL    HW148998   5.991   0.540   5.396 -0.5157  0.3464  0.0227
15849SOL    HW248999   5.848   0.586   5.414 -0.8730 -0.7658  0.0853
15850SOL     OW49000   8.183   7.128   4.725  0.5973  0.4640 -0.3783
15850SOL    HW149001   8.274   7.111   4.748  0.0256 -0.4807  1.4093
15850SOL    HW249002   8.157   7.053   4.673  0.6383  0.3832 -0.2826
15851SOL     OW49003   0.703   0.668   9.215  0.1016  0.3193 -0.0357
15851SOL    HW149004   0.715   0.607   9.143  0.5450 -1.6671  1.6152
15851SOL    HW249005   0.789   0.675   9.256 -0.1920  1.1850  0.4599
15852SOL     OW49006   3.003   6.242   0.886 -0.0507  0.3172  0.3085
15852SOL    HW149007   2.945   6.254   0.811  0.4198 -0.1534 -0.1401
15852SOL    HW249008   3.000   6.326   0.932  1.1813  1.3196 -1.3326
15853SOL     OW49009   6.721   3.114   1.540 -0.1640 -0.1362  0.6316
15853SOL    HW149010   6.729   3.195   1.591  1.4769  1.2006 -1.5659
15853SOL    HW249011   6.728   3.142   1.449 -1.7978 -2.5476 -0.3522
15854SOL     OW49012   8.883   0.593   3.010 -0.6991  0.1118  0.0329
15854SOL    HW149013   8.903   0.585   2.917  0.3047 -0.2449  0.2715
15854SOL    HW249014   8.841   0.679   3.017 -0.0150  0.5197 -0.6240
15855SOL     OW49015   6.874   5.948   4.490 -0.1498 -0.4982 -0.3559
15855SOL    HW149016   6.962   5.915   4.508 -1.0678 -1.2579  3.7149
15855SOL    HW249017   6.823   5.870   4.469 -0.5752 -0.6077  1.0011
15856SOL     OW49018   4.620   7.134   4.759  0.7899  0.4198 -0.4961
15856SOL    HW149019   4.581   7.088   4.833  0.9671  0.8384 -0.1375
15856SOL    HW249020   4.633   7.066   4.692  1.2056 -0.0895  0.0885
15857SOL     OW49021   0.864   0.918   3.329 -0.0272 -0.6701  0.4936
15857SOL    HW149022   0.864   0.995   3.386 -1.1132 -0.1806 -0.1374
15857SOL    HW249023   0.948   0.875   3.346  0.2088  0.1654  1.5067
15858SOL     OW49024   3.413   0.575   4.046  0.3038  0.0211 -0.0900
15858SOL    HW149025   3.394   0.633   3.973 -0.1385 -0.3336 -0.2601
15858SOL    HW249026   3.469   0.507   4.009 -0.6148 -0.6376 -0.3146
15859SOL     OW49027   5.581   5.534   3.910  0.4843 -0.4223 -0.2484
15859SOL    HW149028   5.650   5.561   3.849 -1.8403 -0.3921 -3.1037
15859SOL    HW249029   5.527   5.613   3.921  0.7705 -0.4674  1.8581
15860SOL     OW49030   6.662   5.119   5.410  0.6817  0.3462  0.2991
15860SOL    HW149031   6.586   5.145   5.358 -1.1157 -0.7528  2.2349
15860SOL    HW249032   6.736   5.164   5.368 -1.1172  2.1441 -1.1533
15861SOL     OW49033   1.147   8.701   0.266  0.1739  0.3960  0.0215
15861SOL    HW149034   1.221   8.741   0.312  1.1127 -1.1171 -0.1008
15861SOL    HW249035   1.185   8.624   0.223 -1.3758 -0.1160 -0.4836
15862SOL     OW49036   6.203   8.755   3.821 -0.4521  0.3760 -0.6105
15862SOL    HW149037   6.262   8.748   3.895 -2.6989  0.4816  1.3203
15862SOL    HW249038   6.230   8.835   3.775  1.8770 -0.4762 -0.8141
15863SOL     OW49039   1.602   2.761   5.604  0.1501  0.2476  0.0047
15863SOL    HW149040   1.527   2.732   5.655  1.2149 -1.8764  0.4830
15863SOL    HW249041   1.565   2.815   5.535 -1.7078  0.0195  0.7688
15864SOL     OW49042   4.922   4.367   7.500  0.1259  0.0550  0.3430
15864SOL    HW149043   4.904   4.450   7.543  0.4608  0.1137  0.3703
15864SOL    HW249044   5.016   4.368   7.485  0.2644 -0.6917  1.1104
15865SOL     OW49045   6.797   4.310   5.002  0.6492 -0.4444  0.7712
15865SOL    HW149046   6.712   4.320   5.045 -0.8620  0.9372 -2.1917
15865SOL    HW249047   6.860   4.348   5.063 -0.9316 -0.9022  2.7835
15866SOL     OW49048   2.980   1.457   4.311  0.7696 -0.6092 -0.4043
15866SOL    HW149049   2.974   1.364   4.287  2.7370 -1.0661  0.6344
15866SOL    HW249050   2.947   1.461   4.400  1.3461 -0.4637 -0.1904
15867SOL     OW49051   6.028   0.944   7.998  0.3216 -0.0768 -0.7272
15867SOL    HW149052   5.961   0.928   8.064 -0.8588  0.9728 -1.6066
15867SOL    HW249053   6.058   0.857   7.971 -1.7448 -0.6512 -1.3386
15868SOL     OW49054   0.459   5.366   6.033  0.0605 -0.1228 -0.0337
15868SOL    HW149055   0.367   5.358   6.058 -0.7547 -0.7000 -2.8872
15868SOL    HW249056   0.478   5.286   5.984  2.5709 -0.6948  1.6924
15869SOL     OW49057   5.919   1.166   6.893 -0.2212 -0.5823  0.1487
15869SOL    HW149058   5.859   1.226   6.938  0.0020 -1.5340  1.7740
15869SOL    HW249059   5.928   1.092   6.953 -1.6911 -3.0210 -2.4111
15870SOL     OW49060   7.926   6.610   0.879  0.3486 -0.0224 -0.0907
15870SOL    HW149061   7.950   6.698   0.909  0.2362  0.0471 -0.2056
15870SOL    HW249062   7.847   6.623   0.826 -0.0816 -0.2859  0.4820
15871SOL     OW49063   4.226   5.932   4.913 -0.4935 -0.3685  0.3100
15871SOL    HW149064   4.267   5.845   4.907 -1.1382 -0.7532  1.2312
15871SOL    HW249065   4.245   5.961   5.002 -2.3219 -0.6266  0.8301
15872SOL     OW49066   5.064   8.476   1.028 -0.3680  0.6305  0.0578
15872SOL    HW149067   5.071   8.500   0.936 -0.0434  0.9664  0.1657
15872SOL    HW249068   4.971   8.457   1.041 -0.8214  2.6217  0.1348
15873SOL     OW49069   7.468   7.309   2.401  0.9049  0.1179 -0.4516
15873SOL    HW149070   7.491   7.225   2.441 -1.3099 -0.0120  0.6812
15873SOL    HW249071   7.426   7.358   2.471  0.5308  1.4803 -1.5867
15874SOL     OW49072   1.621   0.913   3.515  0.2778 -0.3478  0.3312
15874SOL    HW149073   1.536   0.900   3.557 -0.1259 -1.2300 -0.7166
15874SOL    HW249074   1.641   1.005   3.531 -1.3826  0.1608 -0.2975
15875SOL     OW49075   8.954   7.566   6.841 -0.0044 -0.4606 -0.5386
15875SOL    HW149076   8.975   7.532   6.754  0.7058 -0.2683 -0.4436
15875SOL    HW249077   9.019   7.635   6.857  0.4385 -1.1019  0.5144
15876SOL     OW49078   7.513   0.281   8.000 -0.2000 -0.0538 -0.6978
15876SOL    HW149079   7.609   0.276   8.001 -0.1940 -0.1528  0.9047
15876SOL    HW249080   7.484   0.191   8.013 -0.4897  0.1121 -0.1656
15877SOL     OW49081   6.051   1.791   6.235  0.0650 -0.6788  0.1504
15877SOL    HW149082   5.975   1.740   6.260 -1.5817  0.7752 -1.5542
15877SOL    HW249083   6.074   1.759   6.147  1.0640 -0.7037  0.4074
15878SOL     OW49084   8.081   8.023   2.097 -0.5043  0.2745  0.0947
15878SOL    HW149085   8.059   7.971   2.020  1.1729 -0.8613  0.3098
15878SOL    HW249086   8.177   8.023   2.099 -0.4661 -1.0165  2.9469
15879SOL     OW49087   7.650   5.901   7.914 -0.3228 -0.0422  0.1805
15879SOL    HW149088   7.698   5.882   7.833  0.1129 -1.2965  0.6942
15879SOL    HW249089   7.622   5.991   7.905  1.1096  0.3572 -0.6836
15880SOL     OW49090   3.711   7.793   7.015 -0.6401 -0.2470  0.3594
15880SOL    HW149091   3.677   7.842   6.940 -1.4434  0.9763  1.4934
15880SOL    HW249092   3.651   7.719   7.024  0.4049 -1.3507 -1.1733
15881SOL     OW49093   9.190   5.900   6.407 -0.2320 -0.0041  0.0598
15881SOL    HW149094   9.200   5.911   6.502 -0.6404 -0.3693  0.1467
15881SOL    HW249095   9.214   5.808   6.391 -3.4765 -1.0245  0.3007
15882SOL     OW49096   4.959   8.420   4.788  0.3267  0.3466 -0.1779
15882SOL    HW149097   5.043   8.443   4.828  1.5223 -3.9245  0.1785
15882SOL    HW249098   4.981   8.354   4.723 -2.6201  0.5063 -1.4864
15883SOL     OW49099   6.084   6.981   0.480 -0.4781 -0.2956 -0.0976
15883SOL    HW149100   6.087   6.979   0.575 -1.3665  0.1440 -0.0499
15883SOL    HW249101   6.040   6.900   0.455 -1.4217  0.1960 -0.0622
15884SOL     OW49102   5.514   4.702   6.549 -0.1348 -0.6003  0.3640
15884SOL    HW149103   5.587   4.755   6.517  0.5089 -1.1154  0.9428
15884SOL    HW249104   5.507   4.725   6.642 -0.3037 -1.0187  0.4548
15885SOL     OW49105   8.171   5.401   0.090 -0.5692 -0.1579  0.1086
15885SOL    HW149106   8.249   5.400   0.145 -0.7396 -0.7471  0.3486
15885SOL    HW249107   8.200   5.363   0.007 -0.6165 -0.4266  0.2162
15886SOL     OW49108   9.005   5.104   6.628  0.1497 -0.1393  0.5163
15886SOL    HW149109   8.921   5.126   6.588  0.3847  1.0399  0.6367
15886SOL    HW249110   8.982   5.069   6.714 -0.2150  0.2202  0.5688
15887SOL     OW49111   1.196   6.557   8.802  0.5093 -0.6933  0.2259
15887SOL    HW149112   1.170   6.593   8.717 -1.2014 -0.7946  0.6574
15887SOL    HW249113   1.176   6.626   8.865 -0.6629 -1.5204  0.8050
15888SOL     OW49114   3.087   5.136   1.160  0.2655  0.2727  0.4645
15888SOL    HW149115   3.019   5.086   1.205  0.0309  1.9381  2.0900
15888SOL    HW249116   3.054   5.148   1.071  0.4925 -2.6706 -0.1298
15889SOL     OW49117   2.301   2.910   7.866  0.4066 -0.4180 -0.6194
15889SOL    HW149118   2.341   2.865   7.792 -0.0381  1.1463 -1.8355
15889SOL    HW249119   2.340   2.997   7.866  0.6599 -0.4925  1.2155
15890SOL     OW49120   2.909   5.329   8.892 -0.2379 -0.0284 -0.4573
15890SOL    HW149121   2.883   5.270   8.963  1.0682  1.0165  0.9784
15890SOL    HW249122   2.861   5.410   8.910  0.6165  0.4682 -0.3316
15891SOL     OW49123   4.271   8.666   3.065 -0.2672 -0.1982  0.2329
15891SOL    HW149124   4.194   8.720   3.082 -0.7948 -0.9576  0.3060
15891SOL    HW249125   4.335   8.694   3.131 -1.2012 -0.9601  1.5168
15892SOL     OW49126   2.539   1.230   0.883  0.1323  0.5505  0.1152
15892SOL    HW149127   2.556   1.181   0.963  0.2213 -0.0209 -0.2517
15892SOL    HW249128   2.560   1.321   0.906 -0.0041  0.4151  0.7861
15893SOL     OW49129   3.364   7.471   5.569  0.3609 -0.3272 -0.4109
15893SOL    HW149130   3.329   7.406   5.629 -0.8835 -0.6726 -1.4715
15893SOL    HW249131   3.456   7.480   5.595 -0.4883  0.7671  2.5947
15894SOL     OW49132   0.178   7.847   3.849  0.5423  0.2159 -0.4156
15894SOL    HW149133   0.178   7.758   3.814 -3.1379  0.2304 -0.7782
15894SOL    HW249134   0.152   7.902   3.775 -0.1812  1.1906  0.5413
15895SOL     OW49135   2.064   7.201   6.661  0.2273 -0.0122 -0.1494
15895SOL    HW149136   2.099   7.129   6.609  0.7569  0.2498 -0.1639
15895SOL    HW249137   2.113   7.278   6.632 -0.3870  0.3705 -0.1862
15896SOL     OW49138   2.230   6.958   2.096 -0.0633 -0.0703 -0.4137
15896SOL    HW149139   2.153   6.994   2.052 -0.7512  0.5845  1.2319
15896SOL    HW249140   2.194   6.905   2.167  0.9944  0.0404  0.2260
15897SOL     OW49141   6.912   2.006   4.898 -0.3143 -0.4304 -0.3267
15897SOL    HW149142   6.854   1.947   4.850  0.6331  0.5579 -2.8657
15897SOL    HW249143   6.908   2.088   4.849  1.2377  0.4449  0.9356
15898SOL     OW49144   4.731   5.840   0.086  0.0281 -0.0529 -0.3531
15898SOL    HW149145   4.745   5.770   0.151 -2.4882 -0.9377 -0.6579
15898SOL    HW249146   4.819   5.873   0.068  0.9019  0.1466  3.3628
15899SOL     OW49147   3.745   2.106   1.917  0.2844 -0.3966 -0.3911
15899SOL    HW149148   3.693   2.168   1.969  0.7301 -0.9553  0.7530
15899SOL    HW249149   3.813   2.077   1.976 -1.8042 -4.5665  0.3333
15900SOL     OW49150   7.340   3.799   4.814 -0.1305  0.3036  0.1695
15900SOL    HW149151   7.304   3.778   4.728  1.8541  0.1654 -0.6826
15900SOL    HW249152   7.380   3.717   4.844 -0.1132  0.5613  0.8800
15901SOL     OW49153   5.834   3.232   6.617 -0.0588  0.5401  0.0397
15901SOL    HW149154   5.797   3.155   6.573 -0.9163  1.0574 -0.1756
15901SOL    HW249155   5.794   3.232   6.704  2.0686 -0.8037  1.0963
15902SOL     OW49156   4.078   0.598   7.161  0.6429  0.8249  0.0302
15902SOL    HW149157   4.050   0.552   7.240 -1.4917 -0.5112 -1.3970
15902SOL    HW249158   4.173   0.604   7.169  0.4606  1.4418  3.0104
15903SOL     OW49159   4.293   1.404   1.426 -0.6087  0.3471  0.0229
15903SOL    HW149160   4.296   1.499   1.436  0.2471  0.1831  1.7903
15903SOL    HW249161   4.373   1.383   1.377  1.3729  0.2699  3.0741
15904SOL     OW49162   0.597   4.816   4.318 -0.2663  0.5305  0.2586
15904SOL    HW149163   0.676   4.801   4.266  0.1171 -1.4096  1.3287
15904SOL    HW249164   0.567   4.903   4.290  2.0357  1.1907 -0.4305
15905SOL     OW49165   4.907   7.693   3.492  0.2446  0.0222 -0.0080
15905SOL    HW149166   4.963   7.684   3.569 -0.9231 -0.1889  0.8410
15905SOL    HW249167   4.963   7.666   3.418  0.8781 -1.4010  0.9451
15906SOL     OW49168   5.419   3.397   8.880 -0.1777  0.5266  0.4358
15906SOL    HW149169   5.348   3.396   8.816  1.0061  0.5217 -0.9295
15906SOL    HW249170   5.460   3.311   8.872 -0.2422  0.3702  1.5208
15907SOL     OW49171   7.147   1.840   2.368  0.5668 -0.1329 -0.0766
15907SOL    HW149172   7.118   1.928   2.343 -0.3212 -0.3249  0.2552
15907SOL    HW249173   7.234   1.854   2.406 -0.0759  0.7989  1.1683
15908SOL     OW49174   6.834   0.301   1.796 -0.2087  0.3115  0.2468
15908SOL    HW149175   6.917   0.285   1.841 -0.8799 -1.6339  0.8642
15908SOL    HW249176   6.848   0.270   1.707 -0.9128 -2.2301  0.9435
15909SOL     OW49177   7.545   6.945   6.484 -0.0977 -0.5988  0.5619
15909SOL    HW149178   7.503   6.930   6.399 -0.8742  1.4421  0.5285
15909SOL    HW249179   7.638   6.930   6.469 -0.0512  0.9806 -1.0227
15910SOL     OW49180   3.135   1.158   6.924  0.0320  0.1544  0.2558
15910SOL    HW149181   3.196   1.084   6.918 -0.9380 -0.7095  0.7216
15910SOL    HW249182   3.103   1.169   6.834 -0.1268 -0.2678  0.2575
15911SOL     OW49183   8.634   5.781   6.499  0.0054 -0.0832 -0.1264
15911SOL    HW149184   8.574   5.851   6.527 -0.5721 -0.2171 -0.9733
15911SOL    HW249185   8.709   5.828   6.463 -0.1829  0.1040 -0.2831
15912SOL     OW49186   1.191   5.867   4.910 -0.1783 -0.4302  0.6998
15912SOL    HW149187   1.200   5.779   4.946 -0.9856 -0.0018  2.0211
15912SOL    HW249188   1.240   5.923   4.971  0.5192  0.0151 -0.2537
15913SOL     OW49189   0.738   1.008   0.268 -0.0217  0.1185  0.5658
15913SOL    HW149190   0.832   1.017   0.282 -0.0582  0.2378  0.7341
15913SOL    HW249191   0.729   0.989   0.174  0.0831  1.5796  0.2412
15914SOL     OW49192   8.531   7.440   5.446 -0.2645 -0.2114  0.0688
15914SOL    HW149193   8.591   7.496   5.494 -0.4921 -0.8831  1.1588
15914SOL    HW249194   8.456   7.496   5.426  0.2680  0.3453 -0.4121
15915SOL     OW49195   2.191   7.421   1.499 -0.3272 -0.1508 -0.4253
15915SOL    HW149196   2.269   7.475   1.485  0.8133 -1.3505  0.8528
15915SOL    HW249197   2.227   7.335   1.523 -2.0501 -0.6509  0.4935
15916SOL     OW49198   8.718   4.211   9.239 -0.4954 -0.0348  0.2976
15916SOL    HW149199   8.681   4.299   9.230 -0.1930  0.0485 -0.1267
15916SOL    HW249200   8.644   4.152   9.221 -0.4158  0.1321 -0.5724
15917SOL     OW49201   4.584   7.453   7.587  0.2220  0.6555 -0.5464
15917SOL    HW149202   4.677   7.434   7.602  0.8808  1.9812 -2.5418
15917SOL    HW249203   4.576   7.547   7.605 -0.8157  0.4995 -0.1360
15918SOL     OW49204   0.709   7.868   0.572  0.6034 -0.3528 -0.3163
15918SOL    HW149205   0.697   7.927   0.498  1.8271  1.0861  0.5816
15918SOL    HW249206   0.748   7.922   0.640 -0.5075 -1.6285  1.4139
15919SOL     OW49207   4.681   3.445   5.716  0.2340 -0.3732 -0.1560
15919SOL    HW149208   4.746   3.510   5.742 -0.0912  0.1053 -0.5305
15919SOL    HW249209   4.598   3.492   5.716 -0.0335 -0.8355 -0.2396
15920SOL     OW49210   7.731   3.718   7.492 -0.1851  0.1751  0.3006
15920SOL    HW149211   7.696   3.805   7.475  0.0806  0.3137  0.4587
15920SOL    HW249212   7.727   3.709   7.587 -0.1796  0.0261  0.2870
15921SOL     OW49213   1.097   4.712   7.558  0.0553 -1.0876 -0.9512
15921SOL    HW149214   1.058   4.637   7.513  1.0829 -2.0479 -0.3055
15921SOL    HW249215   1.181   4.726   7.513 -0.6794  0.5264 -1.8984
15922SOL     OW49216   5.192   6.718   0.074  0.2634  0.6632 -0.4666
15922SOL    HW149217   5.213   6.702  -0.018  1.6450  0.1468 -0.0879
15922SOL    HW249218   5.220   6.639   0.119 -1.1214  0.5958  0.3232
15923SOL     OW49219   2.153   3.670   4.527 -0.3201  0.1250 -0.1634
15923SOL    HW149220   2.064   3.683   4.561 -0.8801 -0.6303 -1.2733
15923SOL    HW249221   2.169   3.576   4.536 -0.3115 -0.0238 -1.5121
15924SOL     OW49222   1.782   6.333   3.920  0.2148  0.2855  0.0220
15924SOL    HW149223   1.796   6.359   3.829 -3.2391  1.8691 -0.2010
15924SOL    HW249224   1.759   6.240   3.915 -1.9591  0.8262 -1.0542
15925SOL     OW49225   8.478   4.906   5.409 -0.0217 -0.4112 -0.9529
15925SOL    HW149226   8.488   4.831   5.468 -1.5373  0.0440 -0.0604
15925SOL    HW249227   8.544   4.969   5.439 -1.0332 -0.0199  0.6037
15926SOL     OW49228   0.832   6.944   5.121 -0.6332 -0.2968 -0.4001
15926SOL    HW149229   0.786   6.936   5.205  4.8074 -1.3235  3.0220
15926SOL    HW249230   0.869   7.032   5.122  2.4974 -1.4921  0.3266
15927SOL     OW49231   5.401   9.217   5.198  0.1623  0.0521 -0.4205
15927SOL    HW149232   5.422   9.126   5.178 -0.2880  0.2162 -1.7149
15927SOL    HW249233   5.313   9.230   5.163 -0.3421  0.6134  0.9703
15928SOL     OW49234   1.003   9.223   0.597 -0.5843  0.7558  0.1328
15928SOL    HW149235   0.991   9.232   0.502  2.0867 -0.2675 -0.4118
15928SOL    HW249236   1.080   9.277   0.616 -0.5933  0.2911  1.5587
15929SOL     OW49237   3.845   5.145   6.763 -0.2325 -0.1026  0.1020
15929SOL    HW149238   3.841   5.240   6.775  0.4659 -0.2600  1.8179
15929SOL    HW249239   3.813   5.109   6.846  0.2857 -1.3709 -0.2271
15930SOL     OW49240   1.496   5.721   0.048 -0.0167  0.0875 -0.3191
15930SOL    HW149241   1.437   5.645   0.048 -1.3251  1.0589 -1.3095
15930SOL    HW249242   1.443   5.791   0.087  1.1448  0.5328  0.4987
15931SOL     OW49243   0.856   2.429   9.059 -0.1596  0.1369  0.1857
15931SOL    HW149244   0.876   2.440   8.966  1.9609 -1.9379  0.2973
15931SOL    HW249245   0.934   2.386   9.095 -1.0547  0.5838  2.8673
15932SOL     OW49246   9.213   8.514   8.366  0.0397  0.6288  0.1343
15932SOL    HW149247   9.170   8.441   8.411  3.2148 -1.2206  0.5273
15932SOL    HW249248   9.157   8.532   8.291 -1.5319 -1.3697  0.7172
15933SOL     OW49249   4.328   7.442   7.651  0.1763  0.4620 -0.3072
15933SOL    HW149250   4.326   7.501   7.727 -1.6369  0.0437  0.0081
15933SOL    HW249251   4.421   7.440   7.625  0.8459  0.6094  1.8797
15934SOL     OW49252   4.322   6.625   2.143  0.6461 -0.5389 -0.6197
15934SOL    HW149253   4.295   6.619   2.235  0.8773  0.6022 -0.4718
15934SOL    HW249254   4.240   6.625   2.094  0.5336 -2.4433 -0.5320
15935SOL     OW49255   4.599   7.420   0.135  0.0396  0.6076  0.4807
15935SOL    HW149256   4.689   7.420   0.169 -0.1680  0.9124  1.0425
15935SOL    HW249257   4.557   7.494   0.179 -0.0228  1.4899 -1.0314
15936SOL     OW49258   6.564   8.267   6.523  0.2343 -0.9341  0.7720
15936SOL    HW149259   6.554   8.183   6.479  1.7947 -1.3172  1.1009
15936SOL    HW249260   6.631   8.313   6.471 -2.1947  1.0997 -0.8072
15937SOL     OW49261   2.206   0.709   0.401 -0.3143 -0.1488  0.4444
15937SOL    HW149262   2.244   0.621   0.397  2.0084  0.8103 -0.6002
15937SOL    HW249263   2.161   0.720   0.317 -2.3584 -0.9855  1.3580
15938SOL     OW49264   5.642   3.425   1.713  0.7001 -0.6729 -0.4105
15938SOL    HW149265   5.717   3.366   1.706  1.5003  0.2632  0.0286
15938SOL    HW249266   5.566   3.370   1.690  1.2755 -2.1388  1.0028
15939SOL     OW49267   3.295   4.639   1.068 -0.0545  0.3242  0.6679
15939SOL    HW149268   3.362   4.640   1.136 -1.1359  0.4055  1.7775
15939SOL    HW249269   3.286   4.546   1.045  0.5720  0.3355  0.3632
15940SOL     OW49270   1.223   0.655   8.476 -0.0394 -0.4170 -0.0015
15940SOL    HW149271   1.223   0.596   8.400 -1.4140 -1.5669  0.8261
15940SOL    HW249272   1.212   0.596   8.551  2.2315  0.5962  1.2220
15941SOL     OW49273   7.553   4.457   8.395 -0.0777 -0.0782 -0.2058
15941SOL    HW149274   7.619   4.517   8.429 -0.3724 -0.0896  0.4044
15941SOL    HW249275   7.574   4.373   8.436  1.1202 -0.7392 -2.0406
15942SOL     OW49276   3.353   6.517   3.804  0.5363 -0.0433 -0.1093
15942SOL    HW149277   3.360   6.612   3.798 -0.8560  0.3643  2.7834
15942SOL    HW249278   3.434   6.491   3.849 -0.5629  0.2974  2.2131
15943SOL     OW49279   9.063   6.066   7.998  0.1705 -0.1576  0.1561
15943SOL    HW149280   9.109   5.989   7.966  1.9861  0.8614  0.2083
15943SOL    HW249281   9.121   6.104   8.064 -1.0633  0.8067  0.7454
15944SOL     OW49282   7.886   8.618   0.206  0.3997  0.1838 -0.2708
15944SOL    HW149283   7.861   8.684   0.141  1.3155  0.0644 -0.7631
15944SOL    HW249284   7.971   8.586   0.176  0.1921 -0.8791  0.2274
15945SOL     OW49285   8.366   2.104   6.955  0.3361 -0.2133 -0.1171
15945SOL    HW149286   8.447   2.089   7.004 -0.8574 -1.3015  1.6190
15945SOL    HW249287   8.312   2.158   7.013 -0.1526  0.6543 -1.3285
15946SOL     OW49288   3.374   8.660   7.838  0.0407  0.6899  0.0924
15946SOL    HW149289   3.446   8.679   7.898 -0.0479  1.1262  0.0601
15946SOL    HW249290   3.416   8.651   7.753  0.1486  0.2092  0.1914
15947SOL     OW49291   3.909   4.951   7.591 -0.0666  1.1006  0.0700
15947SOL    HW149292   3.895   4.934   7.497 -1.0458  0.8989  0.2428
15947SOL    HW249293   3.857   5.029   7.609 -0.4884  0.7011  0.6069
15948SOL     OW49294   3.248   5.534   8.072 -0.0535 -0.6154 -0.4684
15948SOL    HW149295   3.184   5.592   8.031 -0.4184 -0.6758 -0.0053
15948SOL    HW249296   3.212   5.517   8.159  0.1258 -1.4116 -0.5395
15949SOL     OW49297   2.732   6.524   3.232 -0.2649  0.6650  0.0104
15949SOL    HW149298   2.702   6.505   3.144  1.1609  0.7157 -0.5226
15949SOL    HW249299   2.670   6.480   3.290  0.0498 -1.2945 -1.0711
15950SOL     OW49300   4.152   7.903   2.655 -0.8023 -0.0560 -0.3518
15950SOL    HW149301   4.157   7.981   2.600 -0.9821 -0.4008 -0.8612
15950SOL    HW249302   4.209   7.839   2.611  0.2509  0.1474  0.6652
15951SOL     OW49303   1.258   7.099   3.708  0.1362 -0.2373  0.2383
15951SOL    HW149304   1.244   7.116   3.801  2.3828  0.0347  0.5673
15951SOL    HW249305   1.270   7.186   3.669  0.4591 -0.4203 -0.0763
15952SOL     OW49306   3.867   7.552   3.249  0.3141  0.1566 -0.1735
15952SOL    HW149307   3.893   7.472   3.204 -0.3974 -0.3192  0.2323
15952SOL    HW249308   3.879   7.621   3.185 -0.9748 -0.5390 -1.2000
15953SOL     OW49309   1.624   9.034   1.318  0.2812 -0.5058 -0.0439
15953SOL    HW149310   1.691   8.965   1.319  1.2284  0.3909  0.1045
15953SOL    HW249311   1.636   9.077   1.233 -0.1983 -0.4228 -0.0695
15954SOL     OW49312   2.537   0.612   3.063 -0.3180 -0.2574  0.3121
15954SOL    HW149313   2.612   0.554   3.076  0.9457  1.6364  2.4687
15954SOL    HW249314   2.463   0.564   3.098  0.6133 -0.8188  1.6321
15955SOL     OW49315   3.974   0.600   2.825  0.3286 -0.3718 -0.0367
15955SOL    HW149316   4.065   0.587   2.797  0.3695  0.5744 -0.3641
15955SOL    HW249317   3.978   0.673   2.886 -0.4677  1.0314 -1.5932
15956SOL     OW49318   0.672   6.014   0.246  0.5290  0.3482  0.9062
15956SOL    HW149319   0.705   5.958   0.175  0.0330  1.2672 -0.0878
15956SOL    HW249320   0.742   6.013   0.312  1.3546  0.0816  0.0576
15957SOL     OW49321   2.948   3.482   6.128  0.0617  0.1438 -0.3489
15957SOL    HW149322   2.963   3.409   6.069 -1.5290 -1.8173  1.4918
15957SOL    HW249323   3.023   3.541   6.114  0.7374 -1.1749 -2.8015
15958SOL     OW49324   1.277   4.412   4.189 -0.4078  0.1838  0.2986
15958SOL    HW149325   1.327   4.431   4.269  0.3283  1.0490 -0.3455
15958SOL    HW249326   1.200   4.469   4.195 -1.0789 -0.7641  1.0375
15959SOL     OW49327   4.007   5.925   3.648 -0.1460  0.0822 -0.2977
15959SOL    HW149328   3.922   5.884   3.662  0.1773 -0.0183  1.7105
15959SOL    HW249329   3.988   6.006   3.602 -1.2725 -0.1645 -0.2820
15960SOL     OW49330   0.319   8.028   4.634  0.4393  0.1658  0.2631
15960SOL    HW149331   0.248   7.980   4.676 -0.8864  0.5968 -1.3801
15960SOL    HW249332   0.363   8.074   4.706 -2.6485  2.0928  1.0999
15961SOL     OW49333   4.792   8.352   4.334 -0.2435 -0.4884 -0.3006
15961SOL    HW149334   4.848   8.428   4.348 -0.5415 -0.4094  0.4650
15961SOL    HW249335   4.718   8.364   4.392 -0.0297 -1.6265  0.2467
15962SOL     OW49336   5.240   2.172   0.261 -0.5185  0.1542 -0.1204
15962SOL    HW149337   5.149   2.153   0.280 -0.6170  0.1692 -0.5567
15962SOL    HW249338   5.269   2.100   0.205 -0.5432  0.6300 -0.7700
15963SOL     OW49339   1.786   0.769   6.802 -0.0391 -0.0615  0.1570
15963SOL    HW149340   1.736   0.817   6.867  1.3935  1.1306  0.4548
15963SOL    HW249341   1.877   0.781   6.829  0.4690 -1.3085 -0.9031
15964SOL     OW49342   2.270   7.695   7.864  0.3917  0.1180  0.2782
15964SOL    HW149343   2.354   7.657   7.890  0.5532  0.6864  0.6118
15964SOL    HW249344   2.244   7.749   7.938 -0.7790 -0.8403  0.6063
15965SOL     OW49345   4.730   8.453   4.625 -0.0187 -0.0552  0.4490
15965SOL    HW149346   4.814   8.463   4.671  0.9056  0.1933 -1.2147
15965SOL    HW249347   4.735   8.515   4.552 -1.6328 -0.1006  0.2635
15966SOL     OW49348   1.296   4.921   4.390  0.2839  0.4915 -0.2024
15966SOL    HW149349   1.321   4.834   4.422 -0.7520  0.1760 -0.2227
15966SOL    HW249350   1.255   4.963   4.465 -0.8348  0.2921 -0.6880
15967SOL     OW49351   6.695   6.997   2.671 -0.1473  0.4695  0.1551
15967SOL    HW149352   6.739   7.082   2.671 -0.2557  0.5685  2.2119
15967SOL    HW249353   6.760   6.937   2.632  0.2109  1.3361 -0.6176
15968SOL     OW49354   8.721   4.180   4.318  0.1951 -0.1424 -0.9205
15968SOL    HW149355   8.785   4.246   4.292  0.8138  0.0624  0.9850
15968SOL    HW249356   8.675   4.219   4.392 -0.6709 -1.1466 -0.9025
15969SOL     OW49357   0.546   6.606   6.006 -0.0557  0.0613  0.1051
15969SOL    HW149358   0.517   6.552   6.080  0.6489 -0.5850 -0.0813
15969SOL    HW249359   0.591   6.680   6.047  1.2243 -0.8072  0.3284
15970SOL     OW49360   7.584   5.381   8.117  0.5202 -0.8927 -0.0018
15970SOL    HW149361   7.665   5.384   8.167  0.1594  1.4240  0.5844
15970SOL    HW249362   7.580   5.466   8.073 -0.1475 -2.0894 -2.4442
15971SOL     OW49363   6.357   9.191   4.849  0.2194  0.0449 -0.0573
15971SOL    HW149364   6.342   9.105   4.811  1.5914 -0.0948 -0.3170
15971SOL    HW249365   6.448   9.211   4.830  0.0849  1.3140  0.4965
15972SOL     OW49366   1.636   5.119   6.274 -0.3786  0.2782  0.7289
15972SOL    HW149367   1.613   5.165   6.354  2.9474 -1.2359  2.7616
15972SOL    HW249368   1.721   5.155   6.249 -0.7382 -0.2155 -1.4328
15973SOL     OW49369   1.315   3.386   7.269  0.1566 -0.0130  0.0399
15973SOL    HW149370   1.272   3.442   7.332  2.0288  0.6364  0.8153
15973SOL    HW249371   1.324   3.302   7.314 -0.4953 -0.2241 -0.2156
15974SOL     OW49372   6.596   2.903   2.877  0.4468 -0.6963  0.5585
15974SOL    HW149373   6.516   2.856   2.852  1.7624 -2.0058 -1.5061
15974SOL    HW249374   6.619   2.867   2.962 -1.6387  0.4334  1.6759
15975SOL     OW49375   7.524   3.365   9.090  0.1429  0.1902 -0.3183
15975SOL    HW149376   7.480   3.352   9.174  0.7065 -1.5598 -0.2532
15975SOL    HW249377   7.459   3.338   9.024  0.6265 -1.1817 -0.2771
15976SOL     OW49378   2.183   3.013   2.247 -0.5830  0.0365  0.4409
15976SOL    HW149379   2.242   3.087   2.257  0.0942 -0.4918  0.3827
15976SOL    HW249380   2.122   3.040   2.178  0.4882  0.0151 -0.5292
15977SOL     OW49381   1.292   8.086   7.219 -0.2963 -0.0333  0.2926
15977SOL    HW149382   1.241   8.077   7.299  0.2470  1.6036  0.8487
15977SOL    HW249383   1.231   8.124   7.156 -0.5346 -0.7062  0.1051
15978SOL     OW49384   0.159   4.915   7.865 -0.5423 -0.7506  0.5514
15978SOL    HW149385   0.160   4.826   7.830 -0.0210 -0.5274 -0.0043
15978SOL    HW249386   0.231   4.960   7.821 -0.7191 -0.0859  0.9207
15979SOL     OW49387   4.798   1.262   7.859 -0.1456 -0.2937 -0.2358
15979SOL    HW149388   4.874   1.288   7.912  0.8499  0.3677 -1.9386
15979SOL    HW249389   4.743   1.213   7.921  0.8452  0.6391  1.4712
15980SOL     OW49390   7.806   3.073   5.353 -0.2641 -0.2536  0.0930
15980SOL    HW149391   7.755   3.107   5.279  0.1721  0.2061 -0.0067
15980SOL    HW249392   7.795   2.978   5.349 -1.8371 -0.1255  0.6052
15981SOL     OW49393   8.279   0.283   7.153  0.6989 -0.0399  0.3729
15981SOL    HW149394   8.216   0.341   7.108  1.3562 -0.7067 -1.5312
15981SOL    HW249395   8.270   0.305   7.245 -2.2385 -0.0239  0.1767
15982SOL     OW49396   1.649   2.081   5.452 -0.1168  0.1037  0.0842
15982SOL    HW149397   1.688   2.131   5.524 -0.4094  0.2418  0.1461
15982SOL    HW249398   1.594   2.144   5.406 -2.4334 -0.6899  1.5905
15983SOL     OW49399   0.409   9.020   1.066 -0.5356 -0.0608  0.7056
15983SOL    HW149400   0.380   8.937   1.104  0.6213 -0.4108  0.8586
15983SOL    HW249401   0.490   8.998   1.020 -1.8360  0.3246 -2.0279
15984SOL     OW49402   6.689   5.570   8.738 -0.8015 -0.1104  0.2863
15984SOL    HW149403   6.735   5.534   8.814 -0.5949 -0.2918  0.0788
15984SOL    HW249404   6.637   5.497   8.705 -2.8171  0.6075  1.6916
15985SOL     OW49405   4.731   2.965   0.592 -0.4996  0.1895 -0.5141
15985SOL    HW149406   4.675   2.934   0.664  0.9260 -1.0807  0.1050
15985SOL    HW249407   4.727   2.895   0.527  0.6343 -0.0847 -0.3037
15986SOL     OW49408   1.581   2.268   9.172  0.0203  0.1528  0.4032
15986SOL    HW149409   1.637   2.318   9.232  0.0500 -1.2799  1.6167
15986SOL    HW249410   1.543   2.199   9.226 -0.5988 -0.7045 -1.0622
15987SOL     OW49411   9.151   1.220   8.574 -0.2273 -0.3586 -0.3078
15987SOL    HW149412   9.105   1.223   8.658 -0.6494 -0.7748 -0.5118
15987SOL    HW249413   9.080   1.219   8.509  0.0683  2.9541 -0.8376
15988SOL     OW49414   2.850   4.683   0.232  0.2433  0.2427  0.0616
15988SOL    HW149415   2.917   4.622   0.263  0.6378  0.1408 -0.9443
15988SOL    HW249416   2.779   4.676   0.296 -0.0435 -1.8306 -0.4218
15989SOL     OW49417   3.323   6.736   0.916  0.1359  0.7131 -0.1940
15989SOL    HW149418   3.336   6.706   1.006  0.7693  1.3328 -0.0727
15989SOL    HW249419   3.359   6.666   0.862 -1.5266 -0.3251 -0.0276
15990SOL     OW49420   4.366   4.077   2.507  0.2330  0.3667  0.4647
15990SOL    HW149421   4.394   4.150   2.452 -1.2602 -0.6819 -1.8164
15990SOL    HW249422   4.273   4.091   2.520 -0.5616 -2.0649 -1.7511
15991SOL     OW49423   8.403   8.430   7.392  0.2386 -0.0778 -0.2128
15991SOL    HW149424   8.421   8.360   7.330 -0.2308 -1.0061  0.6612
15991SOL    HW249425   8.403   8.386   7.478 -2.0150  0.5727  0.2017
15992SOL     OW49426   4.570   7.018   4.515 -0.4049 -0.5494 -0.6601
15992SOL    HW149427   4.619   7.012   4.433  0.3717 -0.2597 -0.2236
15992SOL    HW249428   4.562   6.927   4.544 -1.8409 -0.7898 -1.7113
15993SOL     OW49429   5.385   8.377   9.158  0.0795  0.0559  0.0964
15993SOL    HW149430   5.345   8.317   9.220 -0.2535 -0.9490 -1.0474
15993SOL    HW249431   5.377   8.463   9.199  0.6478 -0.6608  1.8245
15994SOL     OW49432   4.550   1.665   2.320 -0.3249 -0.0943  0.1373
15994SOL    HW149433   4.605   1.591   2.346  0.0423 -0.2618 -1.0670
15994SOL    HW249434   4.573   1.681   2.229 -0.5729  1.3595  0.3138
15995SOL     OW49435   6.905   0.339   7.450  0.0750  0.7144  0.1091
15995SOL    HW149436   6.825   0.286   7.443  1.2150 -1.2085  0.9295
15995SOL    HW249437   6.929   0.360   7.360  0.8072 -2.1406 -0.4483
15996SOL     OW49438   2.318   8.166   3.522  0.0386  0.0067 -0.1207
15996SOL    HW149439   2.333   8.244   3.576  0.2826  0.5430 -0.9361
15996SOL    HW249440   2.406   8.133   3.503 -0.0618 -0.4180  0.1472
15997SOL     OW49441   7.356   4.638   7.329 -0.0700  0.0965 -0.1790
15997SOL    HW149442   7.433   4.586   7.306  1.3648  2.2820 -0.7558
15997SOL    HW249443   7.379   4.727   7.300 -1.0923  1.6989  3.3539
15998SOL     OW49444   4.704   1.158   2.094  0.8714 -0.8603  0.5634
15998SOL    HW149445   4.678   1.066   2.097  0.2212 -0.6630  1.1437
15998SOL    HW249446   4.629   1.203   2.057  1.8702 -0.7775 -1.5330
15999SOL     OW49447   6.566   2.742   8.969 -0.0046 -0.2377 -0.3682
15999SOL    HW149448   6.635   2.679   8.990 -0.2888  0.3460  2.8024
15999SOL    HW249449   6.611   2.826   8.962 -0.1366 -0.1601 -0.3007
16000SOL     OW49450   3.126   3.741   3.417 -0.9626  0.3534  0.2479
16000SOL    HW149451   3.125   3.815   3.477 -1.5028  0.5435  0.0143
16000SOL    HW249452   3.160   3.668   3.468 -0.3102  0.7899  0.4469
16001SOL     OW49453   3.954   0.440   0.489 -0.3613 -0.4108 -0.1500
16001SOL    HW149454   3.946   0.521   0.539 -0.8808  0.0331 -0.9300
16001SOL    HW249455   3.864   0.415   0.468 -0.2005 -1.1319 -0.0134
16002SOL     OW49456   4.154   1.774   0.843  0.2938  0.3998 -0.2011
16002SOL    HW149457   4.110   1.796   0.762  1.3569  0.6314 -0.7313
16002SOL    HW249458   4.152   1.855   0.895 -0.9761  0.0693  0.3080
16003SOL     OW49459   2.948   3.216   9.245  1.0359 -0.1960  0.0973
16003SOL    HW149460   2.967   3.176   9.330  1.5952 -2.7368 -1.1113
16003SOL    HW249461   2.961   3.145   9.182 -1.3252  1.0249 -1.9426
16004SOL     OW49462   3.363   0.145   3.565  0.2456 -0.5987 -0.4488
16004SOL    HW149463   3.415   0.074   3.527 -0.7318 -1.8315  0.4543
16004SOL    HW249464   3.275   0.132   3.531 -0.0052 -0.0037 -0.0452
16005SOL     OW49465   4.182   2.284   5.850  0.4307 -0.0769 -0.6023
16005SOL    HW149466   4.219   2.371   5.867 -1.7340  0.7484  0.1366
16005SOL    HW249467   4.090   2.291   5.875 -0.2513 -2.0792 -2.2208
16006SOL     OW49468   4.740   3.420   2.155 -0.5589 -0.2094  0.0281
16006SOL    HW149469   4.712   3.511   2.170 -3.1347 -1.2964  2.7307
16006SOL    HW249470   4.671   3.383   2.100 -0.4328 -1.0005  0.3983
16007SOL     OW49471   1.789   0.456   4.011 -0.1567 -0.3250  0.3364
16007SOL    HW149472   1.701   0.474   3.979 -0.2086 -0.9667  0.0927
16007SOL    HW249473   1.785   0.366   4.044 -0.0922  0.2876  2.1383
16008SOL     OW49474   8.663   3.142   8.321 -0.3979  0.0909 -0.2031
16008SOL    HW149475   8.571   3.149   8.348 -0.4978 -0.9769 -0.2100
16008SOL    HW249476   8.694   3.062   8.363  0.3573  0.1116 -0.6993
16009SOL     OW49477   4.643   6.290   7.038  0.2852  0.1005  0.1204
16009SOL    HW149478   4.719   6.321   7.089  1.7524 -1.7717 -0.8104
16009SOL    HW249479   4.656   6.195   7.032 -1.2570 -0.0389 -1.4993
16010SOL     OW49480   9.085   4.029   6.489 -0.0215  0.4099  0.1822
16010SOL    HW149481   9.113   3.974   6.416 -1.1331  0.7145 -0.4962
16010SOL    HW249482   9.097   4.119   6.458 -1.9363  0.5487 -0.2263
16011SOL     OW49483   4.751   5.416   5.203 -0.1026  0.4921 -0.6502
16011SOL    HW149484   4.831   5.452   5.240 -0.2518 -1.4798  1.8513
16011SOL    HW249485   4.681   5.467   5.244 -0.2069  0.4150 -0.7319
16012SOL     OW49486   7.144   6.770   1.366 -0.2507  0.2326  0.3185
16012SOL    HW149487   7.169   6.722   1.287 -0.8040  1.0861 -0.3815
16012SOL    HW249488   7.190   6.724   1.437  1.3081  0.2436 -0.6376
16013SOL     OW49489   1.133   2.156   8.149 -0.0184 -0.0481 -0.0020
16013SOL    HW149490   1.121   2.210   8.072 -0.8143 -2.2740 -1.5555
16013SOL    HW249491   1.048   2.159   8.194 -0.4618 -0.9055 -0.7463
16014SOL     OW49492   1.748   4.581   4.864  0.2009 -0.6236 -0.6940
16014SOL    HW149493   1.779   4.544   4.947  2.9562  0.2505 -1.2371
16014SOL    HW249494   1.751   4.507   4.803  0.3106 -0.7543 -0.5311
16015SOL     OW49495   5.426   5.918   7.515  0.4578 -0.1134 -0.0013
16015SOL    HW149496   5.453   5.892   7.603  1.2222  0.0865 -0.1689
16015SOL    HW249497   5.376   5.843   7.483 -0.7570  0.2349  0.9849
16016SOL     OW49498   4.375   8.847   7.049  0.0637  0.0124  0.1142
16016SOL    HW149499   4.310   8.883   6.989 -0.0030 -0.2313  0.0410
16016SOL    HW249500   4.406   8.923   7.100 -0.2208  0.1383  0.0971
16017SOL     OW49501   2.886   4.671   7.960  0.4329  0.1993 -0.0796
16017SOL    HW149502   2.831   4.749   7.972 -0.5971 -0.4383 -0.5631
16017SOL    HW249503   2.828   4.597   7.977  1.2284 -0.4873 -0.2868
16018SOL     OW49504   0.468   8.619   4.542  0.0359  0.0664  0.2780
16018SOL    HW149505   0.402   8.556   4.570 -1.0587  1.0070 -0.0966
16018SOL    HW249506   0.552   8.577   4.563 -0.6494 -1.5090  0.0048
16019SOL     OW49507   5.384   0.864   0.360 -0.2929 -0.1184  0.2195
16019SOL    HW149508   5.331   0.936   0.327 -1.0719 -1.1554 -0.8767
16019SOL    HW249509   5.471   0.901   0.373 -0.9618  1.3063  0.8561
16020SOL     OW49510   9.066   0.268   5.182 -0.2320 -0.1273  0.0786
16020SOL    HW149511   9.100   0.181   5.163  0.5649  0.2635 -0.3326
16020SOL    HW249512   8.973   0.254   5.202 -0.0210 -1.1056  0.3969
16021SOL     OW49513   5.216   4.492   9.028 -0.0192  0.0914 -0.2283
16021SOL    HW149514   5.249   4.431   8.962  1.2893 -0.6820  1.0814
16021SOL    HW249515   5.259   4.575   9.008 -0.3206  0.0978 -0.8693
16022SOL     OW49516   9.170   3.886   3.251  0.3701 -0.5266  0.0763
16022SOL    HW149517   9.102   3.938   3.208  0.6993 -0.1286  0.0326
16022SOL    HW249518   9.164   3.800   3.209  0.7336 -0.1259 -0.8216
16023SOL     OW49519   5.892   0.051   5.282 -0.2110  0.4385  0.5286
16023SOL    HW149520   5.838   0.055   5.203  0.5275  0.3105  0.0151
16023SOL    HW249521   5.829   0.037   5.353 -0.7296 -1.2567 -0.2253
16024SOL     OW49522   6.713   8.620   7.159  0.4109  0.2631 -0.1585
16024SOL    HW149523   6.678   8.532   7.176 -1.4384  1.2064  1.2451
16024SOL    HW249524   6.636   8.675   7.148  1.5244  1.9402  0.1000
16025SOL     OW49525   4.965   0.047   8.378  0.3967  0.4171  1.2037
16025SOL    HW149526   4.887   0.102   8.368  1.0710  1.2286  0.2490
16025SOL    HW249527   4.967  -0.006   8.299 -0.0729 -0.7865  1.9762
16026SOL     OW49528   0.355   3.606   2.294 -0.4169 -0.2925  0.4284
16026SOL    HW149529   0.408   3.548   2.348  0.6502 -0.2315 -0.5153
16026SOL    HW249530   0.331   3.554   2.218 -0.6705  0.0660  0.2582
16027SOL     OW49531   4.120   7.971   3.508 -0.0243 -0.4847  0.0025
16027SOL    HW149532   4.168   7.998   3.586 -1.2015 -0.3955  0.7273
16027SOL    HW249533   4.083   7.885   3.531 -2.3590  0.5729  0.5042
16028SOL     OW49534   2.455   8.856   6.096 -0.6948 -0.2376  0.0470
16028SOL    HW149535   2.469   8.949   6.079  0.2042 -0.4553 -0.4480
16028SOL    HW249536   2.489   8.812   6.018 -3.2826 -0.8849 -0.8328
16029SOL     OW49537   5.180   7.010   0.962 -0.1242 -0.4003 -0.7055
16029SOL    HW149538   5.131   6.994   1.043 -1.1607  1.3908 -0.9398
16029SOL    HW249539   5.236   6.932   0.953 -2.6527 -2.4377 -0.2345
16030SOL     OW49540   6.735   5.815   8.961  0.3587 -0.4977  0.8574
16030SOL    HW149541   6.805   5.751   8.946  0.5156 -0.1108 -0.1545
16030SOL    HW249542   6.769   5.896   8.924 -0.6958 -0.3463  0.1622
16031SOL     OW49543   0.890   1.789   8.605 -0.1725  0.2176  0.3091
16031SOL    HW149544   0.856   1.878   8.595 -0.7909 -0.1392 -1.1930
16031SOL    HW249545   0.983   1.796   8.584 -0.2157  0.5172  0.2136
16032SOL     OW49546   0.925   1.019   7.483 -0.2679  0.4641  0.1207
16032SOL    HW149547   1.001   1.046   7.431 -0.4575  0.6819 -0.0401
16032SOL    HW249548   0.883   0.950   7.431 -1.1912  1.5557 -0.6308
16033SOL     OW49549   3.313   3.864   9.133 -0.3562 -0.1236 -0.7070
16033SOL    HW149550   3.341   3.893   9.219 -0.2330  0.1780 -0.8482
16033SOL    HW249551   3.239   3.806   9.150 -0.2146 -0.2155 -0.3882
16034SOL     OW49552   6.557   0.387   8.152  0.4282 -0.4924 -0.2956
16034SOL    HW149553   6.625   0.323   8.173  0.9591 -0.6977 -2.3574
16034SOL    HW249554   6.595   0.471   8.178 -0.3725 -0.9464  2.6641
16035SOL     OW49555   2.472   6.680   5.143 -0.5174 -0.4154 -0.4774
16035SOL    HW149556   2.418   6.643   5.213 -1.3370  2.2236  0.4320
16035SOL    HW249557   2.502   6.605   5.093 -2.5964 -2.1998  0.7766
16036SOL     OW49558   2.168   5.190   1.081  0.2074  0.3331  0.4134
16036SOL    HW149559   2.107   5.119   1.062  1.3249 -0.3455 -0.7692
16036SOL    HW249560   2.170   5.195   1.177 -1.6195  0.3294  0.4811
16037SOL     OW49561   4.573   8.977   3.533 -0.1984  0.8636  0.2409
16037SOL    HW149562   4.485   8.979   3.570 -0.0046  1.0809  0.6925
16037SOL    HW249563   4.632   8.975   3.609  0.1701 -0.3289 -0.0397
16038SOL     OW49564   6.699   7.906   6.041  0.4613 -0.4377  0.1511
16038SOL    HW149565   6.657   7.943   6.119 -2.2350 -1.1544 -0.8351
16038SOL    HW249566   6.643   7.832   6.018  0.6837  0.2392 -2.9063
16039SOL     OW49567   4.074   6.570   3.565  0.1769  0.0195 -0.2404
16039SOL    HW149568   4.115   6.641   3.515 -0.0006  0.5529  0.3609
16039SOL    HW249569   4.106   6.491   3.523  1.0801  0.4380 -0.3883
16040SOL     OW49570   3.000   2.849   5.934 -0.0441  0.5220 -0.0343
16040SOL    HW149571   3.022   2.796   5.858 -0.2439  0.5509 -0.1114
16040SOL    HW249572   3.084   2.864   5.978  0.2897  1.6939 -1.0017
16041SOL     OW49573   1.982   4.822   4.028  0.1054  0.2473  0.3478
16041SOL    HW149574   2.002   4.912   4.003 -0.6397  0.5965  0.9606
16041SOL    HW249575   2.058   4.794   4.079  0.5405  0.3677 -0.2254
16042SOL     OW49576   4.612   1.548   9.098 -0.6285  0.3411 -0.5077
16042SOL    HW149577   4.657   1.631   9.081 -2.0794  1.7633  1.8998
16042SOL    HW249578   4.575   1.523   9.014  0.8211  1.4963 -1.5522
16043SOL     OW49579   5.910   6.516   3.002 -0.1960 -0.6327 -0.4401
16043SOL    HW149580   5.961   6.481   2.929 -0.9843 -1.5856 -0.5595
16043SOL    HW249581   5.822   6.479   2.989 -0.0950 -1.7275  1.5747
16044SOL     OW49582   4.492   4.118   0.688 -0.4841  0.3213  0.3697
16044SOL    HW149583   4.576   4.128   0.643 -0.9801  0.7482 -0.4817
16044SOL    HW249584   4.478   4.023   0.691 -0.6479  0.2947 -0.7922
16045SOL     OW49585   3.860   1.039   2.180 -0.1873 -0.3059  0.1010
16045SOL    HW149586   3.936   1.038   2.237 -0.6286  1.8456  0.7931
16045SOL    HW249587   3.883   1.099   2.109 -1.6084  1.3065  0.9309
16046SOL     OW49588   2.878   6.896   2.697 -0.8186 -0.4880 -0.3163
16046SOL    HW149589   2.920   6.968   2.744  1.0724 -2.5081  1.3379
16046SOL    HW249590   2.822   6.855   2.763 -0.2191 -1.7654 -0.5801
16047SOL     OW49591   0.670   2.300   4.860 -0.2679 -0.0059 -0.0004
16047SOL    HW149592   0.597   2.361   4.867 -0.5958 -0.2348 -1.0801
16047SOL    HW249593   0.744   2.353   4.830 -0.1884  0.0928  0.3658
16048SOL     OW49594   3.196   7.222   7.837  0.1593  0.3301  0.1324
16048SOL    HW149595   3.289   7.240   7.827  1.2453 -2.8872  2.7120
16048SOL    HW249596   3.184   7.135   7.799 -1.8645  0.7386 -0.2801
16049SOL     OW49597   0.371   4.808   0.549  0.2649  0.2575 -0.2382
16049SOL    HW149598   0.431   4.735   0.563 -0.4393 -0.2086  0.4174
16049SOL    HW249599   0.426   4.879   0.517  1.0189 -0.4451 -0.5258
16050SOL     OW49600   3.110   7.181   6.063  0.3367 -0.6699 -0.2407
16050SOL    HW149601   3.081   7.197   5.973 -0.7186  0.0661  0.2160
16050SOL    HW249602   3.100   7.087   6.075  0.7796 -0.8202 -0.9854
16051SOL     OW49603   3.932   3.646   0.751  0.4730 -0.2629 -0.6379
16051SOL    HW149604   3.854   3.692   0.719  0.2041  0.2772  0.7262
16051SOL    HW249605   4.004   3.706   0.730  0.5219 -0.6637 -1.6994
16052SOL     OW49606   6.687   4.610   7.753  0.5087 -0.3738 -0.2994
16052SOL    HW149607   6.614   4.671   7.740 -0.2725 -1.1911  0.1125
16052SOL    HW249608   6.702   4.611   7.848  1.4151  0.1962 -0.4307
16053SOL     OW49609   4.161   9.107   3.898  0.1777  0.2883 -0.8753
16053SOL    HW149610   4.106   9.164   3.845 -0.8030 -0.3142 -0.5422
16053SOL    HW249611   4.218   9.166   3.947 -2.8483  1.2680  1.7676
16054SOL     OW49612   8.491   4.673   2.073 -0.0433 -0.0381 -0.8025
16054SOL    HW149613   8.485   4.578   2.082  0.7387 -0.2091 -1.8872
16054SOL    HW249614   8.404   4.705   2.099 -0.6707 -1.1393 -1.4438
16055SOL     OW49615   7.896   8.909   3.438  0.0811 -0.1771 -0.0299
16055SOL    HW149616   7.874   8.859   3.517  0.2799  0.5273  0.4783
16055SOL    HW249617   7.932   8.991   3.471  0.1540  0.1298 -0.8587
16056SOL     OW49618   6.419   2.023   5.392  0.6959 -0.1064  0.5997
16056SOL    HW149619   6.468   1.995   5.314  0.5172  2.9888 -0.7832
16056SOL    HW249620   6.486   2.029   5.460  1.7522  1.2339 -0.4904
16057SOL     OW49621   5.085   9.266   4.415  0.2469  0.1631 -0.7479
16057SOL    HW149622   5.079   9.204   4.342 -0.7093 -1.3621  0.5530
16057SOL    HW249623   5.107   9.212   4.491  0.0064  1.5190  0.3286
16058SOL     OW49624   5.456   2.015   1.155 -0.1251 -0.2842  0.8069
16058SOL    HW149625   5.496   2.098   1.133 -0.7911  0.3429  1.8711
16058SOL    HW249626   5.468   1.961   1.077  0.1249  0.8683  0.0227
16059SOL     OW49627   3.415   7.941   9.275 -0.4398  0.8857 -1.1416
16059SOL    HW149628   3.486   8.003   9.258 -1.3395  1.9045 -1.3049
16059SOL    HW249629   3.410   7.887   9.196  0.2724  0.6842 -1.0514
16060SOL     OW49630   1.352   4.273   9.022 -0.6450  0.4393 -0.7893
16060SOL    HW149631   1.358   4.338   9.091  3.1925 -0.6562  0.1870
16060SOL    HW249632   1.404   4.310   8.950  0.1192 -0.7370 -0.8780
16061SOL     OW49633   8.036   2.442   6.958  0.2380 -0.0165  0.3987
16061SOL    HW149634   8.126   2.422   6.932 -0.0686  0.0847 -0.8119
16061SOL    HW249635   8.043   2.520   7.012  0.9727 -0.6229  1.2145
16062SOL     OW49636   1.673   4.353   0.437 -0.1741  0.4521 -0.2208
16062SOL    HW149637   1.640   4.300   0.365 -1.4491 -1.0901  1.4263
16062SOL    HW249638   1.598   4.366   0.495  0.8961  1.3366  1.0392
16063SOL     OW49639   4.167   5.994   6.888  0.1566  0.6723 -0.7444
16063SOL    HW149640   4.117   5.934   6.944  1.1853 -0.0097 -0.5258
16063SOL    HW249641   4.117   6.075   6.889 -0.5747  0.2302  0.0350
16064SOL     OW49642   2.428   6.421   3.860  0.1378 -0.4716 -0.0351
16064SOL    HW149643   2.399   6.336   3.828  2.0260 -1.1029 -0.1676
16064SOL    HW249644   2.399   6.483   3.793 -0.5445 -1.1035 -0.3323
16065SOL     OW49645   4.930   4.271   4.152  0.1165 -0.1674  0.2892
16065SOL    HW149646   4.968   4.282   4.065 -0.3222  1.4610  0.2771
16065SOL    HW249647   4.951   4.180   4.176  1.6540 -0.1468 -0.8293
16066SOL     OW49648   5.217   4.761   2.939  0.4873 -0.1096 -0.1107
16066SOL    HW149649   5.236   4.671   2.965  1.6361 -0.4870 -2.0118
16066SOL    HW249650   5.294   4.788   2.889 -0.1965  1.6370 -0.2822
16067SOL     OW49651   6.929   6.717   3.451  0.0597 -0.0845  0.0463
16067SOL    HW149652   6.912   6.651   3.384 -0.1407  0.0499 -0.0380
16067SOL    HW249653   6.985   6.673   3.515 -1.4188 -0.8730  0.8579
16068SOL     OW49654   0.589   1.637   5.300  0.2044 -0.2532  0.8343
16068SOL    HW149655   0.681   1.663   5.297 -0.0161  0.4185 -1.0422
16068SOL    HW249656   0.589   1.557   5.352  1.9198 -0.5723  0.4020
16069SOL     OW49657   0.663   5.159   2.507 -0.2264  0.1065  0.8195
16069SOL    HW149658   0.627   5.107   2.579 -0.0746  1.4981  1.9598
16069SOL    HW249659   0.604   5.235   2.501  0.2364  0.4120  0.0237
16070SOL     OW49660   5.789   7.829   1.509 -0.5902  0.3721 -0.1106
16070SOL    HW149661   5.883   7.821   1.497 -0.0876  3.4795  0.7778
16070SOL    HW249662   5.777   7.831   1.604 -1.5616  0.1538 -0.2099
16071SOL     OW49663   8.769   7.432   3.744 -0.3019 -0.3661 -0.2804
16071SOL    HW149664   8.842   7.427   3.805 -0.4292  0.6379 -0.0229
16071SOL    HW249665   8.707   7.366   3.775 -0.2634 -0.0275  0.5418
16072SOL     OW49666   7.038   1.479   3.350  0.0208  1.0314 -0.1618
16072SOL    HW149667   7.106   1.416   3.328 -0.9609 -0.3802  0.6281
16072SOL    HW249668   7.081   1.564   3.346  1.7100  0.2204 -0.0678
16073SOL     OW49669   5.660   7.325   1.059 -0.1016 -0.2679 -0.3533
16073SOL    HW149670   5.596   7.392   1.083  0.6275  0.5280 -0.5553
16073SOL    HW249671   5.612   7.265   1.002 -0.9466 -0.2937  0.3816
16074SOL     OW49672   4.060   2.922   0.950  0.2350 -0.2317 -0.4528
16074SOL    HW149673   4.014   2.948   0.870  1.0102 -1.1578 -1.2262
16074SOL    HW249674   3.998   2.864   0.995  0.3794 -0.9732 -1.1806
16075SOL     OW49675   1.764   6.152   6.535  0.2519  0.4450 -0.3834
16075SOL    HW149676   1.832   6.085   6.544  0.0861  0.2936 -0.2396
16075SOL    HW249677   1.695   6.109   6.484 -0.4688  0.0185  0.8777
16076SOL     OW49678   5.638   6.880   3.489 -0.2935  0.3977 -0.0807
16076SOL    HW149679   5.634   6.966   3.446  0.2678  0.5786  0.2280
16076SOL    HW249680   5.562   6.833   3.454 -1.1795  1.3570  0.4803
16077SOL     OW49681   7.894   1.686   8.852 -0.5115  0.1910 -0.6816
16077SOL    HW149682   7.872   1.660   8.942 -0.7094  0.9806 -0.4881
16077SOL    HW249683   7.809   1.693   8.808 -0.3670 -0.9608 -1.1561
16078SOL     OW49684   7.892   4.204   8.696 -0.4729  0.0277  0.3253
16078SOL    HW149685   7.971   4.226   8.746 -0.9943  0.1642  1.1084
16078SOL    HW249686   7.861   4.123   8.737  0.2781 -1.0877 -1.1872
16079SOL     OW49687   6.058   6.458   4.046 -0.2068  0.3074 -0.1614
16079SOL    HW149688   5.985   6.471   3.986 -1.0715 -0.9333  0.5727
16079SOL    HW249689   6.020   6.470   4.133  1.0052  1.9811  0.1818
16080SOL     OW49690   3.688   7.432   5.935 -0.3417 -0.9883 -0.1136
16080SOL    HW149691   3.746   7.369   5.978 -0.4546 -0.8576  0.2298
16080SOL    HW249692   3.687   7.508   5.993  0.9359 -0.0767 -1.1979
16081SOL     OW49693   5.970   1.924   1.302  0.4213 -0.1112 -0.6797
16081SOL    HW149694   5.918   1.998   1.271  0.7102  1.0667  1.4216
16081SOL    HW249695   6.037   1.911   1.235  1.6441  2.9270 -0.1886
16082SOL     OW49696   8.163   2.018   4.573  0.0204 -0.1800 -0.2321
16082SOL    HW149697   8.225   2.078   4.532  1.1858  0.3749  2.1787
16082SOL    HW249698   8.123   2.069   4.644  0.0652 -1.7995  1.0243
16083SOL     OW49699   1.627   9.181   3.678 -0.1940  0.2568 -0.5272
16083SOL    HW149700   1.678   9.147   3.604  0.8350 -1.1984  0.7935
16083SOL    HW249701   1.665   9.139   3.755 -1.3285  1.6151  0.8436
16084SOL     OW49702   5.267   8.416   1.618 -0.2750  0.3396  0.2845
16084SOL    HW149703   5.270   8.508   1.644  1.2803  0.1082  1.0671
16084SOL    HW249704   5.248   8.369   1.700  0.0947 -0.0978  0.1244
16085SOL     OW49705   2.206   1.188   8.269 -0.7269 -0.0161  0.0632
16085SOL    HW149706   2.239   1.123   8.207 -2.9037 -0.9821 -0.1900
16085SOL    HW249707   2.233   1.153   8.355 -3.8882 -2.7611  0.1561
16086SOL     OW49708   0.255   0.353   6.907 -0.0143 -0.1224  0.1478
16086SOL    HW149709   0.257   0.286   6.838 -0.0219 -1.4860  1.4157
16086SOL    HW249710   0.343   0.391   6.905 -0.2755  0.4787 -1.1662
16087SOL     OW49711   6.597   4.987   8.573 -0.2993 -0.1323  0.0296
16087SOL    HW149712   6.615   4.902   8.533  1.3551 -0.4490  1.3217
16087SOL    HW249713   6.524   4.971   8.633 -0.0414 -0.6185  0.2142
16088SOL     OW49714   8.537   7.604   1.431  0.7095  0.3681 -0.2893
16088SOL    HW149715   8.544   7.537   1.498  0.6252 -1.0508 -1.6490
16088SOL    HW249716   8.627   7.622   1.405  0.6988  0.2907 -0.3815
16089SOL     OW49717   8.397   4.964   2.814  0.7012 -0.1223  0.6984
16089SOL    HW149718   8.449   5.007   2.881  1.1806  0.0094  0.2457
16089SOL    HW249719   8.327   5.026   2.794  2.5056  1.3652 -1.3724
16090SOL     OW49720   3.811   1.749   1.133  0.3267 -0.5019  0.2975
16090SOL    HW149721   3.865   1.796   1.070  0.2815  1.2555  1.5306
16090SOL    HW249722   3.774   1.816   1.190 -1.8095 -1.7875  0.5671
16091SOL     OW49723   6.885   1.882   6.685  0.2659 -0.1687 -0.1658
16091SOL    HW149724   6.852   1.955   6.736  1.8195 -0.0544  0.7473
16091SOL    HW249725   6.899   1.812   6.748 -0.0543 -0.8456 -0.8284
16092SOL     OW49726   1.355   7.566   6.331  0.1563 -0.5532 -0.0663
16092SOL    HW149727   1.346   7.488   6.277  0.7794 -2.9138  2.9164
16092SOL    HW249728   1.266   7.588   6.357  0.0873 -1.4410  0.5019
16093SOL     OW49729   7.354   3.252   8.227 -0.3940 -0.2979  0.5105
16093SOL    HW149730   7.315   3.206   8.302 -2.1701 -0.9759 -0.7612
16093SOL    HW249731   7.279   3.286   8.178  0.7159  0.1207 -0.9712
16094SOL     OW49732   4.446   8.361   7.835  0.0082 -0.0785 -0.2706
16094SOL    HW149733   4.535   8.333   7.855  0.0948  0.0523 -0.4701
16094SOL    HW249734   4.390   8.300   7.884  0.2165  0.4525  0.6590
16095SOL     OW49735   7.601   7.432   1.067  0.2279  0.0769  0.0884
16095SOL    HW149736   7.525   7.384   1.035  0.8382 -0.9213  0.1015
16095SOL    HW249737   7.675   7.372   1.054  1.5878  2.0940 -2.8543
16096SOL     OW49738   3.282   1.798   3.868  0.5748  0.7770 -0.5141
16096SOL    HW149739   3.324   1.882   3.847 -0.3507  1.0641 -1.2828
16096SOL    HW249740   3.202   1.797   3.816  1.1899 -1.1583 -1.5360
16097SOL     OW49741   0.167   2.461   6.704  0.1197  0.0158  0.5286
16097SOL    HW149742   0.137   2.374   6.730  0.1751  0.2895  1.5153
16097SOL    HW249743   0.096   2.520   6.730  0.5095  0.3851  0.7609
16098SOL     OW49744   5.888   1.988   3.557  0.0346 -0.3298 -0.1665
16098SOL    HW149745   5.834   1.991   3.635 -1.5938 -0.1368 -1.2530
16098SOL    HW249746   5.959   2.050   3.574 -2.0107  2.1580 -0.0318
16099SOL     OW49747   3.707   8.640   5.691  0.0236  1.2444 -0.1314
16099SOL    HW149748   3.710   8.578   5.618 -0.9599 -0.5241  1.2338
16099SOL    HW249749   3.795   8.638   5.728  0.1301  1.0219 -0.3899
16100SOL     OW49750   1.209   6.368   1.630  0.0506  0.6278 -0.4552
16100SOL    HW149751   1.135   6.307   1.636 -1.9092  2.6070 -2.7245
16100SOL    HW249752   1.276   6.319   1.581 -0.8619 -0.2368 -0.8786
16101SOL     OW49753   1.001   8.711   1.569  0.1659 -0.8633  0.0451
16101SOL    HW149754   0.989   8.773   1.641 -0.2857 -0.3112 -0.4883
16101SOL    HW249755   1.086   8.672   1.585  0.8150  0.4553  0.0009
16102SOL     OW49756   0.373   5.205   9.168  0.3418 -0.3941  0.6242
16102SOL    HW149757   0.319   5.276   9.201  1.7612  0.9166  0.2355
16102SOL    HW249758   0.319   5.163   9.100  0.1505  1.5103 -0.4726
16103SOL     OW49759   6.627   4.782   0.701  0.5840  0.5613 -0.1639
16103SOL    HW149760   6.720   4.801   0.686  0.2231  0.2993 -3.3079
16103SOL    HW249761   6.620   4.687   0.691  0.1176  0.4277  1.2243
16104SOL     OW49762   7.139   1.102   7.827 -0.7773 -0.1755 -0.2113
16104SOL    HW149763   7.131   1.170   7.893  0.0728 -0.7874  0.5540
16104SOL    HW249764   7.193   1.141   7.758  1.4345 -0.6555  1.1261
16105SOL     OW49765   0.047   5.460   7.151  0.4518 -0.4506 -0.4171
16105SOL    HW149766  -0.030   5.516   7.153 -0.8652 -2.1581 -0.3348
16105SOL    HW249767   0.121   5.519   7.163 -0.8805  1.1889  0.0520
16106SOL     OW49768   5.704   4.850   4.858 -0.2824  0.4423 -0.2435
16106SOL    HW149769   5.764   4.921   4.881 -0.3977  0.0757  1.2732
16106SOL    HW249770   5.620   4.893   4.842 -0.5981  0.5910  1.6191
16107SOL     OW49771   8.382   8.500   1.146  0.1409 -0.8456  0.7495
16107SOL    HW149772   8.451   8.563   1.166 -0.2701 -0.5454  1.2338
16107SOL    HW249773   8.339   8.484   1.230 -0.2034 -1.2449  0.5029
16108SOL     OW49774   2.902   0.692   7.639 -0.1520  0.5526  0.1289
16108SOL    HW149775   2.898   0.759   7.571 -2.4098  0.2473 -0.0926
16108SOL    HW249776   2.949   0.734   7.711 -1.0372  2.1906 -0.2165
16109SOL     OW49777   2.575   5.719   0.117 -0.5424  0.5328 -0.0189
16109SOL    HW149778   2.655   5.749   0.161 -0.0166 -1.6482  0.6383
16109SOL    HW249779   2.593   5.628   0.094 -1.6481  0.9566 -2.8604
16110SOL     OW49780   5.899   2.537   2.447  0.2673  0.3637 -0.0994
16110SOL    HW149781   5.993   2.538   2.467  0.5506  1.4452 -1.3756
16110SOL    HW249782   5.878   2.444   2.433  1.2974  0.1776 -0.4742
16111SOL     OW49783   0.146   4.309   5.612 -0.1048 -0.3586  0.3551
16111SOL    HW149784   0.192   4.357   5.681 -1.2537  1.0250  0.2264
16111SOL    HW249785   0.187   4.223   5.610 -0.3359 -0.6054  3.0665
16112SOL     OW49786   2.692   6.659   6.542  0.3506 -0.0442  0.6640
16112SOL    HW149787   2.657   6.729   6.596  1.6013 -0.6032  2.2594
16112SOL    HW249788   2.762   6.620   6.594  0.3753 -1.8194 -0.5935
16113SOL     OW49789   6.403   5.086   1.783 -0.2675  0.1705 -0.1839
16113SOL    HW149790   6.415   5.079   1.878 -0.0731 -0.0014 -0.2190
16113SOL    HW249791   6.311   5.065   1.769 -0.0760 -0.7493 -0.1210
16114SOL     OW49792   1.295   5.385   3.591  0.3803  0.9528 -0.5471
16114SOL    HW149793   1.302   5.289   3.595 -1.5190  0.8111  1.2509
16114SOL    HW249794   1.373   5.417   3.637  0.7701  0.2688 -0.7169
16115SOL     OW49795   4.042   7.593   4.384 -0.4298 -0.2408  0.3801
16115SOL    HW149796   4.107   7.523   4.390  2.2200  1.9481 -0.8076
16115SOL    HW249797   3.991   7.586   4.465  0.6138 -2.6611  0.9060
16116SOL     OW49798   7.639   4.283   0.820 -0.0926  0.7985 -0.2144
16116SOL    HW149799   7.715   4.342   0.821  1.2239 -0.7324  2.5288
16116SOL    HW249800   7.677   4.196   0.807 -1.5341  0.1226 -0.0431
16117SOL     OW49801   3.180   8.542   8.786  0.4733 -0.4254 -0.1991
16117SOL    HW149802   3.236   8.509   8.715  2.1343  0.4983  0.6235
16117SOL    HW249803   3.150   8.627   8.755 -0.5442 -0.9399 -0.6578
16118SOL     OW49804   5.554   1.301   5.070 -0.1942 -0.1247  0.1620
16118SOL    HW149805   5.636   1.351   5.072 -1.0820  1.3600  1.9740
16118SOL    HW249806   5.581   1.213   5.043  1.7669  0.6799 -0.7393
16119SOL     OW49807   4.977   7.656   0.457 -0.6235 -0.3721 -0.2280
16119SOL    HW149808   5.067   7.651   0.425  0.4685  1.4786  2.2039
16119SOL    HW249809   4.972   7.589   0.525 -0.0619  1.3860  1.6485
16120SOL     OW49810   1.071   2.877   0.808  0.2696  0.2589 -0.6052
16120SOL    HW149811   1.161   2.897   0.831 -0.0159 -0.8248  1.7875
16120SOL    HW249812   1.019   2.943   0.853 -0.2024 -0.1874 -0.4787
16121SOL     OW49813   6.222   5.296   1.702  0.5369  0.0637 -0.1090
16121SOL    HW149814   6.200   5.314   1.793  0.9722 -1.8108  0.4059
16121SOL    HW249815   6.312   5.326   1.693  1.1149 -1.3654  0.6156
16122SOL     OW49816   2.911   0.244   0.394 -0.1572 -0.1107  0.2527
16122SOL    HW149817   2.834   0.186   0.391 -0.0845 -0.1853 -0.1795
16122SOL    HW249818   2.911   0.277   0.484 -0.9044  0.1658  0.1618
16123SOL     OW49819   5.007   0.843   8.938 -0.2011  0.0187 -0.3813
16123SOL    HW149820   4.937   0.797   8.892  0.4512 -0.1226 -1.2590
16123SOL    HW249821   5.033   0.783   9.008  0.8933 -1.1655 -1.7291
16124SOL     OW49822   0.966   4.735   2.812  0.0609  0.4354  0.5758
16124SOL    HW149823   0.891   4.709   2.867 -1.4155  0.6601 -1.2215
16124SOL    HW249824   0.972   4.665   2.747  3.1215 -0.9359  2.1319
16125SOL     OW49825   0.502   2.568   7.893 -0.0885 -0.0719 -0.2113
16125SOL    HW149826   0.461   2.655   7.889  0.6724  0.3460  0.6368
16125SOL    HW249827   0.512   2.542   7.801 -0.8814  0.4620 -0.4618
16126SOL     OW49828   5.104   6.912   4.025  0.4738  0.7399 -0.2286
16126SOL    HW149829   5.090   6.886   3.934 -0.7321  1.8938 -0.4062
16126SOL    HW249830   5.080   6.835   4.076  2.5252 -0.4004 -0.9034
16127SOL     OW49831   7.327   8.787   7.453  0.4892 -0.1181  0.0449
16127SOL    HW149832   7.265   8.792   7.381  0.6015 -1.2029 -0.1435
16127SOL    HW249833   7.366   8.875   7.458 -2.8402  1.4352  1.8304
16128SOL     OW49834   7.688   7.205   2.212 -0.1753  0.5702  0.0482
16128SOL    HW149835   7.740   7.141   2.164  0.1679  0.5847  0.3906
16128SOL    HW249836   7.601   7.166   2.218  0.4855 -0.7713  1.8955
16129SOL     OW49837   6.022   1.782   0.135  0.5161 -0.0387 -0.1212
16129SOL    HW149838   5.954   1.756   0.197  1.3333  0.3370  0.9884
16129SOL    HW249839   6.095   1.724   0.154  1.3720  1.1777  0.4542
16130SOL     OW49840   4.727   3.472   0.363  0.1350 -0.4540 -0.3865
16130SOL    HW149841   4.766   3.394   0.402  0.9322  0.1003 -0.0597
16130SOL    HW249842   4.781   3.490   0.285  0.0221 -0.1671 -0.4022
16131SOL     OW49843   7.975   8.685   4.803 -0.0382  0.2584 -0.4506
16131SOL    HW149844   7.937   8.605   4.839 -1.2108  0.2158 -1.6707
16131SOL    HW249845   7.925   8.701   4.722  2.3335  0.3944 -2.0028
16132SOL     OW49846   2.365   4.879   8.495 -0.2338  0.2295  0.2958
16132SOL    HW149847   2.434   4.833   8.448  0.2805  0.2301  1.0400
16132SOL    HW249848   2.304   4.906   8.426 -1.1778 -2.5483 -0.1010
16133SOL     OW49849   7.706   9.269   8.283  0.1450 -0.3752  0.2465
16133SOL    HW149850   7.728   9.250   8.192  0.5758 -0.4186  0.3573
16133SOL    HW249851   7.626   9.219   8.299 -0.5704  0.5223 -0.4423
16134SOL     OW49852   1.181   6.849   1.204 -0.1291 -0.4997  0.2939
16134SOL    HW149853   1.148   6.760   1.217 -1.2811 -0.0321  0.6579
16134SOL    HW249854   1.218   6.874   1.288 -1.9547  0.2286  0.9043
16135SOL     OW49855   5.608   3.553   6.447 -0.0653  0.3539  0.1468
16135SOL    HW149856   5.574   3.639   6.424  0.1843  0.5478  0.4977
16135SOL    HW249857   5.652   3.566   6.531  1.8208  0.3323 -0.7840
16136SOL     OW49858   3.971   1.760   7.023  0.3717  0.4907 -0.2282
16136SOL    HW149859   3.975   1.705   6.945  0.0782  0.7828 -0.4500
16136SOL    HW249860   4.063   1.776   7.045  0.4695 -0.3562  0.0343
16137SOL     OW49861   4.529   0.887   0.354  0.1075  0.4552  0.0027
16137SOL    HW149862   4.574   0.946   0.415  1.5930 -0.8702  0.2414
16137SOL    HW249863   4.594   0.868   0.287 -1.0507  0.7663 -1.2588
16138SOL     OW49864   4.774   7.444   2.918 -0.0506 -0.1079  0.0444
16138SOL    HW149865   4.854   7.497   2.915 -0.2202  0.2262  1.0227
16138SOL    HW249866   4.790   7.372   2.857  1.5118 -0.7781  1.2027
16139SOL     OW49867   4.540   5.223   4.225 -0.7571 -0.0912  0.1761
16139SOL    HW149868   4.515   5.301   4.274 -0.3724  0.5807 -0.6709
16139SOL    HW249869   4.590   5.256   4.151 -1.1784 -1.0980 -0.5827
16140SOL     OW49870   8.606   0.666   4.938 -0.0249 -0.0316 -0.3868
16140SOL    HW149871   8.518   0.635   4.959  0.6593 -0.8654  1.4463
16140SOL    HW249872   8.603   0.760   4.956 -0.4642 -0.1062 -0.0464
16141SOL     OW49873   8.970   0.294   6.610 -0.0189  0.6178 -0.2982
16141SOL    HW149874   8.934   0.290   6.699  2.3910 -1.1034  0.6920
16141SOL    HW249875   8.892   0.295   6.554 -1.6227  1.3892  1.7711
16142SOL     OW49876   7.020   8.660   2.609 -0.0640 -0.0516 -0.2653
16142SOL    HW149877   7.073   8.735   2.634  0.1193 -0.1450 -0.3740
16142SOL    HW249878   6.972   8.636   2.689 -1.3395  1.1669 -0.6129
16143SOL     OW49879   7.508   4.479   3.997  0.2792 -0.1585  0.2006
16143SOL    HW149880   7.572   4.537   4.040  0.6882 -0.0851 -0.4956
16143SOL    HW249881   7.425   4.500   4.040 -0.0297  2.5403 -1.4609
16144SOL     OW49882   4.791   1.985   1.622 -0.3526 -0.0193  0.5660
16144SOL    HW149883   4.762   2.067   1.663  0.2325  0.7465 -0.5056
16144SOL    HW249884   4.711   1.949   1.583 -0.7911 -0.4396  1.8213
16145SOL     OW49885   0.624   5.786   2.952  0.2843  0.4363  0.1067
16145SOL    HW149886   0.548   5.838   2.980  1.4320  1.0910  2.2285
16145SOL    HW249887   0.696   5.849   2.951  1.2847 -0.6657  0.6272
16146SOL     OW49888   6.215   7.915   7.114  0.2670  0.4956 -0.1117
16146SOL    HW149889   6.146   7.969   7.076 -0.0797 -0.6827 -1.2481
16146SOL    HW249890   6.272   7.977   7.159 -0.0424  1.8275 -1.4511
16147SOL     OW49891   8.082   4.117   3.050  0.4980  0.0035  0.2400
16147SOL    HW149892   8.098   4.039   3.103  2.1752  0.0600 -0.1002
16147SOL    HW249893   8.105   4.190   3.107 -0.0378  0.1920  0.2157
16148SOL     OW49894   7.915   8.845   8.226  0.1657 -0.3309 -0.5186
16148SOL    HW149895   7.976   8.876   8.293  0.3011  0.0340 -0.8098
16148SOL    HW249896   7.945   8.756   8.206 -0.0196 -0.5295  0.0755
16149SOL     OW49897   0.675   6.870   6.553 -0.1147  0.2417 -0.3256
16149SOL    HW149898   0.630   6.938   6.503  0.0255  0.1320 -0.6047
16149SOL    HW249899   0.626   6.864   6.635 -1.5876 -0.9434 -1.2283
16150SOL     OW49900   2.184   4.270   6.141 -0.0859 -0.0533 -0.4322
16150SOL    HW149901   2.137   4.276   6.224  0.4512  1.1224 -0.1986
16150SOL    HW249902   2.115   4.272   6.074 -0.4799 -0.3641 -0.0426
16151SOL     OW49903   2.385   3.562   0.921 -0.4104 -0.2839 -0.1217
16151SOL    HW149904   2.289   3.568   0.923 -0.4109  2.0495 -2.2014
16151SOL    HW249905   2.411   3.576   1.012 -2.0159 -0.7066  0.4486
16152SOL     OW49906   1.308   5.967   6.670 -0.2458  0.0797  0.6400
16152SOL    HW149907   1.217   5.993   6.657 -0.2586  0.9566  2.2352
16152SOL    HW249908   1.360   6.035   6.626 -0.3477  0.3256  0.8986
16153SOL     OW49909   1.990   3.018   8.781 -0.0587 -0.3713  0.4328
16153SOL    HW149910   1.933   2.942   8.796 -0.9362 -0.7298 -3.5394
16153SOL    HW249911   1.929   3.091   8.768  0.6459  0.3219  0.9363
16154SOL     OW49912   7.849   6.516   5.395 -0.4943  0.1821 -0.3667
16154SOL    HW149913   7.801   6.591   5.431 -3.0408 -1.4105 -0.2456
16154SOL    HW249914   7.809   6.440   5.437 -0.6188 -1.4901 -3.3071
16155SOL     OW49915   2.009   3.158   6.555 -0.0866  0.1257 -0.2057
16155SOL    HW149916   2.070   3.217   6.600  3.2739 -3.0860 -0.0685
16155SOL    HW249917   2.018   3.180   6.462 -0.0352  0.7725 -0.0509
16156SOL     OW49918   6.605   6.097   8.101  0.1692 -0.2548  0.0459
16156SOL    HW149919   6.697   6.094   8.129  0.6167 -0.5377 -1.3454
16156SOL    HW249920   6.581   6.189   8.109  1.1709  0.1610 -1.2798
16157SOL     OW49921   2.715   7.907   7.834  0.2229 -0.1640  0.2307
16157SOL    HW149922   2.689   7.973   7.897 -0.6898  0.0579 -0.3538
16157SOL    HW249923   2.809   7.896   7.847 -0.0174 -0.4769  1.9494
16158SOL     OW49924   3.479   1.981   4.133 -0.1606 -0.2759 -0.9310
16158SOL    HW149925   3.523   1.897   4.123 -0.6788 -0.9294  1.7396
16158SOL    HW249926   3.395   1.960   4.172  1.0085  1.6203  3.1306
16159SOL     OW49927   0.213   6.594   6.888  0.5724  0.3800  0.1914
16159SOL    HW149928   0.213   6.662   6.820  1.4071  0.4167  0.2100
16159SOL    HW249929   0.276   6.626   6.953  2.2793 -1.1496 -0.6080
16160SOL     OW49930   2.506   7.050   7.845  0.0572 -0.0361 -0.1480
16160SOL    HW149931   2.567   7.115   7.812 -1.7028  0.3924 -2.8653
16160SOL    HW249932   2.503   6.982   7.777 -0.3078 -1.5276  1.2797
16161SOL     OW49933   2.510   2.041   6.166 -0.5877  0.3791  0.0332
16161SOL    HW149934   2.515   2.079   6.079 -0.4296  1.2709  0.4156
16161SOL    HW249935   2.599   2.012   6.186 -0.7899 -0.5924 -0.4208
16162SOL     OW49936   2.074   2.901   6.938  0.5296  0.2841 -0.0569
16162SOL    HW149937   2.095   2.901   7.032 -2.2614  0.8220  0.6514
16162SOL    HW249938   2.054   2.810   6.918  2.2200 -0.0357 -0.4707
16163SOL     OW49939   1.678   8.790   3.320 -0.0555  0.6688 -0.4758
16163SOL    HW149940   1.585   8.772   3.311 -0.1313  0.0760  1.0598
16163SOL    HW249941   1.715   8.708   3.355  0.9158  1.1113 -0.4230
16164SOL     OW49942   4.310   7.514   9.264  0.4539 -0.5483 -0.1943
16164SOL    HW149943   4.380   7.454   9.291  1.5920 -0.0136 -1.7883
16164SOL    HW249944   4.342   7.553   9.183 -1.4891  0.1327 -0.6895
16165SOL     OW49945   4.736   6.305   8.766 -0.3813  0.1479 -0.7324
16165SOL    HW149946   4.663   6.343   8.717 -1.7887  0.1757  1.2680
16165SOL    HW249947   4.761   6.373   8.829  0.8248 -0.1760 -0.8440
16166SOL     OW49948   7.792   3.547   2.443 -0.1053 -0.2984  0.0739
16166SOL    HW149949   7.817   3.460   2.413  0.6391 -1.2791  3.1557
16166SOL    HW249950   7.852   3.606   2.397  0.2822 -1.5277 -1.0685
16167SOL     OW49951   9.006   7.579   8.618 -0.1982 -0.6703  0.3969
16167SOL    HW149952   8.995   7.641   8.691 -1.0200 -0.2957 -0.0325
16167SOL    HW249953   8.944   7.608   8.552 -0.4433 -1.8295  0.0932
16168SOL     OW49954   7.900   1.958   7.062 -0.2479  0.2881 -0.1489
16168SOL    HW149955   7.838   2.028   7.041 -0.6520 -0.2667 -0.8413
16168SOL    HW249956   7.869   1.882   7.012  0.4329 -0.2695  0.2526
16169SOL     OW49957   0.270   4.181   8.470 -0.0749 -0.0267 -0.1922
16169SOL    HW149958   0.318   4.206   8.391  0.3910 -0.7414 -0.1445
16169SOL    HW249959   0.178   4.175   8.442  0.0762 -0.1912 -0.6569
16170SOL     OW49960   8.714   3.294   6.073 -0.1810  0.0308  0.2074
16170SOL    HW149961   8.716   3.204   6.040 -2.0089 -0.4491  1.2218
16170SOL    HW249962   8.625   3.305   6.106  0.1636  2.0505  0.6000
16171SOL     OW49963   8.384   2.419   8.586 -0.1785 -0.0822  0.4442
16171SOL    HW149964   8.341   2.404   8.502  0.0306  1.6254 -0.0029
16171SOL    HW249965   8.337   2.494   8.624 -1.0021 -1.5073  2.3990
16172SOL     OW49966   8.462   6.387   2.722 -0.3175  0.7188  0.3445
16172SOL    HW149967   8.441   6.316   2.660 -0.0313 -0.9524  2.0603
16172SOL    HW249968   8.377   6.417   2.754 -0.4071 -0.8737  1.7249
16173SOL     OW49969   3.439   7.896   8.997 -0.9493 -0.4382  0.2421
16173SOL    HW149970   3.344   7.903   8.989 -0.8838  0.7371  0.3113
16173SOL    HW249971   3.470   7.986   8.992  0.2067 -0.8440 -0.2991
16174SOL     OW49972   3.069   9.185   0.681  0.1297  0.0124  0.3998
16174SOL    HW149973   3.065   9.090   0.692 -1.0271 -0.4850 -3.0759
16174SOL    HW249974   3.099   9.198   0.591 -2.1184  2.8554 -0.1072
16175SOL     OW49975   7.857   0.835   0.995 -0.1206  0.0010  0.0365
16175SOL    HW149976   7.866   0.866   0.905  0.9696 -0.9319 -0.1934
16175SOL    HW249977   7.783   0.884   1.030  0.7193  1.8740 -0.7175
16176SOL     OW49978   4.615   2.997   4.410 -0.0075  0.0507 -0.0115
16176SOL    HW149979   4.566   3.064   4.458 -0.8814 -0.3969 -0.2612
16176SOL    HW249980   4.549   2.952   4.357  0.6948 -0.4912 -0.4422
16177SOL     OW49981   7.697   4.186   6.276  0.2323 -0.1275 -0.0252
16177SOL    HW149982   7.785   4.150   6.288 -0.9115 -3.0755  0.3964
16177SOL    HW249983   7.669   4.212   6.364  0.4080  0.1336 -0.0461
16178SOL     OW49984   8.728   9.040   8.626 -0.0003 -0.2587 -0.0793
16178SOL    HW149985   8.779   8.970   8.666  0.9893  0.6904  0.3514
16178SOL    HW249986   8.643   9.035   8.669  0.6199 -0.1028  1.2226
16179SOL     OW49987   4.919   1.281   1.122  0.4594 -0.2906 -0.2311
16179SOL    HW149988   5.002   1.268   1.076  0.0822  0.2934 -1.1054
16179SOL    HW249989   4.908   1.201   1.174  1.1145 -0.7849 -0.8259
16180SOL     OW49990   3.579   3.175   0.843 -0.2660  0.1282  0.1073
16180SOL    HW149991   3.614   3.177   0.753 -0.8892  1.1136 -0.1244
16180SOL    HW249992   3.501   3.121   0.837  0.9988 -1.8581  0.5738
16181SOL     OW49993   3.398   5.992   0.286  0.2921 -0.4515 -0.2338
16181SOL    HW149994   3.439   6.004   0.201  3.1731 -3.2355  0.5927
16181SOL    HW249995   3.321   5.938   0.268  0.0423  0.2027 -1.1975
16182SOL     OW49996   4.461   5.605   7.459  0.0953 -0.3195  0.2778
16182SOL    HW149997   4.372   5.641   7.467  0.8884  1.9351 -0.3275
16182SOL    HW249998   4.458   5.552   7.380 -0.3882  0.8930 -0.5507
16183SOL     OW49999   2.235   0.994   5.911  0.2408 -0.1602  0.0569
16183SOL    HW150000   2.198   0.938   5.979  2.4926 -0.5520  1.0537
16183SOL    HW250001   2.295   0.937   5.863  0.8455  0.8189 -0.3831
16184SOL     OW50002   5.338   0.540   1.367  0.0565  0.2282 -0.0581
16184SOL    HW150003   5.360   0.601   1.437  1.2607  0.1612 -0.3587
16184SOL    HW250004   5.313   0.459   1.412  2.9315 -0.5392  0.3378
16185SOL     OW50005   6.329   5.288   6.979 -0.6021  0.0016 -0.2407
16185SOL    HW150006   6.414   5.255   6.950 -0.5054  1.2029 -1.4289
16185SOL    HW250007   6.266   5.251   6.918 -1.1402 -1.8453  1.3371
16186SOL     OW50008   6.283   5.113   1.201  0.1333  0.6045  0.5154
16186SOL    HW150009   6.206   5.167   1.218  1.0378  2.5540 -1.1504
16186SOL    HW250010   6.260   5.064   1.122  0.5827  1.2497 -0.0315
16187SOL     OW50011   3.966   6.612   9.230 -0.4651  0.2671 -0.3354
16187SOL    HW150012   4.004   6.613   9.318 -0.3911 -0.2887 -0.3573
16187SOL    HW250013   3.885   6.561   9.239  0.3687 -1.2201 -0.9079
16188SOL     OW50014   0.027   3.898   5.467 -0.6655  0.1953  0.0740
16188SOL    HW150015  -0.017   3.952   5.533 -0.9526 -0.5031  0.4595
16188SOL    HW250016  -0.010   3.811   5.479  0.0081 -0.1534 -0.3562
16189SOL     OW50017   2.782   4.275   4.849 -0.5551 -0.1580 -0.0635
16189SOL    HW150018   2.819   4.315   4.771 -0.0087  0.2542  0.4007
16189SOL    HW250019   2.847   4.291   4.918 -1.4585  0.3334  0.6955
16190SOL     OW50020   1.587   4.579   3.677 -0.1846 -0.1468 -0.6398
16190SOL    HW150021   1.656   4.611   3.736  1.6831 -1.9593 -1.7072
16190SOL    HW250022   1.606   4.622   3.593 -1.0403  0.1547 -0.6902
16191SOL     OW50023   7.380   8.664   2.039 -0.0632  0.0568 -0.3570
16191SOL    HW150024   7.424   8.591   2.082 -0.9903 -0.3255 -0.0239
16191SOL    HW250025   7.451   8.718   2.003  0.6927 -0.0929  0.8706
16192SOL     OW50026   9.204   5.271   6.711 -0.0344  0.1667 -0.3390
16192SOL    HW150027   9.247   5.218   6.778  0.3007  1.1312  0.2353
16192SOL    HW250028   9.120   5.228   6.696 -1.2118  1.2660  2.5259
16193SOL     OW50029   9.040   8.423   6.881  1.4524  0.8356 -1.0124
16193SOL    HW150030   8.989   8.342   6.872  0.0018  1.7782 -1.7958
16193SOL    HW250031   9.044   8.438   6.976  1.6746 -0.1009 -0.8621
16194SOL     OW50032   7.829   7.306   1.587 -0.0334 -0.1772 -0.2304
16194SOL    HW150033   7.749   7.271   1.548 -0.5023  1.9518 -1.3524
16194SOL    HW250034   7.840   7.392   1.547  1.9959  0.2443  1.0436
16195SOL     OW50035   5.166   0.704   6.036  0.6077  0.3404 -0.2770
16195SOL    HW150036   5.099   0.773   6.042 -2.2137 -2.0483 -1.5099
16195SOL    HW250037   5.159   0.657   6.120 -1.2482 -1.4479 -1.3365
16196SOL     OW50038   2.441   7.148   7.239  0.7677 -0.2680 -0.0142
16196SOL    HW150039   2.362   7.128   7.188  0.5755 -1.4158  0.6859
16196SOL    HW250040   2.507   7.088   7.204  0.5151 -1.3782  1.3308
16197SOL     OW50041   3.542   4.247   5.056 -0.2199  0.3962 -0.3006
16197SOL    HW150042   3.558   4.154   5.074 -1.1154  0.2778 -0.0674
16197SOL    HW250043   3.472   4.247   4.991 -0.0341  0.9127 -0.5102
16198SOL     OW50044   8.912   8.683   3.549  0.4170 -0.0851  0.3224
16198SOL    HW150045   8.830   8.701   3.596 -0.8864  0.5018 -2.0274
16198SOL    HW250046   8.969   8.757   3.569  0.4694 -0.5585  2.0821
16199SOL     OW50047   4.955   1.521   7.343 -0.1197 -0.4899 -0.3133
16199SOL    HW150048   4.951   1.441   7.396  2.4255  0.8060  2.1340
16199SOL    HW250049   4.883   1.575   7.376 -0.7857 -1.0858 -0.7698
16200SOL     OW50050   2.329   5.370   5.683 -0.4540 -0.3256 -0.3811
16200SOL    HW150051   2.372   5.296   5.726  1.1054 -0.1240 -1.5207
16200SOL    HW250052   2.281   5.332   5.610  0.7969 -0.1882 -1.3000
16201SOL     OW50053   5.593   4.675   5.153 -0.5793  0.1516 -0.9498
16201SOL    HW150054   5.527   4.667   5.083 -0.1590 -1.8751 -1.1792
16201SOL    HW250055   5.542   4.677   5.234 -1.0083  1.1505 -1.2255
16202SOL     OW50056   0.319   1.863   5.001  0.0633 -0.2113 -0.3680
16202SOL    HW150057   0.256   1.891   4.934  0.9686 -0.7878 -1.4823
16202SOL    HW250058   0.264   1.830   5.073 -0.9185 -0.4802 -1.2168
16203SOL     OW50059   0.329   3.387   4.543  0.2266  0.0151  0.5192
16203SOL    HW150060   0.291   3.310   4.500  1.4893 -0.3607  0.0454
16203SOL    HW250061   0.270   3.459   4.518 -0.4682 -0.6372  0.2319
16204SOL     OW50062   1.218   2.842   5.356  0.3100  0.1849  0.9808
16204SOL    HW150063   1.227   2.761   5.306  2.3904  0.4595  0.7893
16204SOL    HW250064   1.132   2.837   5.397  0.0289 -1.6891  0.2358
16205SOL     OW50065   1.283   2.846   8.592  0.9171 -0.3438 -0.3807
16205SOL    HW150066   1.344   2.904   8.637  0.9956  1.4682 -2.6615
16205SOL    HW250067   1.336   2.770   8.569  1.1338 -0.8281  1.5199
16206SOL     OW50068   0.189   5.110   2.357  0.0235 -0.0260 -0.0877
16206SOL    HW150069   0.129   5.037   2.342 -2.6073  2.2182 -1.4814
16206SOL    HW250070   0.197   5.115   2.453  0.8784 -2.4991  0.0375
16207SOL     OW50071   0.312   5.508   9.265  0.4441  0.1687 -0.5756
16207SOL    HW150072   0.393   5.559   9.258  0.2061  0.5498 -0.5651
16207SOL    HW250073   0.264   5.527   9.184 -0.0011  0.5771 -0.2143
16208SOL     OW50074   8.755   1.709   6.808  0.2200  0.0667 -0.2453
16208SOL    HW150075   8.709   1.768   6.747  0.5871  0.7696  0.1451
16208SOL    HW250076   8.686   1.674   6.864 -0.2229 -1.1167 -1.4763
16209SOL     OW50077   3.961   2.641   0.781 -0.1454 -0.0308 -0.0839
16209SOL    HW150078   3.900   2.674   0.846 -0.3900 -0.4613 -0.0930
16209SOL    HW250079   3.982   2.552   0.810  1.7017  0.6305  0.8041
16210SOL     OW50080   5.150   5.027   7.326 -0.5477  0.3249  0.4997
16210SOL    HW150081   5.166   5.015   7.420 -1.1901 -0.6103  0.5040
16210SOL    HW250082   5.111   4.945   7.298  0.4176  0.2823 -0.7829
16211SOL     OW50083   5.211   8.401   5.439  0.2294 -0.1139  0.3517
16211SOL    HW150084   5.187   8.452   5.516  1.4223  1.1796 -0.0837
16211SOL    HW250085   5.304   8.381   5.451 -0.0555 -1.6659  0.1924
16212SOL     OW50086   5.860   8.824   3.918  0.3587  0.0510 -0.0439
16212SOL    HW150087   5.915   8.902   3.917  0.5100  0.0403  2.3752
16212SOL    HW250088   5.905   8.763   3.977 -2.4123  0.2558  2.5199
16213SOL     OW50089   2.820   7.639   8.219  0.5473  0.0724  0.5433
16213SOL    HW150090   2.887   7.574   8.198 -0.1776 -0.3470 -0.5481
16213SOL    HW250091   2.751   7.589   8.262 -0.1675  0.0220 -0.6090
16214SOL     OW50092   2.533   6.291   0.956  0.2978  0.1449 -0.7147
16214SOL    HW150093   2.621   6.285   0.992  0.2450 -0.4185 -0.6790
16214SOL    HW250094   2.544   6.332   0.871  0.9487 -2.5156 -1.9899
16215SOL     OW50095   0.751   0.445   8.979 -0.4404 -0.0726  0.0224
16215SOL    HW150096   0.800   0.518   8.942 -1.8723  0.8256 -0.1865
16215SOL    HW250097   0.817   0.378   8.997  1.0615  1.6139  1.1172
16216SOL     OW50098   3.782   0.584   6.326 -0.0115  0.1694 -0.0963
16216SOL    HW150099   3.731   0.504   6.336 -0.1093  0.4214  2.0827
16216SOL    HW250100   3.807   0.587   6.234  0.7207 -2.7903 -0.0751
16217SOL     OW50101   0.201   5.316   4.097  0.2551 -0.3621  0.2505
16217SOL    HW150102   0.112   5.349   4.085  1.0269  1.6931 -0.3307
16217SOL    HW250103   0.196   5.258   4.173 -1.3382  0.7515  1.0402
16218SOL     OW50104   3.637   4.307   3.941 -0.6036  0.7141  0.1969
16218SOL    HW150105   3.556   4.339   3.901 -2.2596 -3.4840 -0.2403
16218SOL    HW250106   3.705   4.327   3.876 -2.3544 -1.0319 -2.3458
16219SOL     OW50107   4.825   0.801   1.076 -0.0160 -0.7266 -0.1492
16219SOL    HW150108   4.776   0.810   0.994 -0.8070 -2.7422  0.0427
16219SOL    HW250109   4.915   0.784   1.048 -0.0746 -0.3613 -0.5686
16220SOL     OW50110   2.259   1.847   4.578 -0.3196 -0.0267  0.0795
16220SOL    HW150111   2.321   1.917   4.598 -2.7625  2.4103 -0.1950
16220SOL    HW250112   2.257   1.793   4.656  1.1626  0.5736  0.5655
16221SOL     OW50113   1.923   0.060   1.119  0.0949 -0.5928  0.0345
16221SOL    HW150114   1.903   0.141   1.071 -0.2467 -0.9600 -0.4527
16221SOL    HW250115   1.867  -0.006   1.079 -1.5952 -0.5429  2.1976
16222SOL     OW50116   4.064   2.677   0.132  0.6062  0.2989 -0.0622
16222SOL    HW150117   4.065   2.754   0.189 -0.0407  0.3088 -0.0567
16222SOL    HW250118   4.033   2.606   0.189 -1.4389  0.5961 -0.7373
16223SOL     OW50119   2.838   2.949   9.168 -1.0055 -0.1076 -0.4064
16223SOL    HW150120   2.834   2.944   9.073  0.1222  0.2901 -0.4828
16223SOL    HW250121   2.747   2.942   9.196 -1.2536 -1.6447 -1.4345
16224SOL     OW50122   8.492   2.316   0.286 -0.0983 -0.8737 -0.3557
16224SOL    HW150123   8.426   2.341   0.351  0.1772  0.3926 -0.5434
16224SOL    HW250124   8.445   2.259   0.225 -1.1998  0.5152 -0.8478
16225SOL     OW50125   1.319   2.936   6.624  0.3175  0.0720 -0.2741
16225SOL    HW150126   1.310   2.866   6.560  0.1795 -1.2416  1.1252
16225SOL    HW250127   1.371   3.003   6.579 -2.1246  0.4908 -2.7238
16226SOL     OW50128   4.713   2.244   5.149 -0.8222  0.6803 -0.1844
16226SOL    HW150129   4.785   2.244   5.213 -1.8670  1.9865  1.0641
16226SOL    HW250130   4.731   2.168   5.094  1.7027  1.1650 -0.1654
16227SOL     OW50131   0.671   2.883   2.552  0.1260  0.3464  0.1933
16227SOL    HW150132   0.611   2.932   2.495 -0.6983  0.3508  1.0481
16227SOL    HW250133   0.641   2.903   2.641  1.0266 -0.1346  0.6094
16228SOL     OW50134   2.634   4.113   7.559 -0.1653  0.3098 -0.0416
16228SOL    HW150135   2.648   4.023   7.531  2.5514  1.0292 -1.3372
16228SOL    HW250136   2.566   4.147   7.501 -0.6308 -0.6303 -0.0640
16229SOL     OW50137   1.109   3.593   6.281  0.3193 -0.3590  0.0064
16229SOL    HW150138   1.154   3.672   6.312 -0.6722  0.3533 -0.2768
16229SOL    HW250139   1.177   3.527   6.275  0.8729 -0.0232  1.9153
16230SOL     OW50140   5.740   8.810   4.208  0.2478 -0.0108 -0.3950
16230SOL    HW150141   5.758   8.748   4.137  0.3062 -0.8003  0.2920
16230SOL    HW250142   5.805   8.789   4.275  0.0909  0.6124 -0.0442
16231SOL     OW50143   8.247   0.311   5.141 -0.5400  0.1123 -0.1609
16231SOL    HW150144   8.313   0.248   5.111 -1.2618 -0.2624 -1.0245
16231SOL    HW250145   8.166   0.281   5.100 -1.5882 -0.3163  2.0720
16232SOL     OW50146   6.701   7.137   6.611 -0.4680  0.3178 -0.5530
16232SOL    HW150147   6.765   7.171   6.673 -0.4966  1.3467 -1.0747
16232SOL    HW250148   6.689   7.045   6.637  1.1145  0.1348 -0.3863
16233SOL     OW50149   4.096   3.383   8.115  0.0926  0.5134  0.3047
16233SOL    HW150150   4.070   3.295   8.087 -0.4737  1.2000 -1.4618
16233SOL    HW250151   4.141   3.419   8.039 -2.5312  2.9005 -0.2816
16234SOL     OW50152   7.999   5.283   8.460 -0.0286 -0.0518  0.3101
16234SOL    HW150153   8.075   5.230   8.483  1.0448  1.8262  1.3838
16234SOL    HW250154   8.035   5.370   8.442 -1.7513  0.4577 -0.8993
16235SOL     OW50155   7.115   5.813   0.224 -0.0426 -0.1750 -0.3839
16235SOL    HW150156   7.142   5.892   0.272  0.7586 -1.0591  0.6572
16235SOL    HW250157   7.198   5.777   0.191 -0.2526 -1.2923  0.2810
16236SOL     OW50158   9.004   1.755   2.900  0.1647 -0.3388  0.0039
16236SOL    HW150159   9.062   1.795   2.966  1.6067 -0.2849 -1.2462
16236SOL    HW250160   8.964   1.829   2.855 -0.8742 -0.3761  0.8201
16237SOL     OW50161   1.611   7.996   5.716 -0.5468 -0.1648  0.0559
16237SOL    HW150162   1.546   7.998   5.787 -2.3509  0.1330 -1.5035
16237SOL    HW250163   1.574   8.054   5.650  1.8143  0.7278 -0.5430
16238SOL     OW50164   4.894   5.134   0.508 -0.2646 -0.5528  0.5983
16238SOL    HW150165   4.985   5.115   0.533 -0.0691 -0.1216  0.2372
16238SOL    HW250166   4.843   5.117   0.587  0.3145  0.6578  1.2577
16239SOL     OW50167   3.267   0.180   4.960  0.8399 -0.5469  0.7766
16239SOL    HW150168   3.251   0.136   4.877  1.5646  1.1379 -0.3226
16239SOL    HW250169   3.182   0.217   4.984  0.8450 -0.1698  0.2355
16240SOL     OW50170   5.089   6.706   0.560 -0.1300 -0.5241 -0.4981
16240SOL    HW150171   5.100   6.672   0.649  0.7464  0.5932 -0.1520
16240SOL    HW250172   5.171   6.752   0.542 -1.1166  1.0922 -1.0666
16241SOL     OW50173   1.777   0.079   2.709  0.2830 -0.1777  0.1369
16241SOL    HW150174   1.868   0.105   2.692 -0.8755  2.8819 -2.4655
16241SOL    HW250175   1.767   0.088   2.804  2.4433  0.2797  0.3814
16242SOL     OW50176   2.681   4.286   2.225  0.0225  0.2369  0.1329
16242SOL    HW150177   2.697   4.208   2.278  0.9286  0.8341  0.7700
16242SOL    HW250178   2.653   4.352   2.288  1.2797  1.0064 -0.0771
16243SOL     OW50179   5.076   6.260   2.342  0.8850 -0.6359  0.5343
16243SOL    HW150180   5.116   6.339   2.378  3.0990 -1.0066 -0.8890
16243SOL    HW250181   5.079   6.197   2.414  1.7939 -0.2646  0.8436
16244SOL     OW50182   6.389   3.697   4.123  0.0493 -0.8592  0.8741
16244SOL    HW150183   6.423   3.633   4.184 -1.5121 -0.9391  1.7273
16244SOL    HW250184   6.297   3.709   4.150  0.2052  1.4960  0.5663
16245SOL     OW50185   6.878   2.564   8.510 -0.4469 -0.2484  0.5661
16245SOL    HW150186   6.829   2.502   8.457  1.9040 -0.3739 -1.6698
16245SOL    HW250187   6.839   2.650   8.491 -0.6329 -0.4857 -0.1248
16246SOL     OW50188   4.335   6.864   8.789  0.2401  0.1701 -0.0557
16246SOL    HW150189   4.350   6.775   8.756 -0.2144 -0.4149  1.2609
16246SOL    HW250190   4.367   6.921   8.719  2.4003 -1.0088 -0.1020
16247SOL     OW50191   9.097   7.351   8.154  0.4584 -0.6861 -0.2906
16247SOL    HW150192   9.162   7.413   8.121  1.0260 -1.8697 -1.4715
16247SOL    HW250193   9.043   7.331   8.078 -0.0981 -1.1827  0.2305
16248SOL     OW50194   5.690   0.477   3.716  0.3326 -0.2772 -0.1103
16248SOL    HW150195   5.699   0.513   3.805 -1.5363 -1.7634  0.7389
16248SOL    HW250196   5.612   0.422   3.720  1.5888 -2.3364 -2.0528
16249SOL     OW50197   1.753   7.414   6.511  0.1112 -0.1275  0.0411
16249SOL    HW150198   1.723   7.504   6.501 -0.1423 -0.3899 -1.8612
16249SOL    HW250199   1.796   7.412   6.597  1.6625  2.2551 -0.6005
16250SOL     OW50200   1.477   2.613   6.243  0.6980  0.0125 -0.3254
16250SOL    HW150201   1.539   2.669   6.196  1.7789 -1.5636 -0.8440
16250SOL    HW250202   1.425   2.571   6.174  0.8010 -0.6281 -0.0217
16251SOL     OW50203   5.252   0.607   7.343  0.1307  0.6964 -0.5315
16251SOL    HW150204   5.225   0.627   7.433 -0.8612 -1.7311 -0.1942
16251SOL    HW250205   5.250   0.691   7.298 -1.1063  1.7208  1.2789
16252SOL     OW50206   5.449   0.473   2.886 -0.1434 -0.1180  0.0686
16252SOL    HW150207   5.362   0.444   2.914 -0.0954 -0.6717 -0.3531
16252SOL    HW250208   5.500   0.393   2.879  0.2899  0.1691 -0.0628
16253SOL     OW50209   0.790   7.047   4.715  0.1878  0.3120  0.5890
16253SOL    HW150210   0.873   7.011   4.746  0.8428  0.1031 -1.2682
16253SOL    HW250211   0.806   7.067   4.623 -1.7071  0.6941  0.3059
16254SOL     OW50212   2.699   8.034   1.955 -0.0692  0.3024 -0.6987
16254SOL    HW150213   2.604   8.027   1.952 -0.0849  0.6852 -1.0852
16254SOL    HW250214   2.729   7.943   1.955 -0.5341 -0.1389  4.1045
16255SOL     OW50215   7.085   2.005   8.269 -0.0801 -0.5842  0.2690
16255SOL    HW150216   7.142   1.964   8.204  1.7636  0.2129  1.3238
16255SOL    HW250217   7.104   1.960   8.351 -1.2695 -0.5612  0.5818
16256SOL     OW50218   4.562   2.135   0.968 -0.0749 -0.4172  0.4851
16256SOL    HW150219   4.497   2.177   1.025 -0.2543  1.3374 -0.9179
16256SOL    HW250220   4.645   2.146   1.016 -0.3301  0.3473  0.7694
16257SOL     OW50221   1.111   7.061   5.308 -0.6006  0.1817  0.3746
16257SOL    HW150222   1.110   6.970   5.277 -2.2164 -0.0703  1.0599
16257SOL    HW250223   1.051   7.107   5.250  0.3263  0.8676 -0.0637
16258SOL     OW50224   2.344   5.570   8.962 -0.1945 -0.2552  0.2612
16258SOL    HW150225   2.332   5.488   8.914  1.8161 -0.3133 -0.2372
16258SOL    HW250226   2.344   5.638   8.895  1.7341 -0.2490  0.2033
16259SOL     OW50227   2.667   6.836   1.926  0.1930 -0.0737  0.3885
16259SOL    HW150228   2.635   6.772   1.990 -1.9773  0.2193 -0.3127
16259SOL    HW250229   2.625   6.918   1.951  1.0326  0.5417 -0.1582
16260SOL     OW50230   5.349   2.036   5.279  0.3835  0.1416 -0.7855
16260SOL    HW150231   5.355   1.985   5.198  1.2306  1.8945 -1.8826
16260SOL    HW250232   5.324   2.124   5.250  1.0226  0.8940  0.8291
16261SOL     OW50233   7.984   6.143   6.194 -0.0948  0.3601  0.1450
16261SOL    HW150234   7.963   6.053   6.220 -1.5389  0.7362  0.4192
16261SOL    HW250235   8.045   6.174   6.261  0.1976 -0.3229  0.2023
16262SOL     OW50236   3.904   8.183   4.932 -0.1655 -0.3032  0.5541
16262SOL    HW150237   3.984   8.158   4.979  0.1594 -0.1905  0.0787
16262SOL    HW250238   3.833   8.147   4.984  0.1620  0.2316  1.3832
16263SOL     OW50239   4.996   7.818   4.507  0.2240 -0.5571 -0.0443
16263SOL    HW150240   4.991   7.755   4.579  1.3628 -1.7730 -0.9630
16263SOL    HW250241   4.925   7.880   4.523 -0.5276 -1.7063  1.2554
16264SOL     OW50242   2.202   4.595   3.321  0.2810  0.3395 -0.2007
16264SOL    HW150243   2.108   4.585   3.336  0.3941 -0.1420  0.1935
16264SOL    HW250244   2.216   4.563   3.231  0.3114 -1.1323  0.3037
16265SOL     OW50245   5.705   8.602   1.056 -0.0624  0.5794 -0.2317
16265SOL    HW150246   5.640   8.623   1.123  0.5522  0.6251  0.3632
16265SOL    HW250247   5.761   8.680   1.052 -1.2474  1.4196 -2.2360
16266SOL     OW50248   0.723   1.169   8.741  0.2258  0.0112 -0.2790
16266SOL    HW150249   0.715   1.108   8.667 -1.0948 -0.6937  0.3933
16266SOL    HW250250   0.817   1.172   8.759  0.3053 -2.5928  0.2287
16267SOL     OW50251   4.519   8.218   4.908  0.3339  0.4127  0.7031
16267SOL    HW150252   4.510   8.135   4.955  0.3950  0.2279  0.3886
16267SOL    HW250253   4.604   8.252   4.934 -0.3395  1.1517  2.0665
16268SOL     OW50254   1.556   0.461   5.479 -0.4269  0.0168 -0.4309
16268SOL    HW150255   1.513   0.546   5.479 -0.2488  0.1071 -0.5725
16268SOL    HW250256   1.500   0.406   5.425 -0.2803  0.1783 -0.7496
16269SOL     OW50257   4.700   8.667   8.927  0.3264  0.3942 -0.2095
16269SOL    HW150258   4.699   8.759   8.951 -0.0168  0.9185 -2.0710
16269SOL    HW250259   4.792   8.647   8.911  0.5336  0.0907  1.2570
16270SOL     OW50260   0.676   7.231   5.652 -0.1251  0.2376 -0.1956
16270SOL    HW150261   0.629   7.148   5.638  0.8308 -0.2470 -0.6173
16270SOL    HW250262   0.767   7.210   5.633  0.1271  1.4032 -0.3173
16271SOL     OW50263   3.966   4.016   4.239 -0.4660 -0.0265  0.2136
16271SOL    HW150264   3.882   3.988   4.204 -2.2387  3.5197  1.2373
16271SOL    HW250265   3.948   4.038   4.331  2.0957 -1.0382  1.0545
16272SOL     OW50266   5.206   6.403   2.532  0.0596 -0.9144  0.0605
16272SOL    HW150267   5.235   6.355   2.610 -1.9769 -0.3959  1.1901
16272SOL    HW250268   5.254   6.486   2.535  0.1142 -0.9665  0.6629
16273SOL     OW50269   2.825   6.512   6.968 -0.5571  0.1103  0.3115
16273SOL    HW150270   2.811   6.535   6.876 -1.3647  0.7401  0.5730
16273SOL    HW250271   2.743   6.535   7.011  0.7296  2.5811  1.6917
16274SOL     OW50272   6.479   1.276   3.110 -0.2732  0.8506 -0.8180
16274SOL    HW150273   6.489   1.366   3.080  0.2825  1.0042 -0.1860
16274SOL    HW250274   6.411   1.239   3.053  1.3370  0.8611 -2.8409
16275SOL     OW50275   7.157   3.986   9.132 -0.5893  0.1718 -0.5734
16275SOL    HW150276   7.124   4.040   9.061  1.5688 -1.2420 -2.7986
16275SOL    HW250277   7.191   3.907   9.090  2.1658 -0.0974  1.7986
16276SOL     OW50278   2.616   1.137   7.539 -0.9677  0.0235 -0.2102
16276SOL    HW150279   2.523   1.160   7.542 -0.7951  1.2188 -2.2154
16276SOL    HW250280   2.658   1.212   7.497  0.7756 -0.8463 -0.0948
16277SOL     OW50281   7.985   4.241   9.227 -0.2424  0.0315  0.5500
16277SOL    HW150282   7.959   4.186   9.301  3.3817 -2.8676 -0.0563
16277SOL    HW250283   8.052   4.299   9.263  0.8913 -0.7740 -0.2240
16278SOL     OW50284   6.739   5.234   7.422  0.2670  0.2076  0.8415
16278SOL    HW150285   6.725   5.177   7.498 -0.1739  1.6628  1.8716
16278SOL    HW250286   6.763   5.319   7.459  2.1678  0.4190 -0.6790
16279SOL     OW50287   4.717   2.256   0.698 -0.1088 -0.0336  0.6381
16279SOL    HW150288   4.672   2.226   0.777  1.5687  0.7578  1.9584
16279SOL    HW250289   4.702   2.350   0.696  0.6741  0.0998  0.5807
16280SOL     OW50290   2.028   1.961   1.670 -0.2568  0.3608  0.0863
16280SOL    HW150291   1.977   1.954   1.750 -1.8103  1.2097 -0.7682
16280SOL    HW250292   2.119   1.964   1.699 -0.6975 -0.6939  1.7026
16281SOL     OW50293   4.303   1.440   5.769  0.3422 -0.7652  1.0846
16281SOL    HW150294   4.213   1.421   5.794 -0.8595  0.9912 -1.4837
16281SOL    HW250295   4.305   1.535   5.756  2.8136 -0.6425  1.7881
16282SOL     OW50296   1.445   7.747   0.016  0.5026  0.3533 -0.7039
16282SOL    HW150297   1.406   7.743  -0.072  0.3623  3.4246 -0.8771
16282SOL    HW250298   1.446   7.840   0.038  0.9752 -0.2696  2.3975
16283SOL     OW50299   8.560   1.055   4.382 -0.4758 -0.1545  0.0862
16283SOL    HW150300   8.642   1.043   4.334  0.3177 -0.5029  1.4434
16283SOL    HW250301   8.494   1.009   4.330  0.1516  0.2813 -1.1256
16284SOL     OW50302   1.549   5.530   1.069  0.0409  0.3008  0.4483
16284SOL    HW150303   1.575   5.622   1.061 -1.1820  0.6835  0.6542
16284SOL    HW250304   1.492   5.516   0.994  0.0622 -0.2353  0.5344
16285SOL     OW50305   1.774   3.076   2.293 -0.0554 -0.0744 -0.0044
16285SOL    HW150306   1.746   3.077   2.201 -0.7894  0.6665  0.2191
16285SOL    HW250307   1.835   3.002   2.298  0.8749  0.5654 -1.3443
16286SOL     OW50308   5.342   7.041   3.369 -0.1940  0.4106 -0.0238
16286SOL    HW150309   5.270   7.084   3.323  0.9837  1.6624 -0.7155
16286SOL    HW250310   5.386   7.111   3.416  0.4837 -0.3782  0.5410
16287SOL     OW50311   5.632   7.399   4.174  0.1989  0.0569  0.3592
16287SOL    HW150312   5.632   7.489   4.142 -0.1869 -0.3458 -0.8606
16287SOL    HW250313   5.543   7.368   4.158  0.6121 -0.8692 -0.2774
16288SOL     OW50314   6.458   0.131   7.963  0.4715 -0.1686 -0.2666
16288SOL    HW150315   6.406   0.053   7.982  0.2540  0.0700  0.1324
16288SOL    HW250316   6.522   0.102   7.898  0.9233 -0.8718  0.4868
16289SOL     OW50317   2.466   2.581   9.007  0.5433  0.0956  0.0393
16289SOL    HW150318   2.509   2.622   8.932  0.2504 -1.5382 -1.0661
16289SOL    HW250319   2.373   2.596   8.994  0.5138  0.1829  0.3268
16290SOL     OW50320   2.323   8.837   2.712 -0.1566  0.2948 -0.3337
16290SOL    HW150321   2.235   8.817   2.680 -1.0445  0.7821  1.6430
16290SOL    HW250322   2.381   8.803   2.644 -1.7413 -3.3054 -0.1150
16291SOL     OW50323   2.539   6.808   0.193  0.1199  0.5038  0.6656
16291SOL    HW150324   2.611   6.764   0.236 -0.5035 -0.2437  0.9763
16291SOL    HW250325   2.516   6.751   0.120  0.8747  1.5333 -0.4143
16292SOL     OW50326   4.665   5.298   2.986 -0.4149  0.1188  0.4863
16292SOL    HW150327   4.602   5.287   3.057 -1.6267 -0.9996 -0.6932
16292SOL    HW250328   4.747   5.263   3.020 -1.5002 -2.5010  0.6450
16293SOL     OW50329   1.474   4.496   2.369  0.6081 -0.7469  0.0612
16293SOL    HW150330   1.547   4.550   2.338 -0.6907  1.6696  0.8967
16293SOL    HW250331   1.471   4.513   2.463 -0.2145 -1.8987  0.2588
16294SOL     OW50332   4.259   0.218   8.399 -0.4881  0.1562  0.8655
16294SOL    HW150333   4.316   0.153   8.359 -1.3807  0.4305 -0.9255
16294SOL    HW250334   4.313   0.297   8.407 -0.3405  0.1404  0.0456
16295SOL     OW50335   8.628   8.636   5.054  0.1535  0.0679 -0.6356
16295SOL    HW150336   8.674   8.702   5.107 -0.2591  0.6508 -1.0000
16295SOL    HW250337   8.540   8.672   5.042  0.1266 -0.2455 -1.3947
16296SOL     OW50338   0.425   6.161   0.080  0.0760  0.2957 -0.4108
16296SOL    HW150339   0.391   6.110   0.153  0.3714 -0.2892 -0.6726
16296SOL    HW250340   0.413   6.252   0.106 -0.8419  0.1031 -0.1099
16297SOL     OW50341   3.599   3.298   1.229  0.3534 -0.3124  0.3431
16297SOL    HW150342   3.643   3.323   1.148  0.9913 -1.6706  0.2433
16297SOL    HW250343   3.649   3.341   1.298  0.3213  0.1658  0.0704
16298SOL     OW50344   9.039   1.284   1.576 -0.2027  0.2355 -0.1288
16298SOL    HW150345   9.055   1.375   1.553  1.7247  0.4704  1.7941
16298SOL    HW250346   9.108   1.262   1.639  0.1469 -2.9200 -1.3962
16299SOL     OW50347   9.168   2.764   7.477  0.1487  0.0389 -0.3711
16299SOL    HW150348   9.258   2.736   7.462 -0.5580 -2.3334 -0.5136
16299SOL    HW250349   9.149   2.737   7.566 -0.2308  1.1372 -0.1070
16300SOL     OW50350   4.764   6.024   8.434 -0.0241 -0.2199  0.0049
16300SOL    HW150351   4.685   6.066   8.400 -0.6494 -2.9639 -2.2491
16300SOL    HW250352   4.836   6.076   8.398 -0.6976  2.0500  1.7257
16301SOL     OW50353   6.499   7.537   0.800  0.2224  0.0961 -0.7890
16301SOL    HW150354   6.484   7.596   0.874  2.6725  1.5814 -1.3489
16301SOL    HW250355   6.451   7.578   0.728  0.9667  0.8095 -0.8957
16302SOL     OW50356   2.609   6.444   7.356  0.0563 -0.4364  0.2502
16302SOL    HW150357   2.650   6.362   7.328  1.1566  0.2548 -0.2378
16302SOL    HW250358   2.546   6.418   7.424  1.0080 -1.5880  0.7241
16303SOL     OW50359   0.989   1.200   1.813 -0.0054  0.5388  0.5570
16303SOL    HW150360   1.068   1.153   1.786  0.6852  1.2874  1.2284
16303SOL    HW250361   0.981   1.272   1.750 -0.7677 -0.1313 -0.1500
16304SOL     OW50362   1.344   7.433   6.760 -0.7242  0.0698  0.2201
16304SOL    HW150363   1.381   7.395   6.680 -0.8686 -0.2798  0.3200
16304SOL    HW250364   1.268   7.378   6.780 -2.9346  2.2766 -1.4520
16305SOL     OW50365   5.293   7.124   4.977 -0.1239 -0.0465  0.5210
16305SOL    HW150366   5.215   7.135   4.923  1.4942  2.5740 -1.5308
16305SOL    HW250367   5.293   7.201   5.035  1.6524  0.8384 -0.5837
16306SOL     OW50368   6.452   0.340   7.468  0.4452  0.0190  0.4715
16306SOL    HW150369   6.360   0.330   7.443 -0.0258 -0.5770  2.2628
16306SOL    HW250370   6.482   0.251   7.482  1.2545  0.2253  0.0623
16307SOL     OW50371   2.281   6.219   2.329  0.6232 -0.0224 -0.4223
16307SOL    HW150372   2.249   6.184   2.246  0.3405  1.6164 -1.0344
16307SOL    HW250373   2.232   6.171   2.395 -0.8877  0.2876 -1.2757
16308SOL     OW50374   2.133   1.266   1.611  0.2426  0.0910  0.0280
16308SOL    HW150375   2.099   1.218   1.686  0.7368  1.7870  1.3908
16308SOL    HW250376   2.148   1.199   1.544 -0.4744 -1.4196  1.3325
16309SOL     OW50377   8.057   5.474   7.881  0.2819 -0.0349 -0.0432
16309SOL    HW150378   7.999   5.547   7.902 -0.7417  0.7533 -4.5108
16309SOL    HW250379   8.001   5.396   7.887 -0.4312  0.3551 -1.2049
16310SOL     OW50380   6.769   7.858   4.295 -0.6086 -0.7355  0.9257
16310SOL    HW150381   6.718   7.938   4.311 -0.2669  0.1961 -2.0926
16310SOL    HW250382   6.709   7.801   4.247 -0.1435 -1.4196  1.1400
16311SOL     OW50383   1.464   0.899   4.762  0.0567  0.1670 -0.1471
16311SOL    HW150384   1.441   0.975   4.708  0.5555  0.9418  0.7138
16311SOL    HW250385   1.560   0.895   4.759 -0.0091 -1.4032 -1.4775
16312SOL     OW50386   6.971   3.964   6.706 -0.0301  0.0090  0.6213
16312SOL    HW150387   6.879   3.967   6.732 -0.5281  1.1093 -1.1257
16312SOL    HW250388   6.970   3.922   6.620  1.4048 -2.2750  1.6142
16313SOL     OW50389   1.588   4.888   7.436 -0.3815  0.7910 -0.5739
16313SOL    HW150390   1.672   4.884   7.389 -0.9293  0.1981 -1.5235
16313SOL    HW250391   1.607   4.852   7.522 -0.0796 -1.2513 -1.4373
16314SOL     OW50392   6.382   4.092   5.650 -0.2522 -0.6243 -0.6985
16314SOL    HW150393   6.364   4.027   5.718 -0.9914 -2.5276 -2.5770
16314SOL    HW250394   6.450   4.051   5.595 -0.5158  0.3068 -1.7599
16315SOL     OW50395   8.167   5.128   1.668  0.0896 -0.7269 -0.3983
16315SOL    HW150396   8.098   5.180   1.710 -0.4024 -2.5767  1.2294
16315SOL    HW250397   8.173   5.164   1.579 -2.7672 -0.2695 -0.5083
16316SOL     OW50398   6.466   6.974   5.099  0.0557  0.0544  0.5792
16316SOL    HW150399   6.473   7.003   5.008  0.6344  0.7469  0.8455
16316SOL    HW250400   6.508   6.887   5.100 -0.5585 -0.2573  0.0526
16317SOL     OW50401   2.318   1.920   1.583  0.1897 -0.4497  0.4875
16317SOL    HW150402   2.361   1.854   1.530 -2.1702 -0.2530 -1.8850
16317SOL    HW250403   2.359   2.003   1.557  1.7331 -0.6854  1.9702
16318SOL     OW50404   9.098   7.042   3.053 -0.3032 -0.1977  0.3308
16318SOL    HW150405   9.166   6.995   3.006  0.9142  0.0666  1.7425
16318SOL    HW250406   9.112   7.019   3.145 -1.0602  1.1700  0.8220
16319SOL     OW50407   5.340   6.105   6.546  0.0088 -0.2658  0.0593
16319SOL    HW150408   5.268   6.167   6.535  0.2589 -0.1594 -1.2277
16319SOL    HW250409   5.407   6.136   6.485  1.8610  0.5897  2.3941
16320SOL     OW50410   7.468   9.220   0.264 -0.5081 -0.0951 -0.0390
16320SOL    HW150411   7.492   9.255   0.179 -1.8959  0.7219 -0.1262
16320SOL    HW250412   7.431   9.295   0.311  1.4835 -0.1728  1.8263
16321SOL     OW50413   2.969   8.963   2.449  0.1258 -0.1210 -0.2231
16321SOL    HW150414   3.058   8.938   2.423  0.2123  0.0734 -0.1199
16321SOL    HW250415   2.976   8.979   2.543 -0.3224 -1.4259  0.0556
16322SOL     OW50416   8.256   3.477   6.698 -0.1889  0.2751  0.3883
16322SOL    HW150417   8.173   3.431   6.710 -0.7441  1.1191 -0.0521
16322SOL    HW250418   8.319   3.409   6.676 -1.2742 -0.1394 -1.6131
16323SOL     OW50419   8.620   6.259   8.750  0.0415 -0.3097 -0.3422
16323SOL    HW150420   8.603   6.334   8.693  0.2650 -1.0707 -1.4574
16323SOL    HW250421   8.539   6.207   8.746 -0.0277 -0.2550  0.2340
16324SOL     OW50422   5.169   4.024   5.763  0.1893 -0.0623 -0.0058
16324SOL    HW150423   5.191   4.114   5.738  1.0861 -0.3152 -0.1454
16324SOL    HW250424   5.133   3.985   5.684 -3.0142  1.0039  0.7583
16325SOL     OW50425   1.551   4.196   8.215 -0.1370  0.1359 -0.1103
16325SOL    HW150426   1.534   4.107   8.246  0.8488 -0.2525 -0.6609
16325SOL    HW250427   1.633   4.221   8.257 -0.6154  0.9706  0.3820
16326SOL     OW50428   8.454   6.241   5.210  0.5754 -0.5806  0.1189
16326SOL    HW150429   8.400   6.283   5.277 -0.0660 -1.1570 -0.0247
16326SOL    HW250430   8.534   6.294   5.206 -0.2101  0.6243 -0.0501
16327SOL     OW50431   7.636   6.370   4.735 -0.6347  0.6923 -0.0526
16327SOL    HW150432   7.598   6.325   4.811  0.9696 -1.2243 -0.2852
16327SOL    HW250433   7.581   6.343   4.661  0.3070 -1.0211 -0.1899
16328SOL     OW50434   7.653   6.492   2.238  0.2905 -0.1492  0.6641
16328SOL    HW150435   7.678   6.404   2.264 -2.0924 -1.0850  0.0595
16328SOL    HW250436   7.702   6.550   2.297  3.1787 -1.7471 -0.0143
16329SOL     OW50437   7.649   4.349   0.415 -0.4260 -0.7232  0.7645
16329SOL    HW150438   7.724   4.330   0.472 -1.1475  0.0034  2.0023
16329SOL    HW250439   7.684   4.408   0.348  0.2738 -0.9990  0.8764
16330SOL     OW50440   7.286   1.737   1.438  0.4741 -0.3400  0.0650
16330SOL    HW150441   7.195   1.744   1.467  0.6047  0.1247  0.3876
16330SOL    HW250442   7.291   1.653   1.393  0.2935 -1.1636  1.5377
16331SOL     OW50443   6.668   6.406   3.441  0.1127 -0.7444  0.0574
16331SOL    HW150444   6.585   6.429   3.485 -0.2800 -0.8854 -0.6026
16331SOL    HW250445   6.686   6.317   3.469 -0.9648 -1.4165 -1.2793
16332SOL     OW50446   1.387   3.646   6.001 -0.3359 -0.0320 -0.2092
16332SOL    HW150447   1.340   3.598   6.070 -1.9503 -1.0544 -1.9307
16332SOL    HW250448   1.342   3.730   5.995 -1.4511 -0.6793 -1.2701
16333SOL     OW50449   1.616   5.820   1.672  0.2755  0.4272  0.8435
16333SOL    HW150450   1.690   5.868   1.634  0.8402  0.2694  1.6984
16333SOL    HW250451   1.575   5.775   1.598 -0.3329  2.2709 -0.0194
16334SOL     OW50452   8.281   4.975   6.553  0.0011  0.6501  0.1097
16334SOL    HW150453   8.295   5.069   6.567  0.6385  0.5633  0.0688
16334SOL    HW250454   8.289   4.963   6.459  0.1357  0.5186  0.1380
16335SOL     OW50455   0.963   4.588   8.182 -0.6772  0.1087 -0.2048
16335SOL    HW150456   0.936   4.673   8.147  0.3783  0.0301 -1.2708
16335SOL    HW250457   1.050   4.605   8.219 -1.0187 -0.2243  0.7746
16336SOL     OW50458   1.761   9.095   6.130 -0.9665  0.3602 -0.1042
16336SOL    HW150459   1.810   9.064   6.206  0.2168 -0.5508 -1.2017
16336SOL    HW250460   1.679   9.046   6.133 -0.6532 -0.1604  0.2230
16337SOL     OW50461   1.523   7.241   3.584  0.2301  0.7688 -0.4146
16337SOL    HW150462   1.435   7.277   3.600  0.0703  1.1247 -1.9788
16337SOL    HW250463   1.517   7.201   3.498  0.8122 -1.8732  0.6796
16338SOL     OW50464   4.185   8.216   0.503  0.7047  0.6233 -0.5582
16338SOL    HW150465   4.256   8.153   0.494 -0.7489 -0.8175 -3.0968
16338SOL    HW250466   4.175   8.228   0.597  1.1678 -2.8484  0.0507
16339SOL     OW50467   4.465   3.773   8.266  0.3568 -0.2691 -0.2398
16339SOL    HW150468   4.551   3.765   8.307 -0.7486  0.1073  2.3326
16339SOL    HW250469   4.457   3.695   8.211  1.0779 -2.0474  2.0343
16340SOL     OW50470   5.028   8.363   9.178  0.0642 -0.5391 -0.1222
16340SOL    HW150471   5.052   8.284   9.130  1.4509 -0.0371 -0.2945
16340SOL    HW250472   4.993   8.422   9.111  0.0055 -0.6204 -0.1629
16341SOL     OW50473   3.883   1.138   6.412 -0.1470  0.0865 -0.1654
16341SOL    HW150474   3.876   1.044   6.399  0.1535  0.0895 -0.3698
16341SOL    HW250475   3.947   1.149   6.482 -2.0072  0.0615  1.6427
16342SOL     OW50476   7.324   1.296   3.837 -0.4896  0.0823 -0.3728
16342SOL    HW150477   7.315   1.211   3.794  0.0818  1.2173 -2.9905
16342SOL    HW250478   7.238   1.312   3.877 -1.9078 -0.2080 -3.0337
16343SOL     OW50479   0.199   0.600   4.719 -0.2383 -0.4136 -0.1316
16343SOL    HW150480   0.217   0.689   4.689 -0.0024 -0.9572 -1.7126
16343SOL    HW250481   0.109   0.604   4.753  0.2396  0.7060  1.1145
16344SOL     OW50482   2.639   2.539   7.663 -0.2416 -0.2558 -0.0368
16344SOL    HW150483   2.715   2.481   7.666  1.5089  1.9295 -0.1137
16344SOL    HW250484   2.612   2.538   7.571  0.5761  0.0268 -0.2870
16345SOL     OW50485   8.119   3.387   3.916 -0.0166 -0.1447  0.1657
16345SOL    HW150486   8.120   3.353   4.006 -2.5206  1.0725  0.7150
16345SOL    HW250487   8.105   3.309   3.862  0.3523 -0.7358  0.8924
16346SOL     OW50488   5.316   4.915   4.039  0.1833 -0.5716 -0.0363
16346SOL    HW150489   5.293   4.957   4.121  1.0151  0.2651 -0.2151
16346SOL    HW250490   5.252   4.949   3.976  2.2511  2.4572 -0.7378
16347SOL     OW50491   5.443   5.758   8.001 -0.0159  0.0355  0.2028
16347SOL    HW150492   5.413   5.837   8.045  0.7213  1.1210 -1.1850
16347SOL    HW250493   5.519   5.730   8.052 -0.1080  0.3732  0.5325
16348SOL     OW50494   7.333   0.761   6.583  0.1518 -0.5726  0.1163
16348SOL    HW150495   7.314   0.818   6.508 -0.9068 -2.3700 -1.0510
16348SOL    HW250496   7.418   0.722   6.563  0.8477  0.4820  0.8872
16349SOL     OW50497   6.142   8.766   0.218  0.1653  0.4330 -0.6622
16349SOL    HW150498   6.156   8.842   0.274  0.6147  0.0108 -0.1905
16349SOL    HW250499   6.078   8.713   0.266  0.9044 -0.1577 -0.3089
16350SOL     OW50500   4.001   5.730   1.638 -0.7460  0.5440 -0.0902
16350SOL    HW150501   3.939   5.794   1.606 -1.5473 -0.4322 -0.5530
16350SOL    HW250502   4.003   5.662   1.571  0.1130  0.1042  0.3592
16351SOL     OW50503   6.861   2.933   2.813 -0.1052  0.2677 -0.2975
16351SOL    HW150504   6.847   2.848   2.771  0.8961  1.9589 -4.5364
16351SOL    HW250505   6.773   2.968   2.826 -0.4942 -0.9962  0.7231
16352SOL     OW50506   5.438   8.606   3.780  0.3837 -0.3049  0.5311
16352SOL    HW150507   5.429   8.696   3.749 -0.2597 -1.5814 -3.6211
16352SOL    HW250508   5.357   8.564   3.752  0.7194 -2.2391  2.2751
16353SOL     OW50509   3.218   5.452   5.344  0.0386 -0.2192  0.1731
16353SOL    HW150510   3.243   5.368   5.383 -1.3332 -0.5789  0.3101
16353SOL    HW250511   3.123   5.447   5.334 -0.4533  2.2594  2.5167
16354SOL     OW50512   0.872   3.718   8.013 -0.1666  0.0272  0.5603
16354SOL    HW150513   0.787   3.676   8.028 -0.3184 -0.0457 -0.3959
16354SOL    HW250514   0.851   3.794   7.959  0.3231  0.2674  0.7111
16355SOL     OW50515   3.379   6.069   6.556 -0.0950 -0.6628 -0.1709
16355SOL    HW150516   3.306   6.041   6.611 -0.8087 -0.0725 -0.8006
16355SOL    HW250517   3.343   6.140   6.502  0.8202 -0.6590 -0.8006
16356SOL     OW50518   8.508   2.094   8.677  0.8518 -0.6972 -0.0692
16356SOL    HW150519   8.580   2.031   8.679  1.7786  0.2170 -2.0222
16356SOL    HW250520   8.530   2.158   8.746  1.7055 -0.6554 -0.3671
16357SOL     OW50521   3.314   4.922   0.997 -0.1845  0.2907 -0.2586
16357SOL    HW150522   3.298   4.830   1.017  1.5973  0.3354  1.8357
16357SOL    HW250523   3.253   4.970   1.053 -0.4386  0.3803 -0.6143
16358SOL     OW50524   3.417   1.776   9.229 -0.0507  0.3157 -0.2495
16358SOL    HW150525   3.484   1.826   9.182  1.1554 -0.9000  0.1192
16358SOL    HW250526   3.466   1.708   9.275 -1.5633 -0.6540 -0.0240
16359SOL     OW50527   4.958   8.263   8.509 -0.5511 -0.1731  0.5848
16359SOL    HW150528   4.975   8.347   8.552  0.3425  0.5286 -1.0490
16359SOL    HW250529   4.971   8.281   8.416 -0.6404 -2.0598  0.1724
16360SOL     OW50530   0.933   2.344   4.045  0.5548 -0.2213  0.4642
16360SOL    HW150531   0.925   2.387   3.960  2.3582  1.1710  0.9408
16360SOL    HW250532   0.962   2.413   4.105 -1.9506 -0.8177  2.5815
16361SOL     OW50533   2.967   8.673   3.687 -0.2668  0.3018 -0.1757
16361SOL    HW150534   3.000   8.636   3.605  0.5479 -0.3043  0.4010
16361SOL    HW250535   2.963   8.598   3.747  0.8490  1.0158  0.8450
16362SOL     OW50536   4.032   1.789   8.697  0.9999 -0.0250  0.8759
16362SOL    HW150537   3.951   1.746   8.668  1.4856  0.6927 -1.8166
16362SOL    HW250538   4.095   1.717   8.705  0.6615 -0.3365  0.8192
16363SOL     OW50539   6.431   2.723   4.720 -0.3269 -0.2369 -0.5227
16363SOL    HW150540   6.475   2.692   4.799 -0.5220 -0.7976 -0.6306
16363SOL    HW250541   6.475   2.805   4.698 -2.0612  1.4273  1.7313
16364SOL     OW50542   1.315   6.319   3.870 -0.6117 -0.1650  0.4032
16364SOL    HW150543   1.308   6.410   3.900  0.7533  0.3997 -0.8474
16364SOL    HW250544   1.343   6.271   3.947 -1.7093  0.3853  1.1824
16365SOL     OW50545   2.505   2.130   5.356 -0.3865 -0.6487  0.3387
16365SOL    HW150546   2.456   2.050   5.337 -1.1946 -0.2525  0.6858
16365SOL    HW250547   2.487   2.188   5.282  0.5602 -0.9444 -0.1306
16366SOL     OW50548   6.730   8.578   2.286  0.5249  0.0276  0.3608
16366SOL    HW150549   6.634   8.579   2.293  0.5589  0.6625  0.8184
16366SOL    HW250550   6.754   8.488   2.309  0.0711  0.0114  0.8083
16367SOL     OW50551   5.837   4.832   2.232 -0.1935 -0.1244  0.4177
16367SOL    HW150552   5.849   4.903   2.168 -0.8215 -0.8569 -0.5441
16367SOL    HW250553   5.760   4.785   2.201 -1.7160  0.6150  2.7986
16368SOL     OW50554   8.323   4.754   5.221  0.6134 -0.1018 -0.2793
16368SOL    HW150555   8.388   4.687   5.201  1.1433  0.6458 -1.1152
16368SOL    HW250556   8.370   4.819   5.274  0.7143  0.7014 -1.3190
16369SOL     OW50557   5.393   6.670   5.370  0.1713  0.1898 -0.0409
16369SOL    HW150558   5.482   6.671   5.336 -0.4394  1.3489 -1.7670
16369SOL    HW250559   5.364   6.761   5.365 -1.2234 -0.2108  0.1757
16370SOL     OW50560   4.349   8.781   0.618 -0.1403  0.1290 -0.2336
16370SOL    HW150561   4.298   8.756   0.695 -1.5537  1.2102 -0.7644
16370SOL    HW250562   4.406   8.706   0.602 -0.4744 -0.5001  1.3070
16371SOL     OW50563   5.329   3.631   1.692  0.6394  0.3616  0.2662
16371SOL    HW150564   5.317   3.573   1.617 -2.2772 -2.0365  2.3513
16371SOL    HW250565   5.256   3.692   1.687  1.3001  1.1869  0.4016
16372SOL     OW50566   5.324   1.600   5.117  0.0731  0.2951 -0.3896
16372SOL    HW150567   5.308   1.522   5.170  0.3731  0.5009  0.0090
16372SOL    HW250568   5.352   1.565   5.032 -0.4305 -0.0349 -0.4221
16373SOL     OW50569   9.103   5.964   2.047  0.5233 -0.4515  0.1206
16373SOL    HW150570   9.134   5.907   1.976  0.1594  0.7784 -1.0689
16373SOL    HW250571   9.164   5.948   2.119  0.6336 -2.0720 -0.2985
16374SOL     OW50572   3.064   4.563   6.864  0.0969  0.6434  0.1755
16374SOL    HW150573   3.122   4.529   6.797  0.5552  0.0264  0.8695
16374SOL    HW250574   3.062   4.658   6.848 -1.2036  0.3386 -1.7693
16375SOL     OW50575   5.981   7.193   0.017  0.1456  0.4340  0.2174
16375SOL    HW150576   5.910   7.183   0.081  0.6305  0.9726  0.8480
16375SOL    HW250577   5.939   7.178  -0.068 -0.8155  1.1323  0.5500
16376SOL     OW50578   1.513   5.368   8.518 -0.4832  0.3455 -0.1688
16376SOL    HW150579   1.555   5.399   8.599  1.1747  1.0723 -1.2376
16376SOL    HW250580   1.434   5.323   8.547  0.4061  0.0053  1.8943
16377SOL     OW50581   5.434   7.886   0.536  0.1653 -0.5387  0.3733
16377SOL    HW150582   5.450   7.949   0.607  0.9529 -1.5213  1.1002
16377SOL    HW250583   5.489   7.916   0.464 -0.0474  0.0414  0.4534
16378SOL     OW50584   6.362   0.801   8.822  0.0540  0.5997 -0.0615
16378SOL    HW150585   6.380   0.799   8.728 -3.0290  2.1812 -0.8191
16378SOL    HW250586   6.435   0.852   8.858  0.0750  2.1096 -2.0091
16379SOL     OW50587   6.570   2.083   2.282 -0.2633  0.0726 -0.3450
16379SOL    HW150588   6.487   2.070   2.236 -0.5401  1.4368 -0.2916
16379SOL    HW250589   6.598   2.171   2.256 -0.6811  1.1330  2.3847
16380SOL     OW50590   5.852   6.598   5.563  0.2655 -0.5777  0.1140
16380SOL    HW150591   5.854   6.503   5.564  2.0226 -0.5764  0.9090
16380SOL    HW250592   5.834   6.622   5.654 -1.8718 -0.1010 -0.3636
16381SOL     OW50593   4.657   4.335   6.023  0.1563 -0.4645  0.3821
16381SOL    HW150594   4.637   4.352   6.115  1.3538 -0.0708  0.5840
16381SOL    HW250595   4.747   4.302   6.023 -0.1500 -1.3628 -0.5682
16382SOL     OW50596   6.376   8.666   9.085  0.3798  0.4832 -0.3704
16382SOL    HW150597   6.297   8.612   9.092  0.1973  0.7460 -0.3791
16382SOL    HW250598   6.406   8.674   9.176 -0.9251  2.3125 -0.0291
16383SOL     OW50599   8.381   2.808   8.729  0.2645  0.3338 -0.2238
16383SOL    HW150600   8.328   2.855   8.664  1.3011  3.0210  0.7417
16383SOL    HW250601   8.469   2.807   8.691  0.7304  1.3070  0.7829
16384SOL     OW50602   6.299   5.138   5.864 -0.2492 -0.1825 -0.4301
16384SOL    HW150603   6.278   5.049   5.892 -0.3470  0.3487  1.2595
16384SOL    HW250604   6.328   5.128   5.773  1.9293 -2.2647  0.3972
16385SOL     OW50605   6.603   5.782   6.000  0.4036  0.0199 -0.3194
16385SOL    HW150606   6.601   5.698   6.045  0.8177  0.3743  0.3929
16385SOL    HW250607   6.646   5.841   6.062 -0.9207  1.0412 -0.3248
16386SOL     OW50608   3.957   2.104   3.199  0.7956 -0.3959  0.4197
16386SOL    HW150609   4.017   2.140   3.263  1.1457 -1.0959  0.4896
16386SOL    HW250610   4.013   2.070   3.129  0.5290 -1.5804  0.7586
16387SOL     OW50611   1.400   1.139   3.045 -0.7351 -0.5133  0.4910
16387SOL    HW150612   1.467   1.115   3.110  0.6938  1.1568 -0.2690
16387SOL    HW250613   1.450   1.156   2.965 -2.0996  0.5209 -0.1781
16388SOL     OW50614   0.391   4.445   6.177 -0.1979 -0.2607  0.3508
16388SOL    HW150615   0.406   4.350   6.176  1.1027 -0.0704 -0.1905
16388SOL    HW250616   0.469   4.482   6.135 -0.4958  1.0788  0.9304
16389SOL     OW50617   0.500   7.840   4.867  0.5042  0.0071 -0.3389
16389SOL    HW150618   0.421   7.803   4.907  0.1799 -1.1965 -1.9597
16389SOL    HW250619   0.480   7.932   4.855  0.4111  0.3073  1.6841
16390SOL     OW50620   4.599   0.450   0.301 -0.4803 -0.1248 -0.0838
16390SOL    HW150621   4.672   0.392   0.279 -0.6707 -0.6733  0.6902
16390SOL    HW250622   4.563   0.414   0.382 -0.5601  1.1221  0.4583
16391SOL     OW50623   5.370   2.012   4.713  0.3234  0.1617 -0.2991
16391SOL    HW150624   5.353   2.003   4.620  1.6740 -0.4447 -0.5092
16391SOL    HW250625   5.379   1.922   4.745 -2.5826  0.2166  0.9465
16392SOL     OW50626   0.608   3.504   1.704 -0.2996  0.1260 -0.6946
16392SOL    HW150627   0.552   3.478   1.777 -1.2656 -1.9927 -2.0774
16392SOL    HW250628   0.696   3.474   1.730 -0.3883  0.4874  0.0734
16393SOL     OW50629   8.443   7.391   6.788 -0.9727 -0.2959  0.3103
16393SOL    HW150630   8.408   7.471   6.828 -0.8862  0.8689 -1.8307
16393SOL    HW250631   8.366   7.342   6.760 -0.9892  0.2151 -0.5557
16394SOL     OW50632   5.396   2.297   7.470  0.2121  0.4552  0.2670
16394SOL    HW150633   5.424   2.388   7.456  0.4301  0.3107 -0.2710
16394SOL    HW250634   5.399   2.258   7.383 -1.1328  0.2832  0.2807
16395SOL     OW50635   0.752   8.847   2.273 -0.2022 -0.1844 -0.2476
16395SOL    HW150636   0.674   8.798   2.300  0.2363 -0.4399  0.6052
16395SOL    HW250637   0.750   8.925   2.328 -0.1359  0.0585 -0.5938
16396SOL     OW50638   1.465   1.572   8.516  0.2488  0.6095 -0.4117
16396SOL    HW150639   1.414   1.530   8.447 -0.6044  0.5177  0.2673
16396SOL    HW250640   1.404   1.584   8.588  1.9612 -2.8712  1.9129
16397SOL     OW50641   0.274   2.923   3.506  0.1405 -0.0995 -0.2150
16397SOL    HW150642   0.196   2.945   3.557  0.0675 -0.3467 -0.2183
16397SOL    HW250643   0.240   2.901   3.420  0.1182 -1.1505  0.0539
16398SOL     OW50644   5.954   1.101   5.946 -0.2989  0.2326 -0.6755
16398SOL    HW150645   5.978   1.190   5.971 -0.4883  0.4265 -1.1778
16398SOL    HW250646   6.017   1.045   5.992 -0.7868  0.5644  0.4261
16399SOL     OW50647   8.298   9.174   8.885  0.5447  0.3323  0.2095
16399SOL    HW150648   8.216   9.160   8.932  1.0919  0.8290  1.3622
16399SOL    HW250649   8.308   9.269   8.883  1.6588  0.2546  1.1304
16400SOL     OW50650   7.416   5.109   4.771 -0.2069 -0.0089  0.2594
16400SOL    HW150651   7.322   5.097   4.779 -0.1020 -1.2490 -0.2292
16400SOL    HW250652   7.454   5.028   4.805  0.8462  1.7091  3.6793
16401SOL     OW50653   4.937   4.300   5.756 -0.3059  0.0798  0.2268
16401SOL    HW150654   4.945   4.306   5.851  0.9391 -0.9382  0.2108
16401SOL    HW250655   5.026   4.311   5.723 -0.8710  1.6174 -0.9229
16402SOL     OW50656   3.757   2.707   2.767 -0.6454  0.0700  0.4488
16402SOL    HW150657   3.681   2.753   2.730 -0.0668  0.1049 -0.7448
16402SOL    HW250658   3.724   2.620   2.790 -1.3138  0.4644  1.0240
16403SOL     OW50659   1.341   4.175   6.017 -0.4670  0.1762 -0.2200
16403SOL    HW150660   1.428   4.137   6.003 -0.3922  0.4683 -0.5614
16403SOL    HW250661   1.357   4.268   6.028 -0.7111  0.1917  0.0090
16404SOL     OW50662   0.660   7.727   4.398  0.1420 -0.2430 -0.0547
16404SOL    HW150663   0.639   7.697   4.486  0.2595  1.1813  0.4921
16404SOL    HW250664   0.617   7.812   4.391 -1.5230 -1.1731 -2.1128
16405SOL     OW50665   7.606   2.197   2.601 -0.2193  0.5084  0.4731
16405SOL    HW150666   7.654   2.230   2.525 -2.1244  0.9977 -0.5862
16405SOL    HW250667   7.643   2.110   2.617  0.2272  0.3997 -1.0250
16406SOL     OW50668   6.968   8.137   2.324  0.1512  0.4496 -0.3938
16406SOL    HW150669   6.945   8.062   2.270 -0.4461  0.3689 -0.0302
16406SOL    HW250670   7.000   8.099   2.407 -2.2081  0.5810  0.6485
16407SOL     OW50671   7.433   1.419   4.698 -0.5385  0.2159  0.2014
16407SOL    HW150672   7.424   1.379   4.784 -1.0597 -0.5285 -0.1876
16407SOL    HW250673   7.413   1.512   4.713 -0.6805  0.0859  0.8655
16408SOL     OW50674   4.439   6.095   1.681  0.0806 -0.5851 -0.1776
16408SOL    HW150675   4.408   6.107   1.770 -1.6339  0.3052 -0.8377
16408SOL    HW250676   4.372   6.137   1.626  1.5922 -0.1694 -1.8221
16409SOL     OW50677   6.044   4.660   2.831  0.3326 -0.1428 -0.8192
16409SOL    HW150678   5.969   4.703   2.872  0.6866  1.9297 -2.1963
16409SOL    HW250679   6.013   4.571   2.813 -1.4784  0.3740 -0.5208
16410SOL     OW50680   0.691   4.741   5.623  0.0695  0.4424  0.9073
16410SOL    HW150681   0.763   4.747   5.686  1.1528  1.9194 -0.4028
16410SOL    HW250682   0.691   4.649   5.597  1.2036  0.3191  1.2473
16411SOL     OW50683   6.419   1.887   6.598 -0.1621  0.0297 -0.0599
16411SOL    HW150684   6.349   1.897   6.534 -0.2675  0.7923  0.1612
16411SOL    HW250685   6.374   1.872   6.681 -0.1513  2.4013  0.4226
16412SOL     OW50686   2.476   2.947   5.328  0.3521 -0.3608  0.2710
16412SOL    HW150687   2.412   2.952   5.257 -0.3876  0.8859  0.9935
16412SOL    HW250688   2.547   2.894   5.292 -0.8913 -1.4260 -0.6901
16413SOL     OW50689   0.486   4.316   0.045 -0.4492 -0.1273  0.4687
16413SOL    HW150690   0.516   4.225   0.045  1.1952  0.3992  0.3426
16413SOL    HW250691   0.393   4.310   0.023 -0.1485 -1.7102 -0.4990
16414SOL     OW50692   8.028   9.042   1.370 -0.2063 -0.0739  0.0859
16414SOL    HW150693   7.967   8.990   1.421 -1.4585  0.5952 -0.6925
16414SOL    HW250694   7.975   9.112   1.332  0.8296 -0.0976 -1.4956
16415SOL     OW50695   1.168   1.928   7.788 -0.0242 -0.2723 -0.2297
16415SOL    HW150696   1.219   1.848   7.803 -1.1421 -1.3893 -1.9751
16415SOL    HW250697   1.080   1.896   7.769  0.0117  1.1516 -3.4231
16416SOL     OW50698   4.430   2.852   5.727 -0.2293  0.0656 -0.4635
16416SOL    HW150699   4.453   2.759   5.719 -0.5606  0.0257 -0.9646
16416SOL    HW250700   4.359   2.865   5.665 -1.7798  0.1369  1.2422
16417SOL     OW50701   2.513   0.588   2.632  0.2078  0.3395  0.6538
16417SOL    HW150702   2.489   0.666   2.681  1.7174  0.1031  1.8317
16417SOL    HW250703   2.429   0.543   2.616 -0.4489  1.0807  1.8954
16418SOL     OW50704   7.619   0.005   5.768 -0.1514 -0.6631  0.0615
16418SOL    HW150705   7.618   0.074   5.835 -0.3392 -1.2973  0.7216
16418SOL    HW250706   7.676  -0.063   5.804 -2.7744 -2.4805  1.1179
16419SOL     OW50707   4.769   7.499   3.238 -0.0784 -0.0650  0.2746
16419SOL    HW150708   4.801   7.507   3.328  0.0230 -1.0018  0.3330
16419SOL    HW250709   4.830   7.438   3.197 -0.2253  0.2263 -0.3879
16420SOL     OW50710   7.975   4.532   8.995 -0.3085  0.1901  0.0365
16420SOL    HW150711   8.062   4.494   9.004 -1.5086 -2.6258  0.6662
16420SOL    HW250712   7.952   4.519   8.904 -1.1416 -1.7273  0.4786
16421SOL     OW50713   7.760   0.117   2.254 -0.5534  0.0945  0.2728
16421SOL    HW150714   7.704   0.136   2.178 -0.0490 -3.0332 -1.0321
16421SOL    HW250715   7.699   0.114   2.328 -1.1648  2.5051 -0.0463
16422SOL     OW50716   7.896   5.380   4.262 -0.0452  0.5046  0.1806
16422SOL    HW150717   7.890   5.372   4.357 -1.0714 -0.0806  0.0854
16422SOL    HW250718   7.989   5.372   4.242 -0.0818 -2.7153  0.8635
16423SOL     OW50719   8.637   0.907   7.021 -0.0364 -0.4595 -0.1103
16423SOL    HW150720   8.648   0.818   6.989 -1.1916 -0.7722  0.3001
16423SOL    HW250721   8.597   0.955   6.948  0.6112 -0.2669 -0.3406
16424SOL     OW50722   5.099   1.275   1.534  0.4099  0.3328 -0.1876
16424SOL    HW150723   5.066   1.256   1.446  0.6864  1.9513 -0.6748
16424SOL    HW250724   5.166   1.342   1.520  1.1230 -0.0591  1.1802
16425SOL     OW50725   0.862   3.053   2.128 -0.5565 -0.0205 -0.1542
16425SOL    HW150726   0.956   3.064   2.142 -0.7179  0.6236  0.4891
16425SOL    HW250727   0.855   2.969   2.082  0.3930  0.4169 -1.1556
16426SOL     OW50728   0.207   8.342   4.200  0.1117  0.0562  0.9348
16426SOL    HW150729   0.124   8.376   4.234 -0.2959 -0.6419  0.6551
16426SOL    HW250730   0.243   8.291   4.272  0.0332 -0.0859  0.8737
16427SOL     OW50731   8.844   5.365   8.298 -0.2444  0.4247 -0.0812
16427SOL    HW150732   8.810   5.364   8.388  1.6959  1.7223  0.7311
16427SOL    HW250733   8.939   5.357   8.308 -0.0620 -0.6943 -2.1225
16428SOL     OW50734   6.565   7.706   3.645  0.0518  0.2765  0.0569
16428SOL    HW150735   6.603   7.656   3.572  0.2755  1.9279 -1.0145
16428SOL    HW250736   6.603   7.667   3.723  0.6292 -0.8741 -0.7716
16429SOL     OW50737   2.859   7.432   4.404 -0.2298 -0.5610 -0.1836
16429SOL    HW150738   2.840   7.488   4.479  1.9885  1.1521 -0.8198
16429SOL    HW250739   2.790   7.453   4.341 -0.5892 -0.0841  0.3551
16430SOL     OW50740   4.885   4.420   2.058 -0.0347 -0.1126 -1.4240
16430SOL    HW150741   4.844   4.437   1.974  1.3984  0.4109 -2.0387
16430SOL    HW250742   4.976   4.400   2.037  0.1770 -0.6847 -0.0552
16431SOL     OW50743   5.072   2.487   2.092  0.0487  0.6753  0.3364
16431SOL    HW150744   5.166   2.473   2.102  0.0076  0.1724  0.0795
16431SOL    HW250745   5.064   2.564   2.036  0.3227 -0.0926 -0.7783
16432SOL     OW50746   1.520   3.068   0.569 -0.0790 -0.0866  0.6816
16432SOL    HW150747   1.442   3.112   0.603 -0.2648 -0.3519  0.5940
16432SOL    HW250748   1.487   2.993   0.521  0.1060  0.9004 -1.0753
16433SOL     OW50749   6.153   1.060   1.875  0.1909 -0.1035 -0.3497
16433SOL    HW150750   6.138   1.147   1.911 -0.8608 -0.5729  0.4124
16433SOL    HW250751   6.245   1.041   1.894  0.4840  0.8957 -0.6954
16434SOL     OW50752   1.860   9.270   6.544 -0.0343  0.1932  0.0555
16434SOL    HW150753   1.843   9.309   6.630  1.4523 -0.1935  0.5491
16434SOL    HW250754   1.906   9.339   6.495  1.2435 -0.3768  0.4103
16435SOL     OW50755   9.133   1.303   5.735  0.0872 -0.2003  0.2199
16435SOL    HW150756   9.151   1.214   5.706 -0.2704 -0.8030  1.7317
16435SOL    HW250757   9.217   1.348   5.729  0.4047 -0.8143  0.0118
16436SOL     OW50758   1.221   6.735   3.914 -0.7213  0.0830 -0.3349
16436SOL    HW150759   1.252   6.710   3.827  0.1130  1.0821 -0.3590
16436SOL    HW250760   1.276   6.685   3.975  0.7555  1.5487 -0.3842
16437SOL     OW50761   6.821   6.384   6.792 -0.1585 -0.1685  0.1814
16437SOL    HW150762   6.897   6.375   6.850  0.9721 -0.7393 -1.3154
16437SOL    HW250763   6.850   6.347   6.709 -1.8580  0.2665 -0.6508
16438SOL     OW50764   4.716   3.115   2.998  0.3809 -0.4033 -0.2417
16438SOL    HW150765   4.671   3.032   3.012  0.8190 -0.5801  0.1241
16438SOL    HW250766   4.775   3.099   2.924  0.3475 -0.3674 -0.2765
16439SOL     OW50767   1.825   1.112   8.184  0.2959 -0.1987 -0.0494
16439SOL    HW150768   1.777   1.190   8.211  1.2648  0.5121 -0.3161
16439SOL    HW250769   1.783   1.040   8.231  0.2309  0.6578  1.2469
16440SOL     OW50770   3.561   0.317   3.670 -0.4869  0.2580  0.2888
16440SOL    HW150771   3.500   0.256   3.629  1.4637 -2.5916  1.2803
16440SOL    HW250772   3.530   0.325   3.760 -0.1830 -0.1318  0.4333
16441SOL     OW50773   5.850   4.224   1.062 -0.5538 -0.0077 -0.0860
16441SOL    HW150774   5.771   4.216   1.009 -0.2909  1.0625 -0.6785
16441SOL    HW250775   5.904   4.149   1.038  0.5931  1.6277 -3.1740
16442SOL     OW50776   9.059   8.260   0.377 -0.2487 -0.3008  0.2712
16442SOL    HW150777   9.072   8.321   0.450 -1.0507 -0.6311  0.7013
16442SOL    HW250778   9.108   8.182   0.402  1.1710  0.3075 -0.4951
16443SOL     OW50779   6.103   2.028   7.367 -0.5572 -0.3400  0.5553
16443SOL    HW150780   6.160   2.068   7.433  1.0215 -0.0630 -0.9242
16443SOL    HW250781   6.144   1.944   7.349 -1.7917 -1.0486  0.9328
16444SOL     OW50782   3.901   8.094   5.706 -0.2482  0.7192 -0.6332
16444SOL    HW150783   3.843   8.170   5.701 -0.1027  0.8000 -1.0817
16444SOL    HW250784   3.929   8.078   5.616  0.4794  0.7234 -0.4188
16445SOL     OW50785   0.342   2.087   6.349 -0.6931 -0.6985  0.2211
16445SOL    HW150786   0.390   2.170   6.348 -1.5701 -0.0869  2.7921
16445SOL    HW250787   0.380   2.039   6.422 -2.1680 -1.3177  0.6074
16446SOL     OW50788   7.189   0.180   6.135 -0.5686 -0.1915 -0.4322
16446SOL    HW150789   7.260   0.243   6.121  0.2628 -0.5848  1.7320
16446SOL    HW250790   7.230   0.106   6.180 -2.2532 -0.6655  0.4140
16447SOL     OW50791   0.904   4.211   7.709 -0.1393 -0.5934 -0.6834
16447SOL    HW150792   0.937   4.197   7.621  0.9503 -1.0256 -0.2221
16447SOL    HW250793   0.981   4.232   7.761 -1.1183  3.1161 -0.4416
16448SOL     OW50794   0.938   5.279   2.670 -0.0544 -0.3583 -0.0880
16448SOL    HW150795   0.946   5.249   2.761 -1.1273 -0.4661 -0.0136
16448SOL    HW250796   1.028   5.282   2.638  0.3608 -0.1782  1.0251
16449SOL     OW50797   7.761   5.864   7.678 -0.3759  0.2566  0.0116
16449SOL    HW150798   7.809   5.843   7.598  2.8317  0.5223  1.7232
16449SOL    HW250799   7.748   5.959   7.673  1.1193  0.5038  0.4183
16450SOL     OW50800   8.853   6.468   8.040  0.1860 -0.7382 -0.3986
16450SOL    HW150801   8.942   6.434   8.050  0.2150 -0.5164  0.1186
16450SOL    HW250802   8.806   6.438   8.118  0.4732  1.2244  0.6008
16451SOL     OW50803   7.239   4.267   3.727  0.1372 -0.0124  0.0904
16451SOL    HW150804   7.186   4.331   3.775  1.1237  1.4072 -0.6342
16451SOL    HW250805   7.326   4.273   3.767  0.6492  0.2972 -1.0067
16452SOL     OW50806   4.864   6.023   4.822 -0.5143  0.0109  0.4413
16452SOL    HW150807   4.853   6.036   4.916 -0.3049 -2.4006  0.8671
16452SOL    HW250808   4.918   6.097   4.793  0.4663  0.1328  2.4561
16453SOL     OW50809   8.620   0.695   5.801  0.2702 -0.5824 -0.0229
16453SOL    HW150810   8.601   0.609   5.838  0.9956  0.0943  2.0756
16453SOL    HW250811   8.706   0.686   5.761 -0.6384 -1.3993 -1.9028
16454SOL     OW50812   2.775   3.716   5.183  0.1519 -0.3330  0.3353
16454SOL    HW150813   2.816   3.660   5.117  1.1344 -0.0533  0.6992
16454SOL    HW250814   2.702   3.663   5.216  0.6662 -1.1430  0.2050
16455SOL     OW50815   5.031   1.536   7.807 -0.0617  0.1458 -0.0955
16455SOL    HW150816   5.002   1.623   7.837 -1.0503 -0.8337  2.0217
16455SOL    HW250817   5.036   1.484   7.887 -1.2071 -2.2453 -1.4747
16456SOL     OW50818   4.697   2.499   8.454  0.2519 -0.0046 -0.0396
16456SOL    HW150819   4.644   2.420   8.457  0.9576 -0.4468  1.6039
16456SOL    HW250820   4.657   2.552   8.385 -2.0352 -0.5263  0.8094
16457SOL     OW50821   0.902   0.527   8.593  0.2012  0.1868  0.1106
16457SOL    HW150822   0.935   0.497   8.677  1.1884 -1.9059 -0.9407
16457SOL    HW250823   0.932   0.461   8.530  0.7722  2.4185 -2.1287
16458SOL     OW50824   5.384   5.001   5.904 -0.3379 -0.2805  0.3744
16458SOL    HW150825   5.342   4.988   5.989  1.3357 -0.7151  1.1777
16458SOL    HW250826   5.364   4.921   5.855 -2.9079  0.7449 -0.4225
16459SOL     OW50827   1.486   5.518   7.607 -0.3190  0.3362  0.2080
16459SOL    HW150828   1.543   5.581   7.563  0.2460  0.8641  1.6493
16459SOL    HW250829   1.397   5.544   7.582 -0.0020 -0.3352 -1.8535
16460SOL     OW50830   8.846   2.884   4.469  0.8288 -0.1008  1.0567
16460SOL    HW150831   8.761   2.926   4.459 -0.0788 -1.7667  1.4434
16460SOL    HW250832   8.878   2.912   4.554  0.5611  0.3458  1.0094
16461SOL     OW50833   8.837   8.032   5.545  0.4965  0.1164 -0.3896
16461SOL    HW150834   8.781   8.102   5.511  1.5342  0.2931 -1.7751
16461SOL    HW250835   8.775   7.964   5.573 -0.4585  0.7826 -0.8391
16462SOL     OW50836   8.400   4.152   2.451 -0.4061 -0.0638  0.1098
16462SOL    HW150837   8.361   4.066   2.468  0.1462 -0.4662 -0.6116
16462SOL    HW250838   8.371   4.206   2.524  1.1835 -1.4933  1.9001
16463SOL     OW50839   6.947   8.697   8.839 -0.2446 -0.0276  0.5612
16463SOL    HW150840   6.935   8.688   8.744  1.5114 -1.1693  0.3966
16463SOL    HW250841   6.872   8.651   8.877 -0.1731 -0.9044 -0.3047
16464SOL     OW50842   5.455   5.431   5.258 -0.1476  0.6946  0.6064
16464SOL    HW150843   5.385   5.495   5.243 -0.9070 -0.3701 -0.6400
16464SOL    HW250844   5.451   5.373   5.182  0.3209 -0.9982  1.8178
16465SOL     OW50845   8.288   6.580   8.288 -0.2726 -0.2023  0.4091
16465SOL    HW150846   8.250   6.666   8.269 -1.5143 -0.9892 -0.9170
16465SOL    HW250847   8.212   6.521   8.293  0.6519 -2.0124 -3.1610
16466SOL     OW50848   3.369   4.392   6.258  0.2990  0.6697 -0.5095
16466SOL    HW150849   3.340   4.483   6.248 -0.2275  0.6517  0.7734
16466SOL    HW250850   3.427   4.393   6.335 -1.5735 -0.4778  0.9940
16467SOL     OW50851   5.702   8.921   8.072 -0.4886 -0.5305 -1.1180
16467SOL    HW150852   5.672   8.934   7.982  0.3599  1.2305 -1.1848
16467SOL    HW250853   5.796   8.938   8.069 -0.0308 -2.6161 -0.2781
16468SOL     OW50854   6.434   1.034   5.347  0.0400 -0.0382  0.8794
16468SOL    HW150855   6.483   1.115   5.334 -0.4037  0.3378  1.4965
16468SOL    HW250856   6.500   0.965   5.343  0.2715  0.2285 -0.8419
16469SOL     OW50857   7.757   0.052   3.835 -0.0652 -0.0107 -0.1886
16469SOL    HW150858   7.753   0.138   3.793 -0.6261 -0.4124 -0.9826
16469SOL    HW250859   7.680   0.006   3.802  0.1693 -0.7798  0.3169
16470SOL     OW50860   6.932   6.098   4.224 -0.3677 -0.5509 -0.1627
16470SOL    HW150861   7.027   6.087   4.226 -0.3988 -0.7562  0.1649
16470SOL    HW250862   6.898   6.022   4.271 -0.5881  0.7946  1.9830
16471SOL     OW50863   7.948   8.393   7.649  0.1981 -0.8556  1.0101
16471SOL    HW150864   7.912   8.347   7.573  0.5557  0.1871  0.1747
16471SOL    HW250865   7.933   8.334   7.723 -0.0527 -1.9485  0.1118
16472SOL     OW50866   5.852   0.808   8.214  0.2842 -0.2610  0.0681
16472SOL    HW150867   5.916   0.788   8.282  0.2234 -1.1915 -0.1369
16472SOL    HW250868   5.817   0.894   8.239  0.1031 -0.6712  1.3389
16473SOL     OW50869   4.662   1.120   0.443 -0.6864 -0.4719  0.2099
16473SOL    HW150870   4.673   1.149   0.533  0.9788 -0.1512 -0.0697
16473SOL    HW250871   4.599   1.182   0.405 -0.6526 -0.0260  0.8796
16474SOL     OW50872   4.106   9.237   4.733  0.1569  0.7969  0.3399
16474SOL    HW150873   4.150   9.255   4.649  0.1108  1.7535  0.5123
16474SOL    HW250874   4.173   9.252   4.799  0.6684 -1.5349  0.4282
16475SOL     OW50875   6.856   0.871   4.920  0.0562 -0.2492  0.0972
16475SOL    HW150876   6.828   0.959   4.946  1.0424  0.0284  0.2992
16475SOL    HW250877   6.781   0.815   4.938  0.0509  0.2467  1.7849
16476SOL     OW50878   3.908   8.116   1.441  0.3353 -0.3365  0.3005
16476SOL    HW150879   3.878   8.092   1.354 -0.7654 -1.4265  0.9418
16476SOL    HW250880   3.828   8.141   1.487  0.1184 -3.9541  2.2825
16477SOL     OW50881   2.152   2.626   0.365 -0.0660 -0.2932  0.1869
16477SOL    HW150882   2.111   2.598   0.447 -0.6061 -0.8060 -0.2520
16477SOL    HW250883   2.190   2.546   0.328  0.3210 -0.0353  0.0134
16478SOL     OW50884   1.701   2.147   4.409  0.0202  0.5688 -0.0604
16478SOL    HW150885   1.735   2.226   4.365  1.2853 -0.6074 -1.3001
16478SOL    HW250886   1.640   2.109   4.345 -0.6403  0.5673  0.5596
16479SOL     OW50887   9.247   5.400   6.479  0.1598  0.1973  0.5101
16479SOL    HW150888   9.208   5.366   6.559 -1.1853  0.9660  0.2190
16479SOL    HW250889   9.313   5.336   6.455 -0.2892 -0.6839  1.5458
16480SOL     OW50890   5.733   8.624   8.857 -0.1201 -0.0950 -0.0689
16480SOL    HW150891   5.649   8.601   8.898 -0.4441  0.2770 -0.5141
16480SOL    HW250892   5.793   8.635   8.931 -1.2703  2.9907  0.5568
16481SOL     OW50893   0.005   8.688   3.135  0.2718  0.2735  0.4614
16481SOL    HW150894   0.093   8.703   3.101  0.1703  0.6748  0.3790
16481SOL    HW250895   0.015   8.614   3.195  0.3253 -0.9333 -0.9761
16482SOL     OW50896   5.058   5.595   1.732 -0.3217  0.0661 -0.3851
16482SOL    HW150897   5.020   5.642   1.806 -0.1887  2.2004 -1.5992
16482SOL    HW250898   5.151   5.592   1.751 -0.0518  2.1104 -1.1969
16483SOL     OW50899   6.843   8.777   6.226 -0.0000  0.4223 -0.2725
16483SOL    HW150900   6.922   8.829   6.212 -0.1383  0.5206 -0.6976
16483SOL    HW250901   6.774   8.841   6.240 -0.1160  0.3489 -0.5060
16484SOL     OW50902   0.513   3.495   2.713  0.4810  0.1439  0.1658
16484SOL    HW150903   0.555   3.409   2.716  0.0198 -0.0877  0.0235
16484SOL    HW250904   0.422   3.478   2.738  0.0061  0.3476 -1.3071
16485SOL     OW50905   8.685   6.331   0.970  0.9588 -0.2484 -0.1859
16485SOL    HW150906   8.684   6.338   0.875  0.1093 -2.1277 -0.3647
16485SOL    HW250907   8.612   6.272   0.991  2.0863 -1.1423  1.4935
16486SOL     OW50908   7.529   7.550   8.478 -0.2888  0.3840 -0.2379
16486SOL    HW150909   7.606   7.503   8.447 -1.2972 -1.2714 -0.3857
16486SOL    HW250910   7.497   7.598   8.401  1.1579  1.9484  0.0939
16487SOL     OW50911   8.414   0.060   8.011 -0.6081  0.3285 -0.4894
16487SOL    HW150912   8.481   0.067   7.943  0.0507  1.0687  0.2080
16487SOL    HW250913   8.409   0.147   8.049 -0.0381 -0.3470  1.2557
16488SOL     OW50914   3.795   5.587   7.125 -0.4529  0.3175  0.2131
16488SOL    HW150915   3.725   5.639   7.085  0.4952  1.3880 -0.0771
16488SOL    HW250916   3.759   5.498   7.128 -1.4654  0.6626 -0.8213
16489SOL     OW50917   5.782   4.693   5.998 -0.1450  0.1050  0.1297
16489SOL    HW150918   5.762   4.722   6.087 -0.1029 -0.9413  0.5014
16489SOL    HW250919   5.703   4.645   5.971 -0.3469  0.8236 -0.5886
16490SOL     OW50920   1.309   6.843   8.170 -0.2043  0.0585 -0.0929
16490SOL    HW150921   1.312   6.938   8.165  0.1130  0.1200  0.9977
16490SOL    HW250922   1.401   6.816   8.171 -0.2783 -0.1922  0.4703
16491SOL     OW50923   8.341   9.204   3.950  0.3802 -0.3830 -0.6532
16491SOL    HW150924   8.381   9.264   3.888 -0.5348 -1.5465 -2.4545
16491SOL    HW250925   8.252   9.235   3.961  0.6976  0.1500  0.5772
16492SOL     OW50926   3.250   7.616   1.535  0.0084 -0.0437 -0.0845
16492SOL    HW150927   3.343   7.641   1.536  0.0917 -0.3452  0.5847
16492SOL    HW250928   3.223   7.628   1.444  0.5633  0.5645 -0.1790
16493SOL     OW50929   4.210   7.526   8.417 -0.2846 -0.0189  0.4369
16493SOL    HW150930   4.159   7.448   8.397 -0.4383 -0.4073  2.2237
16493SOL    HW250931   4.166   7.596   8.370 -0.4260 -0.9108 -0.8087
16494SOL     OW50932   2.696   0.452   6.541  0.2192 -0.1777 -0.3455
16494SOL    HW150933   2.656   0.418   6.621 -0.0918 -1.2149 -0.9316
16494SOL    HW250934   2.623   0.487   6.490  0.4298  0.5818 -0.1384
16495SOL     OW50935   2.173   2.706   1.638  0.6224 -0.6615  0.1426
16495SOL    HW150936   2.203   2.755   1.715 -0.5089 -0.3255  0.3915
16495SOL    HW250937   2.159   2.773   1.571 -1.1828 -0.5669  0.5635
16496SOL     OW50938   3.490   7.482   2.921 -0.1876  0.2362 -0.4902
16496SOL    HW150939   3.533   7.564   2.943  0.5632 -0.3397  0.2706
16496SOL    HW250940   3.526   7.457   2.836  0.3678  0.1804 -0.2435
16497SOL     OW50941   3.888   5.542   2.032  0.1486  0.0165 -0.2300
16497SOL    HW150942   3.818   5.603   2.007 -1.1269 -2.0506 -2.1257
16497SOL    HW250943   3.950   5.547   1.959  0.6681 -0.0543  0.2077
16498SOL     OW50944   8.541   4.095   0.284 -0.8530  0.3146 -0.3682
16498SOL    HW150945   8.475   4.145   0.236 -0.8792  0.9373  0.2908
16498SOL    HW250946   8.491   4.051   0.353 -0.5680  0.9193  0.2343
16499SOL     OW50947   5.995   5.697   2.807  0.2197  0.5765 -0.2315
16499SOL    HW150948   6.081   5.729   2.780  0.3075 -1.6350 -3.0617
16499SOL    HW250949   5.933   5.753   2.759  0.2107  0.1287 -0.7548
16500SOL     OW50950   2.777   3.603   5.509 -0.7390  0.2963  0.1174
16500SOL    HW150951   2.716   3.657   5.559 -0.0675 -0.7909  2.2552
16500SOL    HW250952   2.721   3.553   5.448 -1.6909  1.0799  0.3230
16501SOL     OW50953   6.472   6.969   4.367  0.1570 -0.1905  0.5605
16501SOL    HW150954   6.449   6.893   4.312  0.8872 -0.9174  1.2363
16501SOL    HW250955   6.419   7.041   4.331  0.7595 -0.5849 -1.2115
16502SOL     OW50956   2.544   7.356   2.740  0.0753 -0.0547 -0.2832
16502SOL    HW150957   2.460   7.372   2.697  0.0399 -0.4308 -0.3539
16502SOL    HW250958   2.536   7.269   2.779  0.4385 -0.1069 -0.3149
16503SOL     OW50959   2.065   2.021   2.357 -0.0213 -0.0624 -0.5922
16503SOL    HW150960   2.119   2.085   2.403  0.5582 -0.0162 -1.3111
16503SOL    HW250961   2.033   1.963   2.426 -1.4754  1.6215  0.2215
16504SOL     OW50962   7.768   1.803   7.820 -0.0611  0.1656  0.3029
16504SOL    HW150963   7.806   1.875   7.770  0.8295 -1.7826 -1.9767
16504SOL    HW250964   7.826   1.794   7.896  1.5725  0.0051 -0.9146
16505SOL     OW50965   7.136   2.367   4.558 -0.2485 -0.2783  0.1065
16505SOL    HW150966   7.159   2.333   4.472 -2.5012 -1.4516 -0.1110
16505SOL    HW250967   7.175   2.306   4.620  1.2261  0.4679 -0.0464
16506SOL     OW50968   4.815   0.610   3.279  0.1493  0.1904 -0.2583
16506SOL    HW150969   4.898   0.626   3.324  0.0793 -1.4793  0.5350
16506SOL    HW250970   4.753   0.669   3.321  0.8025  1.0713 -0.4988
16507SOL     OW50971   0.818   7.730   6.541 -0.0842  0.2130 -0.4478
16507SOL    HW150972   0.809   7.803   6.602  0.5662  0.3858 -0.5433
16507SOL    HW250973   0.810   7.652   6.595  1.1145  0.3621 -0.0084
16508SOL     OW50974   3.408   3.646   6.525 -0.1810  0.2716  0.4591
16508SOL    HW150975   3.475   3.655   6.458  1.0683  0.5494  1.6982
16508SOL    HW250976   3.413   3.727   6.575 -0.5972 -0.2033  1.3023
16509SOL     OW50977   4.859   3.641   5.722 -0.3095 -0.0015 -0.1500
16509SOL    HW150978   4.817   3.711   5.672  1.0646  0.3483 -0.8705
16509SOL    HW250979   4.928   3.686   5.772  0.6433 -0.8372 -0.6807
16510SOL     OW50980   7.497   1.365   4.957 -0.7312 -0.0718  0.4340
16510SOL    HW150981   7.506   1.435   5.022  2.5821  0.7655 -0.7255
16510SOL    HW250982   7.545   1.291   4.995  0.4982  0.1469 -0.6478
16511SOL     OW50983   9.162   6.733   1.057  0.4374 -0.4386 -0.2552
16511SOL    HW150984   9.241   6.679   1.054  1.2236  0.6036  0.8211
16511SOL    HW250985   9.095   6.675   1.092  0.5154 -1.5479 -1.8417
16512SOL     OW50986   0.314   5.150   1.689 -0.3333  0.0431 -0.1332
16512SOL    HW150987   0.409   5.148   1.680 -0.1488  0.2992  1.3958
16512SOL    HW250988   0.291   5.062   1.718 -0.2695  0.5341  1.5533
16513SOL     OW50989   3.994   5.824   5.288 -0.1987  0.5347  0.2426
16513SOL    HW150990   3.997   5.920   5.295 -1.7223  0.5964  0.3033
16513SOL    HW250991   3.959   5.808   5.200 -0.6502  0.0508  0.5038
16514SOL     OW50992   4.686   2.299   2.187  0.1188  0.0431 -0.2438
16514SOL    HW150993   4.640   2.223   2.224 -0.5824  0.2155 -0.7396
16514SOL    HW250994   4.633   2.325   2.111  0.1370  1.2597  0.1336
16515SOL     OW50995   1.517   0.396   2.169  0.4570  0.4661 -0.3386
16515SOL    HW150996   1.492   0.487   2.150 -0.5297 -0.0110 -1.4433
16515SOL    HW250997   1.595   0.381   2.115 -1.0374 -0.1866 -2.4438
16516SOL     OW50998   0.484   2.279   3.966  0.3489  0.2662 -0.0443
16516SOL    HW150999   0.573   2.255   3.939  0.6307  2.1144 -0.9330
16516SOL    HW251000   0.480   2.257   4.059  1.2079 -1.2480 -0.3436
16517SOL     OW51001   6.259   5.334   8.835 -0.1342  0.5358 -0.4927
16517SOL    HW151002   6.222   5.300   8.916  0.4828 -0.2812 -0.5474
16517SOL    HW251003   6.183   5.365   8.785 -0.4291  2.0583  0.8400
16518SOL     OW51004   7.104   5.275   8.332  0.0639  0.0102 -0.5158
16518SOL    HW151005   7.191   5.276   8.292  1.0615  1.4261  1.5230
16518SOL    HW251006   7.058   5.348   8.290  0.1283 -0.2171 -0.9943
16519SOL     OW51007   3.413   1.003   8.456  0.0541 -0.0969 -0.0422
16519SOL    HW151008   3.433   1.072   8.392 -1.7786 -0.7159 -1.3656
16519SOL    HW251009   3.458   1.031   8.536 -0.0836  2.2941 -0.7253
16520SOL     OW51010   2.037   0.945   2.430  0.4264  0.1214 -0.2396
16520SOL    HW151011   2.106   0.984   2.484 -0.7248  1.0954  0.5713
16520SOL    HW251012   2.044   0.851   2.447  0.6487  0.3355  0.9600
16521SOL     OW51013   2.627   5.502   6.126  0.7671 -0.5513  0.2291
16521SOL    HW151014   2.550   5.553   6.151  1.5804  0.0218  1.7085
16521SOL    HW251015   2.594   5.412   6.118 -0.7871  0.1600 -2.8678
16522SOL     OW51016   2.325   6.743   0.918 -0.0630  0.2706 -0.1573
16522SOL    HW151017   2.325   6.702   0.832 -0.3656 -0.4676  0.1784
16522SOL    HW251018   2.362   6.676   0.976  0.1972  0.7810  0.2724
16523SOL     OW51019   1.985   6.501   5.189 -0.2399  0.0241 -0.4244
16523SOL    HW151020   2.035   6.517   5.109 -0.4783  1.8584 -0.2413
16523SOL    HW251021   1.899   6.538   5.171 -0.9076 -1.2536  0.0174
16524SOL     OW51022   4.548   3.296   2.653  0.0224 -0.6366  0.1313
16524SOL    HW151023   4.619   3.254   2.702  1.6584  2.6016  0.8028
16524SOL    HW251024   4.567   3.275   2.561  0.6826 -1.4117  0.4286
16525SOL     OW51025   3.579   7.508   3.654  0.3457  0.7599 -0.4245
16525SOL    HW151026   3.663   7.489   3.696 -0.2500 -0.0341  0.4479
16525SOL    HW251027   3.601   7.520   3.561  1.1822 -1.6441 -0.6229
16526SOL     OW51028   5.819   1.263   5.470 -0.2549  0.3410  0.3441
16526SOL    HW151029   5.805   1.344   5.422  1.6454  0.8633  0.5961
16526SOL    HW251030   5.767   1.198   5.422  0.2741  1.1714 -1.4433
16527SOL     OW51031   2.809   6.898   6.988 -0.2341 -0.2653  0.1426
16527SOL    HW151032   2.795   6.923   6.897  1.0147 -2.8772 -0.8755
16527SOL    HW251033   2.901   6.919   7.005 -0.6106  0.7450  1.0345
16528SOL     OW51034   3.904   4.852   3.623 -0.2192  0.1920 -0.1776
16528SOL    HW151035   3.874   4.888   3.707  1.2482  1.0300  0.0241
16528SOL    HW251036   3.962   4.780   3.647  0.7522  0.8684 -0.4173
16529SOL     OW51037   6.700   0.278   4.458 -0.4537  0.3166  0.4570
16529SOL    HW151038   6.713   0.216   4.386 -1.7808 -0.4248  0.8129
16529SOL    HW251039   6.675   0.360   4.415  1.6325  0.7608 -0.0331
16530SOL     OW51040   4.449   1.950   6.569  0.5988 -0.2367 -0.2638
16530SOL    HW151041   4.410   1.923   6.486 -0.5025 -1.3785  0.5929
16530SOL    HW251042   4.382   1.930   6.634  1.2801  1.0326  0.8602
16531SOL     OW51043   8.962   2.419   1.700 -0.0204  0.1074 -0.0501
16531SOL    HW151044   9.007   2.348   1.655 -2.1935 -2.3110  1.2833
16531SOL    HW251045   9.000   2.421   1.787 -1.6482 -1.2646  0.7520
16532SOL     OW51046   0.357   8.620   1.971 -0.2013  0.0305 -0.0285
16532SOL    HW151047   0.274   8.638   1.927  1.1988 -0.4790 -3.1342
16532SOL    HW251048   0.342   8.538   2.019 -1.2075 -0.6481 -1.4608
16533SOL     OW51049   7.269   4.279   4.694 -0.2425 -0.0805  0.1091
16533SOL    HW151050   7.196   4.217   4.697 -0.2688 -0.1069 -0.7426
16533SOL    HW251051   7.274   4.315   4.782 -1.9661  0.6855 -0.0679
16534SOL     OW51052   3.674   8.342   0.201 -0.3096  0.0972  0.2673
16534SOL    HW151053   3.673   8.426   0.155 -0.6142 -0.0177  0.0658
16534SOL    HW251054   3.765   8.313   0.195 -0.5886 -0.5353 -1.3997
16535SOL     OW51055   7.633   0.972   3.142 -0.4497 -0.2400  0.0846
16535SOL    HW151056   7.557   0.981   3.200 -0.6209 -1.0936 -0.0011
16535SOL    HW251057   7.689   0.907   3.185 -1.5939 -2.5641 -1.7160
16536SOL     OW51058   9.112   1.486   3.805 -0.2649 -0.4175  0.4309
16536SOL    HW151059   9.144   1.422   3.741 -0.8168 -0.2864  0.0123
16536SOL    HW251060   9.188   1.508   3.858  0.6409  0.7714 -1.2783
16537SOL     OW51061   5.737   5.678   7.443  0.2791  0.7834  0.8767
16537SOL    HW151062   5.726   5.583   7.431 -1.9275  0.7791  2.2831
16537SOL    HW251063   5.773   5.709   7.360 -1.6733 -0.9099 -0.7180
16538SOL     OW51064   9.176   7.292   3.059  0.4422  0.0753 -0.0249
16538SOL    HW151065   9.112   7.221   3.051 -0.1446  0.6198 -0.2382
16538SOL    HW251066   9.213   7.301   2.971 -0.9190  1.3399 -0.5166
16539SOL     OW51067   3.547   5.369   3.008 -0.9922  0.0458  0.0155
16539SOL    HW151068   3.479   5.434   2.991 -0.7517 -0.2046 -2.2387
16539SOL    HW251069   3.628   5.409   2.976 -0.4434 -0.4704  0.7285
16540SOL     OW51070   2.324   8.481   1.013 -0.1096  0.3324  0.8776
16540SOL    HW151071   2.400   8.425   1.003 -0.4778 -0.3269  1.6701
16540SOL    HW251072   2.354   8.568   0.985  0.9935  0.1312  1.3775
16541SOL     OW51073   5.764   7.652   7.137  0.0351 -0.5556  0.2030
16541SOL    HW151074   5.754   7.645   7.232  0.9339 -1.4323  0.2469
16541SOL    HW251075   5.834   7.590   7.116  1.1341  0.9631 -0.7928
16542SOL     OW51076   8.637   8.680   5.426 -0.3683  0.0881 -0.0591
16542SOL    HW151077   8.703   8.633   5.374 -0.2422 -2.2716  2.0469
16542SOL    HW251078   8.556   8.671   5.377 -0.4005 -2.6869  0.3700
16543SOL     OW51079   7.542   3.845   6.258 -0.1340 -0.2572 -0.1403
16543SOL    HW151080   7.580   3.849   6.345 -0.0994  0.0614 -0.1703
16543SOL    HW251081   7.448   3.832   6.273 -0.5037  2.1735  0.0061
16544SOL     OW51082   3.855   8.121   2.652  0.2679  0.0626 -0.0065
16544SOL    HW151083   3.871   8.142   2.744  1.2729 -1.5229  0.2118
16544SOL    HW251084   3.762   8.140   2.640  0.1767  0.5589  1.2542
16545SOL     OW51085   1.998   9.078   2.391 -0.3546 -0.6613 -0.2524
16545SOL    HW151086   2.090   9.077   2.416 -0.2861 -0.7380 -0.5077
16545SOL    HW251087   1.952   9.106   2.471 -0.2924 -2.4168  0.4291
16546SOL     OW51088   8.695   8.115   6.511  0.1337  0.1362  0.1313
16546SOL    HW151089   8.779   8.156   6.491 -0.2837  1.2059  0.4576
16546SOL    HW251090   8.706   8.023   6.489  1.2104  0.3749 -0.3561
16547SOL     OW51091   2.828   0.238   1.598  0.2881 -0.8560  0.5582
16547SOL    HW151092   2.766   0.273   1.662  0.0956 -0.2747  0.0706
16547SOL    HW251093   2.858   0.155   1.635 -1.1649 -1.3979  0.5625
16548SOL     OW51094   3.813   6.102   1.082 -0.1895 -0.6223  0.7671
16548SOL    HW151095   3.907   6.083   1.085  0.0433  0.5837  1.5756
16548SOL    HW251096   3.792   6.104   0.988  0.2621 -2.3206  0.5920
16549SOL     OW51097   8.098   0.954   0.993 -0.0728 -0.6265  0.2404
16549SOL    HW151098   8.015   0.907   0.982  0.4448 -1.4183 -0.4309
16549SOL    HW251099   8.081   1.041   0.957  0.1844 -1.6827 -2.7566
16550SOL     OW51100   6.310   3.058   1.949 -0.9391  0.0129  0.1371
16550SOL    HW151101   6.374   3.003   1.904 -3.4293 -1.0853 -2.4093
16550SOL    HW251102   6.317   3.033   2.041  0.4687 -2.0009 -0.4595
16551SOL     OW51103   2.549   3.541   8.179  0.2677 -0.0274  0.3845
16551SOL    HW151104   2.454   3.550   8.176  0.2873 -0.0502 -1.3191
16551SOL    HW251105   2.564   3.446   8.183  0.2244 -0.0695 -0.4120
16552SOL     OW51106   8.477   6.432   8.609 -0.2288  0.1217 -0.0249
16552SOL    HW151107   8.495   6.507   8.665  1.0084 -0.0308 -0.1882
16552SOL    HW251108   8.406   6.462   8.552  1.0558  1.6537 -0.9277
16553SOL     OW51109   0.914   3.433   3.107  0.5415  0.4045  0.2677
16553SOL    HW151110   0.906   3.527   3.126 -0.1933  0.6868 -1.2627
16553SOL    HW251111   0.876   3.390   3.184  0.7284  1.3632  0.9117
16554SOL     OW51112   7.079   0.261   9.251  0.0058  0.0892 -0.2692
16554SOL    HW151113   7.136   0.271   9.175 -1.8100  1.5382 -1.5327
16554SOL    HW251114   6.999   0.222   9.216 -0.8156  0.6616  0.9182
16555SOL     OW51115   3.302   2.316   4.628 -0.1785  0.2595 -0.1219
16555SOL    HW151116   3.388   2.276   4.637  0.1854  0.9430 -0.4108
16555SOL    HW251117   3.272   2.290   4.541  0.6457  1.6551 -0.8700
16556SOL     OW51118   2.388   6.438   4.697 -0.5917  0.7002 -0.0523
16556SOL    HW151119   2.350   6.511   4.747  2.2086  1.3457  1.3304
16556SOL    HW251120   2.427   6.479   4.620 -0.3588  0.4336 -0.0772
16557SOL     OW51121   8.167   6.175   1.032  0.1476  0.2295 -0.2604
16557SOL    HW151122   8.173   6.086   0.999  0.7200  0.2320 -0.1733
16557SOL    HW251123   8.205   6.172   1.120 -0.4733  0.4214  0.0277
16558SOL     OW51124   7.512   6.220   6.107  0.1336  0.1522 -0.2270
16558SOL    HW151125   7.494   6.144   6.052 -2.5223  1.4625 -1.3548
16558SOL    HW251126   7.507   6.295   6.048 -0.6709  1.4495  1.3758
16559SOL     OW51127   6.533   1.174   4.301  0.0263  0.3854  0.2618
16559SOL    HW151128   6.604   1.178   4.237  1.4701  0.2122  1.7988
16559SOL    HW251129   6.564   1.225   4.375 -1.1781 -0.2231  1.2185
16560SOL     OW51130   2.694   7.407   0.357  0.4339 -0.8373 -0.0602
16560SOL    HW151131   2.719   7.315   0.357  0.7863 -0.7454 -0.3539
16560SOL    HW251132   2.677   7.427   0.265  2.6935  0.0015 -0.3664
16561SOL     OW51133   2.190   3.239   1.220 -0.1338 -0.2443  0.1527
16561SOL    HW151134   2.150   3.201   1.141  0.2968 -1.1655  0.3610
16561SOL    HW251135   2.118   3.243   1.283 -0.6098  0.9977 -0.4378
16562SOL     OW51136   5.219   1.258   5.989  0.5807 -0.0498 -0.4737
16562SOL    HW151137   5.204   1.195   6.059  1.8483  1.4923  1.3042
16562SOL    HW251138   5.289   1.219   5.936  0.7142 -0.5292  0.0523
16563SOL     OW51139   6.075   4.712   1.158  0.6309  0.0144  0.0579
16563SOL    HW151140   6.033   4.626   1.155 -0.1658  0.4128 -0.5562
16563SOL    HW251141   6.006   4.774   1.134  1.0571  0.8872  1.0124
16564SOL     OW51142   0.486   3.045   5.848 -0.5978  0.3838 -0.3375
16564SOL    HW151143   0.581   3.035   5.849 -0.4865  1.2982  0.2223
16564SOL    HW251144   0.452   2.959   5.871  0.1539  0.3809  0.8690
16565SOL     OW51145   8.223   9.040   7.785 -0.1898 -0.4253 -0.6975
16565SOL    HW151146   8.239   9.028   7.878 -0.6387 -0.0382 -0.5651
16565SOL    HW251147   8.288   8.984   7.742  0.2237 -0.3684 -0.1619
16566SOL     OW51148   2.810   7.822   3.938  0.0920 -0.3875 -0.1050
16566SOL    HW151149   2.899   7.853   3.922 -0.3668  0.7804 -0.5184
16566SOL    HW251150   2.782   7.869   4.017 -0.6380  0.3428 -0.7774
16567SOL     OW51151   6.789   4.183   5.633  0.5183 -0.1756 -0.0167
16567SOL    HW151152   6.764   4.100   5.592  2.0803 -0.8269  0.2714
16567SOL    HW251153   6.802   4.242   5.559 -1.0797 -0.0281 -0.2000
16568SOL     OW51154   7.931   4.034   6.281 -0.2193 -0.2563  0.0768
16568SOL    HW151155   8.005   3.980   6.308 -1.0945 -1.2743  0.5006
16568SOL    HW251156   7.960   4.075   6.200  0.8063 -0.6428  0.2346
16569SOL     OW51157   1.297   0.245   8.480  0.1393  0.0117  0.6105
16569SOL    HW151158   1.368   0.187   8.509  1.2411  1.3845  0.7644
16569SOL    HW251159   1.329   0.283   8.399 -1.2356 -0.7336 -0.3128
16570SOL     OW51160   8.096   2.481   4.042 -0.1348  0.5443 -0.6866
16570SOL    HW151161   8.084   2.400   3.994 -0.3595 -0.2377  0.6337
16570SOL    HW251162   8.180   2.515   4.012  0.2982 -0.5442 -0.7530
16571SOL     OW51163   5.607   7.546   4.856 -0.6504 -0.5343 -0.9574
16571SOL    HW151164   5.580   7.460   4.889 -1.3349 -0.1420 -0.4842
16571SOL    HW251165   5.526   7.592   4.836 -0.3131  0.2509 -0.5732
16572SOL     OW51166   0.992   1.312   4.151  0.1616 -0.4635  0.4386
16572SOL    HW151167   1.045   1.310   4.230  1.2175 -0.6148 -0.2572
16572SOL    HW251168   1.036   1.251   4.091  0.9699  1.6676 -1.2534
16573SOL     OW51169   4.089   3.918   4.807 -0.1338 -0.0874 -0.7484
16573SOL    HW151170   4.105   4.008   4.780  0.5613 -0.0069 -0.1117
16573SOL    HW251171   4.070   3.872   4.726 -3.2448  1.1305 -0.8460
16574SOL     OW51172   1.143   6.883   4.465  0.3823 -0.4306  0.4039
16574SOL    HW151173   1.080   6.813   4.447  1.1722 -1.1340  0.3287
16574SOL    HW251174   1.115   6.919   4.549 -0.0673 -0.7930  0.4165
16575SOL     OW51175   5.755   5.185   2.521  0.1875 -0.1640 -0.5468
16575SOL    HW151176   5.769   5.278   2.539 -1.2877  0.2522 -1.3629
16575SOL    HW251177   5.748   5.179   2.426 -1.4219 -0.8005 -0.4307
16576SOL     OW51178   7.407   1.895   1.637  0.1219 -0.4639 -0.3965
16576SOL    HW151179   7.352   1.819   1.617 -1.1535  0.4404 -0.4832
16576SOL    HW251180   7.373   1.965   1.581  1.1769  0.2145 -0.2226
16577SOL     OW51181   6.628   7.399   8.489  0.1121  0.1574 -0.1653
16577SOL    HW151182   6.639   7.317   8.441 -0.8623  0.8093 -1.5998
16577SOL    HW251183   6.644   7.467   8.423 -2.5186  1.1024  0.0501
16578SOL     OW51184   7.033   1.378   4.460 -0.1164  0.3066  0.1711
16578SOL    HW151185   7.032   1.447   4.394  0.7690  1.2659  1.1268
16578SOL    HW251186   7.015   1.422   4.542  0.5336 -0.5797  0.8143
16579SOL     OW51187   8.692   7.776   6.374  0.1196  0.0824 -0.0690
16579SOL    HW151188   8.754   7.706   6.392  0.4954  0.6054  0.7084
16579SOL    HW251189   8.606   7.736   6.386  0.3218 -0.3528 -0.0654
16580SOL     OW51190   0.026   5.814   4.250  0.4113  0.6141 -0.2512
16580SOL    HW151191   0.063   5.727   4.266  2.7219  1.2904 -1.5120
16580SOL    HW251192   0.064   5.869   4.319 -0.1869  0.8561 -0.1093
16581SOL     OW51193   6.389   2.715   1.120 -0.1278  0.6380 -0.0334
16581SOL    HW151194   6.385   2.643   1.057 -0.6385  0.6349  0.0004
16581SOL    HW251195   6.407   2.792   1.066 -0.4172  0.6133 -0.1660
16582SOL     OW51196   3.604   7.512   8.245  0.0501  0.2798 -0.5631
16582SOL    HW151197   3.599   7.418   8.231 -0.1171  0.2393 -0.2496
16582SOL    HW251198   3.625   7.522   8.338 -1.4330  0.5508 -0.2166
16583SOL     OW51199   0.153   0.152   2.563 -0.5114 -0.5437  0.0627
16583SOL    HW151200   0.111   0.120   2.643  0.2063 -1.2562  0.1739
16583SOL    HW251201   0.168   0.245   2.578 -4.3805  0.4087 -1.0058
16584SOL     OW51202   4.348   6.940   1.821  0.2153  0.3899 -0.4268
16584SOL    HW151203   4.257   6.947   1.848 -1.5262 -3.7129 -4.1126
16584SOL    HW251204   4.389   6.889   1.891 -1.0743 -0.0584  0.0365
16585SOL     OW51205   4.130   1.727   3.801  0.5383  0.3019 -0.0437
16585SOL    HW151206   4.066   1.782   3.846  0.2219 -1.7340  2.1919
16585SOL    HW251207   4.097   1.719   3.711 -0.0840  2.6018 -0.0689
16586SOL     OW51208   9.189   5.326   2.066 -0.3851  0.3892 -0.5782
16586SOL    HW151209   9.148   5.242   2.048 -2.2878  1.1525 -0.1429
16586SOL    HW251210   9.227   5.316   2.153 -2.9761  0.7053  0.6988
16587SOL     OW51211   0.737   5.080   8.335  0.3282  0.1715  0.4714
16587SOL    HW151212   0.664   5.031   8.296 -0.6040  1.4923  0.4952
16587SOL    HW251213   0.815   5.039   8.298 -0.4691 -0.2144 -0.8615
16588SOL     OW51214   3.422   4.600   1.481  0.7007  0.5631  0.0653
16588SOL    HW151215   3.477   4.604   1.559 -0.0824  0.7232  0.6207
16588SOL    HW251216   3.348   4.545   1.506 -0.3784  1.9037 -0.0260
16589SOL     OW51217   1.954   0.677   7.421  0.4937  0.0661 -0.2276
16589SOL    HW151218   1.893   0.679   7.347  2.1925  0.7473 -1.6788
16589SOL    HW251219   1.900   0.702   7.497 -1.1904 -0.1739 -1.2882
16590SOL     OW51220   1.560   9.076   2.387 -0.1945 -0.2277  0.0662
16590SOL    HW151221   1.547   9.026   2.468  0.4853 -0.9435 -0.2572
16590SOL    HW251222   1.629   9.029   2.341 -1.3814 -0.5289 -1.5004
16591SOL     OW51223   4.886   8.272   2.041 -0.6090 -0.4734 -0.0457
16591SOL    HW151224   4.952   8.203   2.031 -1.1181 -1.2014  1.3725
16591SOL    HW251225   4.839   8.272   1.957  1.0049 -0.0822 -1.0108
16592SOL     OW51226   9.211   4.400   5.427 -0.0950 -0.3127  0.0557
16592SOL    HW151227   9.198   4.494   5.440  2.2854 -0.2449  3.5096
16592SOL    HW251228   9.289   4.380   5.480  0.1146 -4.0690 -1.3993
16593SOL     OW51229   8.367   1.270   4.739  0.2710  0.0788 -0.0512
16593SOL    HW151230   8.390   1.249   4.649  1.6403  0.9370  0.0628
16593SOL    HW251231   8.316   1.350   4.733 -0.8461 -0.6187 -0.1421
16594SOL     OW51232   7.229   9.279   7.297  0.9709 -0.3233  0.2633
16594SOL    HW151233   7.308   9.282   7.351  0.3238 -1.0088  1.2985
16594SOL    HW251234   7.240   9.349   7.233  1.8702  0.3732  1.1485
16595SOL     OW51235   1.058   2.923   7.016  0.6033 -0.6746 -0.2539
16595SOL    HW151236   1.136   2.919   6.961  0.7302  0.0542 -0.1307
16595SOL    HW251237   1.090   2.917   7.105  0.3200 -2.9584 -0.2468
16596SOL     OW51238   1.419   4.921   4.938 -0.1436  0.1332 -0.1833
16596SOL    HW151239   1.392   4.863   4.866 -0.0436 -1.5866  1.0929
16596SOL    HW251240   1.433   4.862   5.012  2.7212  1.4615  0.4686
16597SOL     OW51241   5.083   8.101   4.187  0.5525  0.1252  0.1111
16597SOL    HW151242   5.094   8.190   4.155  0.8790  0.6940  1.6789
16597SOL    HW251243   4.989   8.093   4.205  0.6784  0.5919  1.0727
16598SOL     OW51244   6.819   2.032   7.758  0.6177 -0.5829 -0.2147
16598SOL    HW151245   6.870   2.106   7.725  1.2631 -1.0803 -0.3522
16598SOL    HW251246   6.864   2.005   7.838  0.9927 -1.4600 -0.7002
16599SOL     OW51247   5.879   4.609   4.541 -0.0711  0.1314  0.2378
16599SOL    HW151248   5.786   4.588   4.543 -0.0728  0.0287 -0.7421
16599SOL    HW251249   5.892   4.664   4.618 -1.3551  1.8317 -0.6909
16600SOL     OW51250   0.145   1.769   8.416 -0.3711  0.1761  0.5033
16600SOL    HW151251   0.070   1.789   8.361 -0.0074  1.6182  0.4652
16600SOL    HW251252   0.169   1.679   8.394 -0.5251  0.5474 -1.3433
16601SOL     OW51253   5.307   2.284   5.195  0.1715  0.7766  0.0682
16601SOL    HW151254   5.280   2.266   5.105 -1.7457  1.8479  0.3677
16601SOL    HW251255   5.318   2.379   5.198 -0.4790  0.8385  1.1006
16602SOL     OW51256   3.688   3.627   2.207  0.1147 -0.0270 -0.5152
16602SOL    HW151257   3.698   3.704   2.151  1.5062  0.6792  0.6396
16602SOL    HW251258   3.610   3.646   2.259  0.9976  1.1131  0.4579
16603SOL     OW51259   8.940   1.997   4.088  0.8452 -0.3453 -0.4447
16603SOL    HW151260   9.010   1.948   4.044  1.6576  1.2716 -1.0305
16603SOL    HW251261   8.945   2.085   4.051 -0.4433  0.2516  0.7052
16604SOL     OW51262   4.698   7.267   2.197  0.0545 -0.8326 -0.1059
16604SOL    HW151263   4.644   7.203   2.243  0.4574 -0.5825  0.7204
16604SOL    HW251264   4.765   7.214   2.154 -0.1309 -1.0355 -0.1527
16605SOL     OW51265   8.188   2.846   0.657 -0.1337 -0.0888  0.8316
16605SOL    HW151266   8.281   2.832   0.644 -0.4005 -0.2768 -1.2943
16605SOL    HW251267   8.146   2.794   0.589 -1.4995  4.2883 -2.1664
16606SOL     OW51268   6.359   6.556   3.107  0.2865  0.2014  0.8360
16606SOL    HW151269   6.365   6.652   3.107  0.8686  0.1658  0.5398
16606SOL    HW251270   6.317   6.535   3.191  1.7464  0.6214  1.7014
16607SOL     OW51271   4.905   4.732   3.643 -0.1546  0.2336  0.2039
16607SOL    HW151272   4.837   4.706   3.705 -0.6411  0.3846 -0.2539
16607SOL    HW251273   4.873   4.815   3.606 -0.8665 -0.8244 -1.7097
16608SOL     OW51274   1.693   2.802   6.774  0.0549  0.1225  0.0078
16608SOL    HW151275   1.661   2.785   6.685  0.9784  0.1210 -0.3403
16608SOL    HW251276   1.745   2.883   6.765  0.5269 -0.1248  0.4505
16609SOL     OW51277   5.781   6.433   4.680  0.0211  0.3978 -0.4078
16609SOL    HW151278   5.793   6.425   4.586 -0.0729  0.8801 -0.4673
16609SOL    HW251279   5.867   6.457   4.714  0.6516 -2.1221 -0.0518
16610SOL     OW51280   4.527   0.041   5.955 -0.2411  0.5480  0.4178
16610SOL    HW151281   4.443   0.087   5.965 -0.1108  1.0196 -0.4912
16610SOL    HW251282   4.516  -0.011   5.875  1.3386  3.0463 -1.5972
16611SOL     OW51283   2.832   6.942   8.384  0.4492  0.2515 -0.5289
16611SOL    HW151284   2.865   6.899   8.306  2.3871 -1.4546  1.1118
16611SOL    HW251285   2.840   6.876   8.453 -1.6481  1.5193  1.0353
16612SOL     OW51286   0.433   0.550   7.715  0.0261 -0.2831  0.3593
16612SOL    HW151287   0.402   0.592   7.795  1.0451 -2.3663  1.9406
16612SOL    HW251288   0.490   0.479   7.745  2.5866  0.4336 -2.2671
16613SOL     OW51289   1.232   6.249   6.234 -0.1104 -0.6326 -0.0786
16613SOL    HW151290   1.268   6.160   6.233 -1.2365 -1.1181  0.7852
16613SOL    HW251291   1.196   6.259   6.321 -1.0827  0.2320 -0.5608
16614SOL     OW51292   1.717   6.839   5.638 -0.1529  0.0622 -0.4534
16614SOL    HW151293   1.675   6.809   5.719 -0.6088 -1.6472 -1.2859
16614SOL    HW251294   1.774   6.911   5.666  0.0815 -0.8116  1.4716
16615SOL     OW51295   1.965   2.034   7.646  0.1300 -0.0987  0.7114
16615SOL    HW151296   1.896   2.097   7.667  0.5128  0.8730 -0.7950
16615SOL    HW251297   1.959   1.968   7.716 -0.7388  1.2171  1.9500
16616SOL     OW51298   6.854   2.279   2.070  0.6822 -0.0126 -0.4429
16616SOL    HW151299   6.901   2.231   2.138 -0.7746  0.3219  0.8807
16616SOL    HW251300   6.783   2.324   2.118 -1.2143 -0.8120 -2.3299
16617SOL     OW51301   3.991   8.729   5.761 -0.1193  0.1235  0.1925
16617SOL    HW151302   4.017   8.673   5.687 -0.6822 -0.2755  0.2891
16617SOL    HW251303   4.048   8.701   5.833  0.2140  0.2956 -0.0002
16618SOL     OW51304   3.629   5.730   4.966  0.4673 -0.0226  0.3306
16618SOL    HW151305   3.573   5.776   4.904 -1.4568  1.0303  2.6880
16618SOL    HW251306   3.658   5.652   4.919 -1.8694  0.0926 -1.4858
16619SOL     OW51307   3.023   8.299   0.624  0.1345  0.4003  0.5642
16619SOL    HW151308   3.072   8.373   0.659 -1.3134  1.8956 -0.4238
16619SOL    HW251309   3.079   8.265   0.554  0.1329  1.6081 -0.0531
16620SOL     OW51310   4.753   9.238   9.186 -0.5676 -0.3937  0.1323
16620SOL    HW151311   4.737   9.171   9.119 -0.0763 -1.6285  1.1884
16620SOL    HW251312   4.781   9.188   9.263  0.1488  1.0629  0.8651
16621SOL     OW51313   6.407   3.850   6.807  0.5092  0.0561 -0.6050
16621SOL    HW151314   6.473   3.837   6.738  1.8507  2.8043 -0.0056
16621SOL    HW251315   6.326   3.866   6.759  1.2159  0.9602 -1.5668
16622SOL     OW51316   1.574   8.516   6.614 -0.4007  0.2914  0.4735
16622SOL    HW151317   1.540   8.455   6.680 -0.9323 -0.3486 -0.3808
16622SOL    HW251318   1.667   8.493   6.606 -1.0319 -1.9952 -1.4712
16623SOL     OW51319   5.000   0.806   0.288  0.2472  0.1154  0.0567
16623SOL    HW151320   4.933   0.759   0.239  0.8238  0.2782 -0.8992
16623SOL    HW251321   4.968   0.896   0.291  0.3353  0.1572 -0.2458
16624SOL     OW51322   1.178   0.553   5.211 -0.1356 -0.0719 -0.0771
16624SOL    HW151323   1.250   0.548   5.149  2.0332  0.2147  2.2303
16624SOL    HW251324   1.136   0.467   5.206  1.1442 -0.6889 -0.6445
16625SOL     OW51325   4.544   2.757   3.915  0.4772 -0.1112  0.1696
16625SOL    HW151326   4.555   2.664   3.933  0.2082  0.1800  2.0382
16625SOL    HW251327   4.617   2.779   3.857 -0.1675 -1.7233 -1.3254
16626SOL     OW51328   4.748   1.813   1.911  0.0995  0.2445  0.1151
16626SOL    HW151329   4.841   1.837   1.918  0.3119 -0.2643 -0.7943
16626SOL    HW251330   4.734   1.798   1.818 -1.5469  2.7737 -0.1485
16627SOL     OW51331   4.852   7.601   5.181 -0.7647 -0.3436 -0.4574
16627SOL    HW151332   4.898   7.592   5.098  0.5854  1.5937  0.0081
16627SOL    HW251333   4.901   7.545   5.242  0.6148  1.1551 -0.1331
16628SOL     OW51334   4.279   4.653   0.761 -0.0579 -0.2750 -0.0921
16628SOL    HW151335   4.358   4.630   0.810  1.3442  0.1998 -1.9845
16628SOL    HW251336   4.304   4.642   0.669 -1.8524  0.9337 -0.7869
16629SOL     OW51337   4.615   8.790   5.250 -0.0854  0.3000 -0.1541
16629SOL    HW151338   4.523   8.763   5.258 -0.6318  2.0454 -0.1446
16629SOL    HW251339   4.640   8.812   5.340  0.6394 -0.9713 -0.0177
16630SOL     OW51340   8.640   1.221   3.035 -0.0238 -0.1626 -0.2862
16630SOL    HW151341   8.675   1.305   3.064  0.6850 -0.8084  0.8198
16630SOL    HW251342   8.560   1.209   3.086  0.6729 -0.8220  0.6944
16631SOL     OW51343   5.582   1.266   8.377  0.1252  0.0712 -0.5904
16631SOL    HW151344   5.515   1.207   8.411  0.3237 -0.8591 -1.7329
16631SOL    HW251345   5.627   1.300   8.454  0.3352 -1.6870  0.0958
16632SOL     OW51346   1.111   0.265   4.007  0.3278 -0.0221 -0.3259
16632SOL    HW151347   1.079   0.355   3.995  0.0928 -0.4418 -4.0056
16632SOL    HW251348   1.037   0.210   3.980  0.6531 -1.3427  1.3404
16633SOL     OW51349   6.788   8.203   8.441  0.3147  0.0582 -0.4103
16633SOL    HW151350   6.807   8.114   8.468 -0.2706  0.2829  0.8110
16633SOL    HW251351   6.873   8.242   8.421  0.5870 -0.6924 -0.7442
16634SOL     OW51352   3.162   0.105   8.847 -0.1959  0.3231  0.1541
16634SOL    HW151353   3.095   0.040   8.824  0.4734 -0.5648  0.6500
16634SOL    HW251354   3.126   0.188   8.816 -0.4371 -0.4576 -1.8280
16635SOL     OW51355   7.492   4.580   2.898 -0.1468 -0.0393 -0.3566
16635SOL    HW151356   7.479   4.650   2.962  0.6573  0.0720 -0.3010
16635SOL    HW251357   7.585   4.587   2.874 -0.2173 -0.6768 -0.8305
16636SOL     OW51358   3.241   4.869   7.273  0.2706 -0.4485  0.2977
16636SOL    HW151359   3.269   4.778   7.282 -0.2260 -0.5711  0.6682
16636SOL    HW251360   3.192   4.887   7.354  1.5518  0.5931  0.8982
16637SOL     OW51361   3.891   3.957   5.053  0.0293 -0.1078 -0.2450
16637SOL    HW151362   3.908   3.863   5.048  0.5503 -0.0429  0.1993
16637SOL    HW251363   3.962   3.997   5.003 -0.6156  0.0258 -1.0891
16638SOL     OW51364   4.283   2.818   1.832  0.8141 -0.2559  0.2353
16638SOL    HW151365   4.257   2.769   1.909 -1.0084  2.2912  1.3616
16638SOL    HW251366   4.267   2.758   1.759  1.6081 -2.3562  1.6772
16639SOL     OW51367   1.777   0.439   7.897  0.8348 -0.1590  0.2917
16639SOL    HW151368   1.802   0.367   7.956  1.8216  1.7152  2.3040
16639SOL    HW251369   1.860   0.474   7.866  0.4083  0.6238  0.0170
16640SOL     OW51370   0.759   7.701   8.871  0.0823 -0.5142 -0.0041
16640SOL    HW151371   0.852   7.698   8.848 -0.1611  0.6076 -1.2518
16640SOL    HW251372   0.758   7.730   8.962  0.9526 -0.6482  0.0564
16641SOL     OW51373   6.224   2.046   9.053 -0.0126  0.0187 -0.2464
16641SOL    HW151374   6.298   2.103   9.033 -0.7216  1.2988  0.6282
16641SOL    HW251375   6.263   1.959   9.062  0.8726  0.0291 -3.1472
16642SOL     OW51376   7.388   7.303   3.633 -0.1461  0.1641 -0.1445
16642SOL    HW151377   7.461   7.353   3.668 -0.1625 -0.6877  1.1963
16642SOL    HW251378   7.313   7.362   3.639  0.5757  1.4499 -2.5851
16643SOL     OW51379   2.213   4.282   3.330  0.3241 -0.0531  0.3323
16643SOL    HW151380   2.151   4.352   3.309  0.4064  0.2043  0.9458
16643SOL    HW251381   2.290   4.328   3.363  0.3152 -0.4377  0.8971
16644SOL     OW51382   0.885   3.338   7.328 -0.4615 -0.3666 -0.2612
16644SOL    HW151383   0.866   3.332   7.235 -0.7788  1.8243 -0.3770
16644SOL    HW251384   0.958   3.277   7.342 -0.3506 -0.6561 -1.9322
16645SOL     OW51385   0.859   7.865   6.957 -0.1732 -0.2643 -0.0530
16645SOL    HW151386   0.797   7.874   7.030 -0.6625 -2.2562 -0.1764
16645SOL    HW251387   0.933   7.818   6.995 -0.0219 -0.4771 -0.6132
16646SOL     OW51388   7.711   6.064   2.918 -0.5047  0.0072  0.1296
16646SOL    HW151389   7.680   6.148   2.953 -0.9521  0.1048 -0.4915
16646SOL    HW251390   7.661   5.999   2.967  0.8324  0.0289  1.6032
16647SOL     OW51391   5.007   1.627   1.591 -0.0055 -0.0884 -0.0363
16647SOL    HW151392   4.935   1.581   1.549 -0.4381  0.7463 -0.2252
16647SOL    HW251393   5.084   1.574   1.570 -0.4574 -0.6052 -0.4307
16648SOL     OW51394   8.940   7.573   6.385 -0.1041 -0.3224  0.0426
16648SOL    HW151395   9.001   7.617   6.326 -1.4453  1.2857 -0.1998
16648SOL    HW251396   8.929   7.485   6.347  0.4954  0.0571 -1.0412
16649SOL     OW51397   0.266   7.260   1.206  0.5599 -0.2675  0.1756
16649SOL    HW151398   0.181   7.268   1.250 -0.0607  0.1210 -1.0545
16649SOL    HW251399   0.270   7.168   1.180  0.4388 -0.2481  0.0866
16650SOL     OW51400   5.722   4.176   8.849 -0.2096 -0.4541  0.3380
16650SOL    HW151401   5.724   4.213   8.760 -1.0502  1.0624  0.8986
16650SOL    HW251402   5.783   4.231   8.898 -1.3739  0.1521  1.1638
16651SOL     OW51403   0.035   2.446   5.168 -0.3303  0.1372  0.5646
16651SOL    HW151404   0.059   2.354   5.166 -0.3958  0.0661  1.8643
16651SOL    HW251405  -0.008   2.462   5.085  1.9930 -0.3429 -0.8105
16652SOL     OW51406   9.226   1.964   2.728 -0.1786 -0.2135  0.4588
16652SOL    HW151407   9.241   2.058   2.736 -1.3272  0.1672 -1.3346
16652SOL    HW251408   9.185   1.953   2.642 -0.7904 -2.2697  0.9509
16653SOL     OW51409   1.274   1.091   7.136 -0.1405  0.5151  0.0315
16653SOL    HW151410   1.234   1.013   7.097 -0.6373  2.1510 -3.0338
16653SOL    HW251411   1.235   1.096   7.223 -3.3952 -0.3967 -1.2048
16654SOL     OW51412   7.659   5.920   4.996 -0.0133  0.1061  0.0522
16654SOL    HW151413   7.716   5.978   4.946  2.6731 -1.5206  0.9923
16654SOL    HW251414   7.639   5.970   5.076  1.2980  0.2376  0.3291
16655SOL     OW51415   4.246   3.307   1.324 -0.1851  0.0985  0.8643
16655SOL    HW151416   4.161   3.273   1.350 -0.5657 -0.6094 -1.1258
16655SOL    HW251417   4.227   3.396   1.292 -0.5501 -0.6914 -1.2820
16656SOL     OW51418   4.584   5.221   6.683  0.1590 -0.1517 -0.1613
16656SOL    HW151419   4.562   5.134   6.649 -0.6853 -0.0730  0.1620
16656SOL    HW251420   4.510   5.244   6.739  0.2765  0.8562 -0.4002
16657SOL     OW51421   9.099   5.654   7.425  0.0996 -0.2827 -0.4282
16657SOL    HW151422   9.012   5.693   7.414  0.1604  0.0492  0.2119
16657SOL    HW251423   9.147   5.681   7.347  0.2796  1.3503  0.2039
16658SOL     OW51424   5.313   7.993   4.895 -0.0777  0.4565 -0.0755
16658SOL    HW151425   5.357   7.950   4.821 -1.1796  0.0498 -0.5195
16658SOL    HW251426   5.302   7.923   4.960 -1.5372  0.1145 -0.6476
16659SOL     OW51427   2.190   4.549   8.635 -0.2338 -0.3259  0.7452
16659SOL    HW151428   2.221   4.622   8.689  1.8297 -1.5922  1.3792
16659SOL    HW251429   2.164   4.590   8.552  0.5017  1.1619  1.2155
16660SOL     OW51430   3.560   3.106   1.874 -0.0786 -0.0477  0.4943
16660SOL    HW151431   3.522   3.070   1.793 -0.3183  3.2909 -1.0169
16660SOL    HW251432   3.653   3.114   1.855 -0.1809  1.0265  0.4227
16661SOL     OW51433   7.546   3.306   1.080  0.6697 -0.1671 -0.3118
16661SOL    HW151434   7.635   3.328   1.105  0.4594 -0.6961  0.9594
16661SOL    HW251435   7.499   3.297   1.163 -1.1639  2.3967 -0.9451
16662SOL     OW51436   1.234   5.473   8.638  0.0363  0.3688 -0.4153
16662SOL    HW151437   1.147   5.453   8.673  0.4793 -0.4434  0.2655
16662SOL    HW251438   1.260   5.392   8.593  0.2144  0.7974 -1.0887
16663SOL     OW51439   5.456   7.039   5.331  0.4362  0.5799 -0.1913
16663SOL    HW151440   5.372   7.077   5.354 -1.2604 -3.2998  0.7744
16663SOL    HW251441   5.496   7.016   5.416  2.1742  1.6890 -0.6641
16664SOL     OW51442   0.550   2.628   0.430 -0.0139 -0.2625  0.8168
16664SOL    HW151443   0.520   2.687   0.361  0.5664 -0.0204  0.7679
16664SOL    HW251444   0.499   2.653   0.507  0.5956  0.6677  0.9350
16665SOL     OW51445   8.607   9.022   2.574  0.6849  0.6700 -0.2600
16665SOL    HW151446   8.515   9.038   2.596  0.7030  2.1028 -1.0670
16665SOL    HW251447   8.651   9.014   2.659 -0.1062  0.5021  0.1387
16666SOL     OW51448   5.498   3.575   4.593  0.3904 -0.4682  0.1483
16666SOL    HW151449   5.440   3.554   4.666  1.1958 -2.3950  0.3025
16666SOL    HW251450   5.583   3.538   4.618  1.0330  0.0344 -1.1694
16667SOL     OW51451   4.068   1.301   0.992 -0.8458 -0.1477 -0.5620
16667SOL    HW151452   4.091   1.231   0.931 -0.4221  1.0082 -1.7919
16667SOL    HW251453   3.984   1.334   0.960 -0.3737  0.8062 -0.8671
16668SOL     OW51454   5.562   5.990   4.338  0.0548  0.1078  0.3615
16668SOL    HW151455   5.563   6.083   4.359 -0.4089  0.8746 -2.6089
16668SOL    HW251456   5.539   5.986   4.246  0.3759 -2.9656  0.3041
16669SOL     OW51457   1.553   8.319   0.571 -0.4332 -0.3248  0.3146
16669SOL    HW151458   1.644   8.345   0.585 -0.7524  1.1357 -0.0663
16669SOL    HW251459   1.558   8.235   0.527  0.6990 -0.9468  1.5602
16670SOL     OW51460   8.464   8.221   4.975 -0.3098  0.1574 -0.1239
16670SOL    HW151461   8.398   8.153   4.984  0.7710 -0.8447  0.5074
16670SOL    HW251462   8.497   8.235   5.063  0.1645  0.8084 -0.3959
16671SOL     OW51463   8.601   6.734   1.236  0.6840  0.1630  1.0616
16671SOL    HW151464   8.536   6.793   1.274 -2.3310 -1.3883 -1.2652
16671SOL    HW251465   8.586   6.651   1.282 -2.1694 -1.3935 -2.2457
16672SOL     OW51466   4.947   1.747   3.163 -0.5186  0.1861  0.5854
16672SOL    HW151467   5.000   1.667   3.162  0.7362  0.9806 -0.5971
16672SOL    HW251468   4.921   1.760   3.072 -0.1500  1.4505  0.6309
16673SOL     OW51469   8.067   5.563   8.431 -0.1238 -0.6269 -0.1005
16673SOL    HW151470   8.061   5.583   8.338  1.0190 -0.5935 -0.1761
16673SOL    HW251471   8.080   5.648   8.473 -0.5759 -0.6480  0.0882
16674SOL     OW51472   4.147   1.368   3.447  0.2128  0.4964 -0.0010
16674SOL    HW151473   4.061   1.395   3.480  1.2181  0.1577  3.1323
16674SOL    HW251474   4.145   1.272   3.451  0.8385  0.4969  0.4046
16675SOL     OW51475   2.566   3.031   2.008  0.1589  0.1949 -0.0218
16675SOL    HW151476   2.558   2.997   1.919  0.1486  0.4020 -0.1011
16675SOL    HW251477   2.618   3.111   1.998 -2.3265  1.8948 -0.2532
16676SOL     OW51478   4.470   7.152   3.785  0.5073  0.2876 -0.2561
16676SOL    HW151479   4.424   7.156   3.701  0.4090 -0.4504 -0.2472
16676SOL    HW251480   4.441   7.069   3.824  0.5756  0.6104  0.4950
16677SOL     OW51481   9.095   0.903   4.224 -0.2137  0.3942  0.2020
16677SOL    HW151482   9.165   0.869   4.280  0.4552 -1.2920 -1.5614
16677SOL    HW251483   9.044   0.960   4.282 -1.3482 -3.4276  3.3837
16678SOL     OW51484   6.783   3.231   2.943 -0.2235  0.3758 -0.0735
16678SOL    HW151485   6.853   3.263   2.887 -0.0112 -0.0062 -0.0285
16678SOL    HW251486   6.704   3.274   2.910 -0.2379 -0.4674 -1.2077
16679SOL     OW51487   9.094   2.416   1.949  0.0690 -0.2227 -0.4718
16679SOL    HW151488   9.181   2.393   1.982 -0.5828 -1.2688  0.6362
16679SOL    HW251489   9.048   2.331   1.943 -1.4360  0.4461  0.7100
16680SOL     OW51490   0.749   3.485   0.048 -0.5185  0.5487 -0.2731
16680SOL    HW151491   0.834   3.524   0.069  0.4703 -0.8161 -1.5560
16680SOL    HW251492   0.686   3.535   0.100  1.1240  1.2233  1.1419
16681SOL     OW51493   2.666   5.542   4.691  0.3722  0.1477 -0.3351
16681SOL    HW151494   2.621   5.470   4.735  2.2075 -0.8733 -0.0280
16681SOL    HW251495   2.671   5.611   4.757  0.9259 -0.4492  0.2639
16682SOL     OW51496   8.114   3.255   1.197 -0.1256 -0.6344  0.3185
16682SOL    HW151497   8.109   3.285   1.106  1.9159  0.1294  0.3953
16682SOL    HW251498   8.029   3.214   1.214  0.2008 -2.9467 -2.6721
16683SOL     OW51499   5.311   3.872   7.178 -0.3551 -0.4379  0.4927
16683SOL    HW151500   5.288   3.811   7.108 -0.5678 -1.1232  1.1459
16683SOL    HW251501   5.240   3.863   7.241 -0.7285  0.9796  0.2959
16684SOL     OW51502   0.870   8.867   2.012  0.1862 -0.1948 -0.2046
16684SOL    HW151503   0.782   8.845   1.980  0.6526 -0.4906 -1.3154
16684SOL    HW251504   0.856   8.891   2.104 -0.9877 -0.6931 -0.2292
16685SOL     OW51505   6.671   8.478   1.892 -0.2115  0.3826 -0.6379
16685SOL    HW151506   6.587   8.487   1.937  0.5555  0.8364  0.7547
16685SOL    HW251507   6.710   8.565   1.896  1.1970 -0.2666  0.5609
16686SOL     OW51508   3.907   1.681   4.791  0.4382 -0.2294  0.1773
16686SOL    HW151509   3.930   1.672   4.884  0.0258  0.2717  0.3279
16686SOL    HW251510   3.828   1.629   4.780  0.5407 -0.3678  0.0801
16687SOL     OW51511   6.312   3.314   8.133  0.0671 -0.0073  0.2056
16687SOL    HW151512   6.272   3.398   8.108  0.7958 -0.1137 -1.4365
16687SOL    HW251513   6.394   3.338   8.174  0.9506  0.1101 -1.5162
16688SOL     OW51514   2.365   5.416   2.716 -0.6112 -0.1025  0.0768
16688SOL    HW151515   2.363   5.333   2.763  1.6564 -1.0851 -1.3874
16688SOL    HW251516   2.291   5.466   2.752 -0.0767 -1.4187  3.3910
16689SOL     OW51517   8.884   2.091   7.231  0.2505  0.1551 -0.2751
16689SOL    HW151518   8.851   2.033   7.162  1.8329 -0.7573 -0.3055
16689SOL    HW251519   8.925   2.032   7.294 -0.6766  1.0235  1.1932
16690SOL     OW51520   1.686   3.425   5.674 -0.4562  0.0309  0.1507
16690SOL    HW151521   1.607   3.369   5.673 -0.8356  0.5660 -0.3766
16690SOL    HW251522   1.667   3.494   5.611  0.3558  0.2933  0.1860
16691SOL     OW51523   2.509   1.667   2.865 -0.1885 -0.3623 -0.1664
16691SOL    HW151524   2.585   1.644   2.920  1.5545 -0.1136 -2.3086
16691SOL    HW251525   2.537   1.745   2.818 -1.5851 -0.5841 -1.4214
16692SOL     OW51526   6.890   4.829   0.693 -0.6862  0.1582 -0.3730
16692SOL    HW151527   6.963   4.844   0.633 -0.8947 -0.3345 -0.7568
16692SOL    HW251528   6.931   4.821   0.779 -0.2790 -0.1598 -0.5927
16693SOL     OW51529   3.020   5.753   0.759  0.3136 -0.0422 -0.8330
16693SOL    HW151530   3.112   5.749   0.732  0.5645 -0.0624  0.0106
16693SOL    HW251531   3.002   5.846   0.769  1.1356 -0.1082  1.9312
16694SOL     OW51532   0.607   8.309   7.519 -0.3196 -0.3017  0.2607
16694SOL    HW151533   0.546   8.292   7.448  0.7634  0.7602 -0.9898
16694SOL    HW251534   0.688   8.266   7.491  0.6901  1.7315 -0.1393
16695SOL     OW51535   5.044   5.717   7.228  0.0892  0.4389  0.4004
16695SOL    HW151536   4.998   5.790   7.186 -2.7718 -0.5249  1.6256
16695SOL    HW251537   5.045   5.648   7.161 -2.2652 -0.2474  0.9780
16696SOL     OW51538   7.504   7.723   5.278 -0.0210 -0.3009  0.1368
16696SOL    HW151539   7.485   7.631   5.258  1.2988 -0.5225 -0.2298
16696SOL    HW251540   7.420   7.760   5.303 -0.3840 -1.9673  1.6903
16697SOL     OW51541   2.263   4.586   7.541  0.1248 -0.4849 -0.7170
16697SOL    HW151542   2.189   4.565   7.484 -0.5629  1.4773 -0.6294
16697SOL    HW251543   2.340   4.578   7.485 -0.4038 -0.0807 -1.5190
16698SOL     OW51544   5.077   5.254   3.302 -0.5972  0.0889  0.1277
16698SOL    HW151545   5.150   5.241   3.362  0.4599 -1.4064 -1.3897
16698SOL    HW251546   5.030   5.330   3.338  2.5853  2.1760  0.3375
16699SOL     OW51547   1.936   5.601   2.451 -0.0802 -0.2831 -0.9381
16699SOL    HW151548   1.972   5.562   2.371  0.4994 -0.1620 -0.7421
16699SOL    HW251549   1.885   5.676   2.419  1.2803  0.6020 -1.1227
16700SOL     OW51550   6.455   8.959   7.633 -0.4259  0.5023 -0.5603
16700SOL    HW151551   6.501   8.952   7.716 -1.2993  2.1243  0.1042
16700SOL    HW251552   6.515   8.921   7.569 -0.3877 -2.2391  0.9741
16701SOL     OW51553   2.633   0.117   5.250 -0.2954 -0.3361 -0.3435
16701SOL    HW151554   2.728   0.111   5.250 -0.0855  0.1326 -4.1573
16701SOL    HW251555   2.603   0.028   5.231 -0.3730 -0.0080 -1.9394
16702SOL     OW51556   1.299   4.950   2.013 -0.0016  0.4074 -0.7002
16702SOL    HW151557   1.361   4.893   2.059  1.2275  1.3097 -1.1820
16702SOL    HW251558   1.249   4.992   2.083 -0.6375 -0.9384 -0.3287
16703SOL     OW51559   7.256   8.324   4.649 -0.1368 -0.2179 -0.2941
16703SOL    HW151560   7.203   8.359   4.577  0.0793 -0.2837 -0.4858
16703SOL    HW251561   7.197   8.324   4.725  0.0401  1.1585 -0.1302
16704SOL     OW51562   1.240   6.309   2.059  0.2952 -0.0611 -0.3606
16704SOL    HW151563   1.301   6.305   1.984  0.4439 -1.2649 -0.1974
16704SOL    HW251564   1.291   6.276   2.133 -0.4403 -0.7562 -0.1487
16705SOL     OW51565   6.844   9.171   0.914  0.3025  0.8970 -0.7492
16705SOL    HW151566   6.850   9.266   0.908 -0.8155  0.9559 -1.3476
16705SOL    HW251567   6.832   9.142   0.823  1.4113  0.1031 -0.6707
16706SOL     OW51568   8.227   8.120   3.366 -0.5471 -0.0424 -0.2888
16706SOL    HW151569   8.139   8.087   3.346 -0.1747 -1.0545 -0.3058
16706SOL    HW251570   8.220   8.153   3.456 -0.8968 -0.2799 -0.2258
16707SOL     OW51571   2.013   4.506   7.047  0.3748 -0.5705 -0.1805
16707SOL    HW151572   1.994   4.413   7.035  1.4948 -0.8128 -0.1937
16707SOL    HW251573   2.070   4.529   6.974 -1.9339  0.8028 -1.6948
16708SOL     OW51574   0.481   7.065   6.632 -0.1811 -0.1829  0.6868
16708SOL    HW151575   0.462   7.154   6.601  1.8424 -0.1651 -0.6776
16708SOL    HW251576   0.536   7.079   6.709  0.0333 -0.2245  0.5442
16709SOL     OW51577   8.650   3.603   4.006 -0.3842  1.0842  0.1009
16709SOL    HW151578   8.584   3.553   3.958  1.4376 -0.8355 -0.5873
16709SOL    HW251579   8.661   3.684   3.956 -1.1462  0.7559 -0.6143
16710SOL     OW51580   4.928   2.342   4.080 -0.1893 -0.0450  0.3189
16710SOL    HW151581   4.927   2.427   4.036 -0.1575  0.2406  0.8661
16710SOL    HW251582   5.014   2.306   4.060 -0.3478 -0.1236 -0.2394
16711SOL     OW51583   3.568   6.114   1.902 -0.0422 -0.3973 -0.0930
16711SOL    HW151584   3.629   6.114   1.975  0.4803 -0.3258 -0.5208
16711SOL    HW251585   3.602   6.181   1.843 -0.2914 -0.6537 -0.5345
16712SOL     OW51586   5.486   6.046   0.031 -0.3837  0.6027  0.1439
16712SOL    HW151587   5.519   5.972   0.081 -0.9557  0.5797  0.5040
16712SOL    HW251588   5.492   6.019  -0.060  0.4076  0.5339  0.2088
16713SOL     OW51589   3.832   4.847   3.288  0.2023  0.3634  0.5567
16713SOL    HW151590   3.777   4.803   3.223 -0.5903 -1.1053  2.1284
16713SOL    HW251591   3.916   4.803   3.281  0.7893  1.5976 -0.8145
16714SOL     OW51592   3.829   9.250   1.514 -0.2819  0.3152 -0.3559
16714SOL    HW151593   3.746   9.284   1.547 -0.7472 -0.8367 -0.2900
16714SOL    HW251594   3.845   9.171   1.566  1.1774  0.8541  0.0555
16715SOL     OW51595   1.491   1.621   7.253  0.0182 -0.6802 -0.6078
16715SOL    HW151596   1.494   1.680   7.329 -0.2002  0.2907 -1.3320
16715SOL    HW251597   1.515   1.677   7.179 -0.4076 -1.4545 -1.3420
16716SOL     OW51598   2.710   1.863   2.791 -0.3019  0.2168 -0.4534
16716SOL    HW151599   2.788   1.882   2.843 -1.3622 -1.3765  1.9146
16716SOL    HW251600   2.735   1.789   2.735  0.5501  1.3030 -1.5714
16717SOL     OW51601   3.180   3.722   5.486 -0.9892 -0.1316  0.1896
16717SOL    HW151602   3.149   3.633   5.502  0.9953 -0.7199  1.0203
16717SOL    HW251603   3.275   3.714   5.476 -0.7884  1.8570 -0.0399
16718SOL     OW51604   5.730   0.226   0.139  0.3690  0.3585 -0.1409
16718SOL    HW151605   5.780   0.146   0.120 -0.1182 -0.1746  0.7940
16718SOL    HW251606   5.699   0.255   0.053  0.6811 -0.3615 -0.5067
16719SOL     OW51607   7.873   2.135   1.200  0.4647 -0.0718  0.5472
16719SOL    HW151608   7.926   2.193   1.253 -1.6667 -0.3539  3.2068
16719SOL    HW251609   7.810   2.193   1.156  2.1959  0.1591 -1.8834
16720SOL     OW51610   6.447   0.945   7.264  0.8579  0.0626 -0.0360
16720SOL    HW151611   6.419   0.973   7.177  2.4327  0.1315 -0.5488
16720SOL    HW251612   6.394   0.867   7.282 -0.5996  0.9365 -0.3571
16721SOL     OW51613   2.477   5.891   3.129 -0.1972  0.5308 -0.3847
16721SOL    HW151614   2.479   5.874   3.035 -0.7274  0.4755 -0.3900
16721SOL    HW251615   2.441   5.980   3.137  0.7554  0.9196 -0.2725
16722SOL     OW51616   7.912   2.665   4.133  0.2840  0.0872  0.4527
16722SOL    HW151617   7.980   2.618   4.085  2.2819  1.5913  1.6286
16722SOL    HW251618   7.941   2.662   4.224  0.1619  2.8672  0.6762
16723SOL     OW51619   6.551   1.253   4.973  0.4879 -0.1084 -0.0509
16723SOL    HW151620   6.483   1.244   5.040 -0.0814 -1.3220 -0.7509
16723SOL    HW251621   6.522   1.327   4.920 -1.2876 -1.6655 -1.3924
16724SOL     OW51622   4.463   2.596   0.576  0.4575 -0.6392  0.1399
16724SOL    HW151623   4.491   2.666   0.635 -0.3075  0.1305 -0.3824
16724SOL    HW251624   4.445   2.640   0.493 -0.9674 -1.2958  0.0714
16725SOL     OW51625   3.655   7.243   5.504  0.4036  0.5336  0.1696
16725SOL    HW151626   3.644   7.282   5.418  0.5269 -0.4955 -0.3288
16725SOL    HW251627   3.629   7.312   5.565 -0.1234  1.1230 -0.6962
16726SOL     OW51628   7.105   0.117   7.798 -0.0990 -0.2141 -1.0025
16726SOL    HW151629   7.125   0.074   7.881 -0.2661  0.7056 -0.4640
16726SOL    HW251630   7.026   0.074   7.767 -0.9519  0.4605  0.1182
16727SOL     OW51631   6.730   7.623   8.062  0.1888  0.1410 -0.3230
16727SOL    HW151632   6.743   7.712   8.030  2.4710 -0.0216  0.0117
16727SOL    HW251633   6.732   7.569   7.983  0.3873  0.2381 -0.3846
16728SOL     OW51634   8.636   5.570   9.067  0.1417 -0.0774 -0.1217
16728SOL    HW151635   8.649   5.653   9.114  0.0749  0.5140 -1.1090
16728SOL    HW251636   8.707   5.568   9.003 -1.4670  0.6542 -2.0558
16729SOL     OW51637   5.617   9.034   4.933 -0.0760  0.0400 -0.7285
16729SOL    HW151638   5.544   9.003   4.986  0.2856 -1.4192 -1.0323
16729SOL    HW251639   5.691   9.038   4.994 -0.1235  0.3301 -0.6881
16730SOL     OW51640   6.755   0.415   2.723 -0.0265  0.4723 -0.6299
16730SOL    HW151641   6.700   0.489   2.749 -2.5267 -1.1782 -0.8183
16730SOL    HW251642   6.723   0.342   2.777  1.8249 -0.6730 -0.9858
16731SOL     OW51643   6.053   7.008   7.025 -0.4714  0.0915  0.6515
16731SOL    HW151644   6.089   6.921   7.040  0.4395  0.0952 -1.1763
16731SOL    HW251645   5.985   6.995   6.959  0.5691  0.8822 -0.6368
16732SOL     OW51646   0.472   3.717   4.849  0.1633  0.1371 -0.0011
16732SOL    HW151647   0.499   3.762   4.930 -0.8553  1.7183 -0.4962
16732SOL    HW251648   0.530   3.753   4.782 -0.1427  0.1288 -0.2698
16733SOL     OW51649   6.214   8.265   7.191 -0.0114 -0.3852 -0.2847
16733SOL    HW151650   6.133   8.230   7.155  0.6537 -0.7584 -1.4936
16733SOL    HW251651   6.277   8.259   7.119  1.4943 -1.4792  1.0381
16734SOL     OW51652   1.581   0.168   2.498  0.2661 -0.1677  0.3906
16734SOL    HW151653   1.632   0.129   2.569  0.6909  0.4501  0.4363
16734SOL    HW251654   1.597   0.262   2.506 -0.1648 -0.0405 -0.1547
16735SOL     OW51655   3.702   2.124   5.520 -0.5359  0.6380 -0.1260
16735SOL    HW151656   3.650   2.119   5.601  1.7161 -0.3386  1.3653
16735SOL    HW251657   3.683   2.042   5.475 -0.6890  0.5297  0.1320
16736SOL     OW51658   3.541   4.471   5.492 -0.0714  0.4376  0.0929
16736SOL    HW151659   3.516   4.531   5.421  0.5251  0.8565  0.2238
16736SOL    HW251660   3.569   4.391   5.448 -2.1071 -0.2616 -0.0455
16737SOL     OW51661   5.208   4.329   5.150  0.1054  0.7351  0.2755
16737SOL    HW151662   5.242   4.394   5.090  0.2197  1.8361  1.4895
16737SOL    HW251663   5.113   4.332   5.138  0.0816  1.3986  0.5751
16738SOL     OW51664   6.985   3.022   0.416  0.9003 -0.1156 -0.3108
16738SOL    HW151665   6.975   2.929   0.395 -1.7169  0.1160 -0.4892
16738SOL    HW251666   7.036   3.023   0.497  0.1382 -1.7934  0.2403
16739SOL     OW51667   6.214   5.363   5.232  0.0545  0.0159 -0.3302
16739SOL    HW151668   6.244   5.273   5.248 -0.1535  0.1096  0.6794
16739SOL    HW251669   6.122   5.353   5.206  0.2843 -0.1164 -1.1156
16740SOL     OW51670   6.717   6.541   8.692 -0.0238  0.2286  0.2463
16740SOL    HW151671   6.769   6.575   8.764  0.9643  0.0659 -0.3774
16740SOL    HW251672   6.739   6.448   8.687 -3.0310 -0.7590  2.2273
16741SOL     OW51673   9.121   0.166   7.293  0.2124  0.4012  0.1407
16741SOL    HW151674   9.089   0.134   7.209  0.4898 -0.3953  0.3305
16741SOL    HW251675   9.139   0.259   7.278  0.5245  0.2033 -0.7538
16742SOL     OW51676   6.646   4.878   5.172  0.2180  0.1765  0.2397
16742SOL    HW151677   6.656   4.965   5.133  0.7030 -0.1990 -0.4760
16742SOL    HW251678   6.572   4.840   5.125  0.9736 -0.3796 -0.5218
16743SOL     OW51679   4.827   4.608   5.204  0.0455 -0.5806  0.0728
16743SOL    HW151680   4.873   4.636   5.284 -2.1025 -2.7784  2.2714
16743SOL    HW251681   4.772   4.535   5.233 -0.6605 -1.6764 -3.5414
16744SOL     OW51682   1.679   4.646   2.255  0.0898  0.1075  0.1051
16744SOL    HW151683   1.746   4.694   2.302  0.8076  1.8102 -2.4562
16744SOL    HW251684   1.725   4.575   2.212  0.1452  0.7233 -0.8981
16745SOL     OW51685   5.176   5.087   7.597  0.0740 -0.4191 -0.8899
16745SOL    HW151686   5.087   5.110   7.572 -0.7773  0.1305  2.2502
16745SOL    HW251687   5.215   5.170   7.627  0.7298 -1.0953  0.1933
16746SOL     OW51688   1.442   4.769   5.659 -0.7884  0.0577 -0.4505
16746SOL    HW151689   1.424   4.790   5.750  2.6488  1.6277  0.0080
16746SOL    HW251690   1.377   4.819   5.610 -1.2953  0.9590  1.0759
16747SOL     OW51691   3.214   4.711   4.657 -0.2158  0.0254  0.2732
16747SOL    HW151692   3.274   4.760   4.714  0.0578  0.0848 -0.0598
16747SOL    HW251693   3.243   4.732   4.568  0.2884 -1.1883  0.1243
16748SOL     OW51694   0.998   7.410   6.861  0.3774 -0.1287  0.0190
16748SOL    HW151695   1.055   7.338   6.884  0.5078  0.6160  2.3502
16748SOL    HW251696   0.995   7.464   6.940 -2.3806  0.6252 -0.4896
16749SOL     OW51697   7.458   3.553   5.767 -0.2923 -0.3552 -0.4037
16749SOL    HW151698   7.496   3.600   5.693  0.0548  0.7605  0.4555
16749SOL    HW251699   7.524   3.487   5.789  0.4341  0.4759  0.0128
16750SOL     OW51700   7.707   5.431   6.490  0.2562 -0.1877  0.0389
16750SOL    HW151701   7.726   5.360   6.429 -0.0744  0.6700 -1.0851
16750SOL    HW251702   7.762   5.504   6.461 -0.0126  0.2780  0.6709
16751SOL     OW51703   6.623   8.381   5.088 -0.0473 -0.8828 -0.1817
16751SOL    HW151704   6.645   8.350   5.000 -2.4157  2.7910 -2.3125
16751SOL    HW251705   6.536   8.345   5.105 -0.1733 -0.4734  0.0436
16752SOL     OW51706   1.881   1.087   0.965  0.0134  0.2419 -0.0854
16752SOL    HW151707   1.849   1.167   1.006 -0.6037  0.3463 -0.7583
16752SOL    HW251708   1.916   1.035   1.038 -3.0970 -0.5661  0.9937
16753SOL     OW51709   0.694   5.611   4.080 -0.1379 -0.5217  0.4585
16753SOL    HW151710   0.650   5.657   4.009  0.2498 -1.1849 -0.2177
16753SOL    HW251711   0.627   5.556   4.119 -0.1255 -0.8619  0.0010
16754SOL     OW51712   4.882   3.269   0.483 -0.2966 -0.2835 -0.3822
16754SOL    HW151713   4.932   3.196   0.520  0.5865  0.2894 -0.4111
16754SOL    HW251714   4.932   3.347   0.508 -0.7165  0.2466 -1.1592
16755SOL     OW51715   9.046   4.186   0.958 -0.0998  0.0324  0.2059
16755SOL    HW151716   9.129   4.228   0.981  0.6273 -0.3531 -1.5273
16755SOL    HW251717   8.981   4.227   1.016  0.8506  2.3464 -0.2433
16756SOL     OW51718   6.075   0.262   6.252  0.4912  0.1388 -0.2609
16756SOL    HW151719   6.068   0.228   6.163  0.3385 -0.7686  0.0948
16756SOL    HW251720   6.118   0.192   6.302  0.9522  0.7999  0.2923
16757SOL     OW51721   0.895   0.136   5.289  0.6769  0.2784 -0.2293
16757SOL    HW151722   0.976   0.166   5.247  1.6227 -2.1715 -0.3608
16757SOL    HW251723   0.825   0.176   5.238  1.7914  1.7372 -0.6832
16758SOL     OW51724   4.276   2.519   1.043  0.0653  0.3067  0.7529
16758SOL    HW151725   4.273   2.565   0.959  1.7769 -0.9520 -0.0629
16758SOL    HW251726   4.310   2.583   1.105 -0.4399  1.0124  0.3126
16759SOL     OW51727   8.822   7.676   2.466 -0.2786 -0.7466 -0.3015
16759SOL    HW151728   8.908   7.642   2.493 -0.5223 -0.8614  0.3389
16759SOL    HW251729   8.840   7.722   2.384  0.6641  0.4218  0.5153
16760SOL     OW51730   5.179   3.057   5.965 -0.2459 -0.4964 -0.1781
16760SOL    HW151731   5.260   3.054   5.915 -0.6312 -0.2255 -0.8373
16760SOL    HW251732   5.143   3.145   5.948 -0.6568 -0.5962  0.1348
16761SOL     OW51733   0.246   7.193   3.815  0.5732 -0.3945 -1.0138
16761SOL    HW151734   0.257   7.103   3.847  0.5824 -1.0385 -2.7264
16761SOL    HW251735   0.225   7.183   3.722 -3.2904  1.2025 -0.5108
16762SOL     OW51736   7.392   3.331   2.907  0.3661  0.6307 -0.2421
16762SOL    HW151737   7.379   3.422   2.882  0.3355  1.2181  1.7612
16762SOL    HW251738   7.358   3.325   2.996 -1.6936 -1.8820 -1.0502
16763SOL     OW51739   7.845   3.285   0.302 -0.3927  0.6276 -0.1437
16763SOL    HW151740   7.887   3.238   0.229 -1.3250 -0.4634 -0.0175
16763SOL    HW251741   7.847   3.222   0.375  1.1622  1.9549  1.0244
16764SOL     OW51742   2.083   7.523   3.322  0.3064  0.3472 -0.2045
16764SOL    HW151743   2.163   7.478   3.292  0.3947 -1.0660  1.9387
16764SOL    HW251744   2.112   7.577   3.395 -0.6427 -0.0308  0.4671
16765SOL     OW51745   8.822   0.280   3.047  0.1878  0.1695 -0.0231
16765SOL    HW151746   8.787   0.319   2.967 -0.7904  0.2396  0.4175
16765SOL    HW251747   8.747   0.276   3.106  0.3093 -2.1217  0.0621
16766SOL     OW51748   2.069   3.417   4.046  0.0309  0.1205  0.0817
16766SOL    HW151749   2.122   3.497   4.043 -0.1723  0.2393 -0.4661
16766SOL    HW251750   2.133   3.346   4.047  0.2678  0.1542 -3.1458
16767SOL     OW51751   1.799   8.548   8.473  0.2782  0.2236  0.1331
16767SOL    HW151752   1.869   8.562   8.409  0.2548  1.1465  0.2962
16767SOL    HW251753   1.731   8.610   8.448  0.3878  0.8022  1.2082
16768SOL     OW51754   5.027   5.755   2.595  0.0267  0.0091 -0.2184
16768SOL    HW151755   4.973   5.771   2.672 -0.5839 -0.8704 -0.4526
16768SOL    HW251756   5.097   5.820   2.601  0.9877 -1.1444  2.0036
16769SOL     OW51757   2.788   6.238   7.829 -0.0068 -0.6099  0.8398
16769SOL    HW151758   2.860   6.177   7.846  1.9160  1.6167  1.1998
16769SOL    HW251759   2.788   6.249   7.734  1.6647  1.0131  0.9677
16770SOL     OW51760   0.551   4.687   8.128 -0.1004  0.5056 -0.0929
16770SOL    HW151761   0.566   4.608   8.181  0.4990  1.2432  0.8630
16770SOL    HW251762   0.579   4.662   8.040 -0.4396 -0.5204  0.0788
16771SOL     OW51763   6.287   4.120   4.797 -0.1265 -0.2836  0.1342
16771SOL    HW151764   6.193   4.135   4.784  0.0938  0.8363 -0.3497
16771SOL    HW251765   6.328   4.202   4.770  0.9624 -0.5657  0.8470
16772SOL     OW51766   2.140   2.055   6.699  0.3453 -0.1272 -0.1353
16772SOL    HW151767   2.066   2.091   6.651 -0.2739 -1.2700 -0.0783
16772SOL    HW251768   2.199   2.129   6.711  0.8771  0.1057 -3.2565
16773SOL     OW51769   3.256   5.759   0.614  0.0428  0.4531  0.1784
16773SOL    HW151770   3.311   5.754   0.536 -1.7563 -0.3664 -1.1172
16773SOL    HW251771   3.277   5.680   0.664 -1.2525 -0.8940 -1.2805
16774SOL     OW51772   8.840   6.577   5.639  0.7566 -0.0201 -0.1341
16774SOL    HW151773   8.923   6.529   5.644  1.1409  0.6706  0.2602
16774SOL    HW251774   8.860   6.663   5.676 -0.6168 -0.4773  1.8404
16775SOL     OW51775   4.581   8.927   4.289  0.8156 -0.3319 -0.4727
16775SOL    HW151776   4.487   8.925   4.311  0.7693  0.4504 -0.5757
16775SOL    HW251777   4.619   8.858   4.343  0.2906 -0.1575  0.1343
16776SOL     OW51778   5.169   8.281   7.086 -0.2542  0.6772  0.4384
16776SOL    HW151779   5.152   8.299   6.993  1.4432 -0.7329 -0.2192
16776SOL    HW251780   5.091   8.236   7.117 -0.6119  0.6594 -0.4597
16777SOL     OW51781   2.676   0.190   3.601  0.1744  0.6752  0.0284
16777SOL    HW151782   2.608   0.248   3.634 -0.6575 -0.5873  0.6432
16777SOL    HW251783   2.635   0.103   3.602  1.4346  0.0459 -0.6557
16778SOL     OW51784   2.690   0.852   0.920  0.9028 -0.6241  0.0457
16778SOL    HW151785   2.709   0.944   0.900  0.4481 -0.8350 -1.5288
16778SOL    HW251786   2.753   0.828   0.987  2.3374  0.3060 -0.9176
16779SOL     OW51787   0.384   3.728   1.870 -0.1030  0.8196  0.4022
16779SOL    HW151788   0.314   3.792   1.859 -0.7139 -0.0580 -1.0311
16779SOL    HW251789   0.351   3.648   1.828  1.3341  0.0725  0.6283
16780SOL     OW51790   4.215   2.859   8.364  0.1612  0.8184  0.1683
16780SOL    HW151791   4.180   2.858   8.275  0.7878  1.4417 -0.0932
16780SOL    HW251792   4.307   2.882   8.354 -0.3570  3.7775  1.1512
16781SOL     OW51793   6.040   7.392   1.957 -0.7555  0.0083  0.1155
16781SOL    HW151794   6.118   7.391   1.903 -0.5455 -3.0438  0.3032
16781SOL    HW251795   6.053   7.467   2.016  2.4273 -0.8226  0.6617
16782SOL     OW51796   6.480   2.181   8.977  0.3327 -0.2383 -0.0745
16782SOL    HW151797   6.448   2.191   8.887 -0.7096  1.0408  0.4010
16782SOL    HW251798   6.521   2.265   8.996  0.6714 -0.5568  0.6152
16783SOL     OW51799   9.109   5.106   7.142  0.0368 -0.1540  0.1318
16783SOL    HW151800   9.038   5.145   7.193 -0.9038 -2.2157  0.5340
16783SOL    HW251801   9.179   5.091   7.206  0.4683  0.9843 -0.0604
16784SOL     OW51802   7.131   5.863   4.518 -0.4094 -0.0296 -0.1964
16784SOL    HW151803   7.169   5.797   4.576  0.4502  0.4544 -0.1967
16784SOL    HW251804   7.177   5.851   4.435  0.2204  0.9994 -0.0048
16785SOL     OW51805   3.061   4.048   5.666 -0.2440 -0.8431  0.1510
16785SOL    HW151806   3.056   4.123   5.725  1.3918 -1.1063  0.6818
16785SOL    HW251807   3.125   3.989   5.707  0.5939 -1.2449 -1.6280
16786SOL     OW51808   2.980   2.653   8.335 -0.4363  0.0499  0.2473
16786SOL    HW151809   2.964   2.586   8.401 -2.1512  0.4917  0.3212
16786SOL    HW251810   2.927   2.627   8.260  0.9317 -0.0577 -0.7171
16787SOL     OW51811   2.529   3.295   5.806  0.0890 -0.0200  0.1718
16787SOL    HW151812   2.518   3.201   5.821  0.8862  0.2217  2.8345
16787SOL    HW251813   2.473   3.336   5.872  1.2607  1.3455  0.3513
16788SOL     OW51814   7.701   1.925   0.768  0.0833 -0.3120  0.0164
16788SOL    HW151815   7.688   1.861   0.839 -0.2187 -0.7645 -0.4409
16788SOL    HW251816   7.751   1.996   0.809 -1.9058  0.4612  1.2899
16789SOL     OW51817   3.756   7.422   2.265 -0.5048  0.2807  0.3089
16789SOL    HW151818   3.692   7.380   2.207  1.4643 -0.8682 -1.1258
16789SOL    HW251819   3.802   7.485   2.210  1.4688 -0.9015  0.4930
16790SOL     OW51820   1.145   7.581   3.835 -0.0302  0.5293  0.8758
16790SOL    HW151821   1.120   7.659   3.886 -1.5124  1.0954 -0.6294
16790SOL    HW251822   1.195   7.616   3.762 -0.7694  0.1035  0.1492
16791SOL     OW51823   4.542   8.960   0.810 -0.4665  0.6864  0.3890
16791SOL    HW151824   4.481   9.031   0.788  1.2236  2.3278  0.7837
16791SOL    HW251825   4.574   8.929   0.726  0.0031  1.5079  0.2592
16792SOL     OW51826   6.354   0.501   0.318 -0.3523 -0.4299  0.1835
16792SOL    HW151827   6.318   0.518   0.231 -0.3128 -0.1390  0.2252
16792SOL    HW251828   6.428   0.443   0.302 -1.0683 -1.3597  0.1282
16793SOL     OW51829   7.822   7.373   6.012 -0.0507 -0.1414 -0.0093
16793SOL    HW151830   7.799   7.340   6.099  1.2096 -0.9085  0.0446
16793SOL    HW251831   7.746   7.350   5.958 -0.1559 -1.1214  0.5256
16794SOL     OW51832   3.289   3.083   0.385 -0.1638 -0.1165 -0.2282
16794SOL    HW151833   3.327   3.169   0.365 -1.1011 -0.3290 -3.5989
16794SOL    HW251834   3.352   3.021   0.349 -0.5819 -0.7562  0.1272
16795SOL     OW51835   6.163   1.988   0.472 -0.5416  0.3998 -0.2051
16795SOL    HW151836   6.132   2.046   0.401 -0.1284  0.7026 -0.1411
16795SOL    HW251837   6.216   1.923   0.427 -0.4646  0.4589 -0.1996
16796SOL     OW51838   7.918   7.115   3.104 -0.3273 -0.0593  0.4358
16796SOL    HW151839   7.929   7.065   3.023 -1.1205  0.7236 -0.1758
16796SOL    HW251840   7.853   7.066   3.153  0.8595 -1.0689  1.0705
16797SOL     OW51841   8.326   5.266   6.857  0.3263 -0.2964  0.0009
16797SOL    HW151842   8.251   5.323   6.876  0.5410 -0.1809  0.5337
16797SOL    HW251843   8.311   5.235   6.768 -0.1020  0.1189 -0.0756
16798SOL     OW51844   2.734   5.378   1.380  0.3233 -0.2931  0.0899
16798SOL    HW151845   2.748   5.362   1.286 -0.9514 -1.8964  0.1298
16798SOL    HW251846   2.641   5.361   1.394  0.4039  0.3255  1.5874
16799SOL     OW51847   0.644   0.012   0.096  0.3885  0.2193  0.5635
16799SOL    HW151848   0.583   0.033   0.166  0.9057  0.1417  1.0495
16799SOL    HW251849   0.636  -0.083   0.084  0.7996  0.1225  1.0071
16800SOL     OW51850   1.523   7.987   4.973  0.3789 -0.1163 -0.3347
16800SOL    HW151851   1.599   8.043   4.961 -0.3720  0.7103 -1.3894
16800SOL    HW251852   1.555   7.914   5.025  1.3177  1.4360  1.3872
16801SOL     OW51853   0.110   7.410   5.375  0.6774  0.1123 -0.9835
16801SOL    HW151854   0.043   7.343   5.362  0.8675  0.0986 -1.9346
16801SOL    HW251855   0.185   7.379   5.324  1.2929  0.3013 -0.2141
16802SOL     OW51856   3.529   9.049   7.745 -0.3665  0.0270 -0.0684
16802SOL    HW151857   3.508   8.998   7.666  0.1288 -0.5483  0.1613
16802SOL    HW251858   3.447   9.048   7.796 -0.9114  1.0169 -0.8863
16803SOL     OW51859   7.902   8.472   6.775 -0.2920  0.2747 -0.0784
16803SOL    HW151860   7.895   8.530   6.851 -2.8065  0.1357 -0.1199
16803SOL    HW251861   7.906   8.531   6.700  0.1773  0.4008  0.0435
16804SOL     OW51862   4.004   8.627   7.559  0.2582  0.0056 -0.0077
16804SOL    HW151863   4.029   8.545   7.603 -0.9898  0.5646  1.8497
16804SOL    HW251864   4.011   8.694   7.627  1.3240  1.5167 -1.5103
16805SOL     OW51865   0.971   0.483   7.290 -0.5389 -0.4080  0.3378
16805SOL    HW151866   0.995   0.574   7.272 -1.3305 -0.3173 -0.3274
16805SOL    HW251867   0.883   0.474   7.253 -1.0922 -1.0232  1.7477
16806SOL     OW51868   3.875   2.382   3.125  0.1506  0.1236  0.0425
16806SOL    HW151869   3.793   2.392   3.173 -0.6162  0.2199 -1.2693
16806SOL    HW251870   3.889   2.288   3.120 -1.2119 -0.0267 -1.8898
16807SOL     OW51871   6.564   7.224   4.035 -0.3726 -0.5430  0.2265
16807SOL    HW151872   6.634   7.289   4.028 -1.1831  0.3318  0.0364
16807SOL    HW251873   6.609   7.143   4.059  0.5499  0.3518  1.6846
16808SOL     OW51874   8.377   1.368   9.129  0.1913  0.0638  0.8011
16808SOL    HW151875   8.424   1.285   9.137  1.1322  0.5442  0.3602
16808SOL    HW251876   8.326   1.359   9.048  0.4214 -0.0307  0.6647
16809SOL     OW51877   7.895   5.066   5.634 -0.2844  0.1061 -0.4611
16809SOL    HW151878   7.821   5.019   5.595  0.6308 -2.0157  0.1804
16809SOL    HW251879   7.856   5.144   5.673 -2.1935 -0.9436 -0.1378
16810SOL     OW51880   0.925   5.086   6.301 -0.1253 -0.3861 -0.1541
16810SOL    HW151881   0.838   5.107   6.266 -0.4269 -0.6707  0.4107
16810SOL    HW251882   0.985   5.138   6.247 -0.3997 -2.1010 -2.2257
16811SOL     OW51883   8.354   1.161   7.565 -0.3401 -0.0287 -0.4711
16811SOL    HW151884   8.350   1.066   7.554 -0.7263 -0.0038 -0.5624
16811SOL    HW251885   8.394   1.173   7.651 -2.3727 -0.3201  0.5721
16812SOL     OW51886   5.004   3.859   9.107 -0.2802  0.0783 -0.0893
16812SOL    HW151887   4.981   3.766   9.097  1.0986 -0.1573 -1.2762
16812SOL    HW251888   5.096   3.864   9.081 -0.8024  2.0770 -1.7590
16813SOL     OW51889   2.224   8.999   4.130 -0.5754  0.5818 -0.0711
16813SOL    HW151890   2.217   9.070   4.066  0.5845  1.0985  0.3448
16813SOL    HW251891   2.315   9.002   4.160 -0.5503 -0.9678  0.1059
16814SOL     OW51892   4.996   5.948   3.816  0.0143 -0.1855  0.3283
16814SOL    HW151893   5.038   5.919   3.896 -0.0732 -1.0442  0.0722
16814SOL    HW251894   4.956   5.869   3.779 -2.2903  0.6656  0.8235
16815SOL     OW51895   6.278   4.660   4.702 -0.0221  0.3149  0.2916
16815SOL    HW151896   6.314   4.576   4.731 -0.3711  0.5032  1.2939
16815SOL    HW251897   6.294   4.661   4.607 -0.6039 -1.1894  0.1435
16816SOL     OW51898   6.006   1.881   8.268 -0.6555 -0.1374  0.2047
16816SOL    HW151899   5.947   1.922   8.331 -1.8015 -1.5073  0.0687
16816SOL    HW251900   5.953   1.871   8.189 -0.2431 -1.3524  0.0634
16817SOL     OW51901   3.796   3.580   4.064  0.0366  0.0037  0.1624
16817SOL    HW151902   3.712   3.556   4.024 -1.5433  2.1929  1.9630
16817SOL    HW251903   3.796   3.534   4.148  0.1767  0.7505  0.5776
16818SOL     OW51904   1.034   6.969   0.854 -0.3591  0.1606 -0.5622
16818SOL    HW151905   1.087   6.959   0.775 -0.9652 -1.3554 -0.8026
16818SOL    HW251906   1.013   6.880   0.880 -1.3746  0.6906  0.5062
16819SOL     OW51907   2.730   8.492   6.019 -0.0788  0.2977  0.2124
16819SOL    HW151908   2.699   8.578   5.989 -0.6181  0.0832  0.1494
16819SOL    HW251909   2.733   8.499   6.114 -0.3285  0.3170  0.2185
16820SOL     OW51910   4.536   5.906   3.138  0.3593  0.0038 -0.6399
16820SOL    HW151911   4.493   5.966   3.200  1.0748 -0.5307  0.4065
16820SOL    HW251912   4.599   5.858   3.192 -1.2952 -2.8533 -1.0569
16821SOL     OW51913   5.862   4.644   5.165 -0.4697 -0.0459 -0.1140
16821SOL    HW151914   5.767   4.646   5.160 -0.4757 -0.3736 -0.2000
16821SOL    HW251915   5.891   4.721   5.117 -0.6692 -0.3351 -0.6982
16822SOL     OW51916   4.807   1.211   8.233  0.6361  0.0724  0.1884
16822SOL    HW151917   4.768   1.151   8.171  0.4972  1.0730 -0.7299
16822SOL    HW251918   4.744   1.283   8.240  1.9109  1.3364 -0.7312
16823SOL     OW51919   7.864   6.871   0.935 -0.5400 -0.1010  0.5426
16823SOL    HW151920   7.827   6.944   0.984  0.1139  2.0954 -1.9797
16823SOL    HW251921   7.802   6.856   0.864 -0.7074 -2.1481  1.0575
16824SOL     OW51922   3.553   7.788   3.569 -0.4765 -0.5703  0.2477
16824SOL    HW151923   3.603   7.743   3.501  0.7437  1.5749 -0.3971
16824SOL    HW251924   3.562   7.733   3.646  0.1830 -1.8413 -0.7014
16825SOL     OW51925   6.201   1.349   9.235  0.7055  0.4105  0.6931
16825SOL    HW151926   6.195   1.426   9.291  1.9923 -0.4271  2.0525
16825SOL    HW251927   6.215   1.384   9.147  0.4642  1.7208  1.1510
16826SOL     OW51928   5.806   8.583   2.029 -0.4832  0.0345 -0.0132
16826SOL    HW151929   5.723   8.607   1.987 -0.0880 -1.1516 -1.5280
16826SOL    HW251930   5.801   8.488   2.038  0.8900 -0.0971 -0.5126
16827SOL     OW51931   4.481   2.586   5.694  0.1751 -0.2561  0.3257
16827SOL    HW151932   4.469   2.591   5.599 -0.2394 -1.9565  0.2508
16827SOL    HW251933   4.575   2.581   5.706  0.1955 -1.4176 -0.1258
16828SOL     OW51934   2.559   4.235   4.315 -0.2814  0.3831 -0.2344
16828SOL    HW151935   2.491   4.172   4.337 -2.8751  3.1536  0.3344
16828SOL    HW251936   2.599   4.257   4.400  0.5999 -0.4080 -0.4278
16829SOL     OW51937   1.787   4.151   8.359  0.4745 -0.4667  0.2181
16829SOL    HW151938   1.832   4.205   8.424 -1.3658  1.2642  0.1458
16829SOL    HW251939   1.848   4.080   8.340  1.7627 -0.0770  2.5630
16830SOL     OW51940   7.426   6.166   7.186  0.4599  0.4196 -0.2278
16830SOL    HW151941   7.405   6.081   7.224 -0.6088  0.1454 -1.3446
16830SOL    HW251942   7.516   6.157   7.155  0.9290  0.2680  1.1358
16831SOL     OW51943   3.048   2.175   3.508 -0.3091  0.0067 -0.1950
16831SOL    HW151944   3.141   2.190   3.523 -0.8610  2.0113  1.6586
16831SOL    HW251945   3.020   2.248   3.453 -1.0077  0.0612  0.2233
16832SOL     OW51946   2.446   9.050   6.777  0.1878 -0.5672 -0.3198
16832SOL    HW151947   2.386   9.125   6.773  0.7881 -0.0564 -0.0330
16832SOL    HW251948   2.433   9.005   6.694  0.4384  0.3656 -0.8888
16833SOL     OW51949   4.383   5.311   8.647  0.4672  0.1032 -0.1621
16833SOL    HW151950   4.415   5.236   8.597  0.0005 -0.9049  1.0029
16833SOL    HW251951   4.442   5.316   8.722 -0.2859  0.0683  0.4480
16834SOL     OW51952   1.233   7.947   2.786 -0.8768  0.1400  0.2246
16834SOL    HW151953   1.274   7.987   2.863  1.4667 -2.2229  0.3406
16834SOL    HW251954   1.263   8.000   2.712 -0.2426  0.3330  0.6146
16835SOL     OW51955   5.853   2.556   7.931  0.6107  0.1029  0.9186
16835SOL    HW151956   5.853   2.460   7.927  1.1864  0.1138  0.3312
16835SOL    HW251957   5.865   2.577   8.023  1.5521 -0.4067  0.9238
16836SOL     OW51958   9.282   4.027   8.901 -0.1273  0.1637 -0.1981
16836SOL    HW151959   9.346   4.003   8.967 -1.9813 -2.1008  0.9441
16836SOL    HW251960   9.280   3.952   8.841 -1.5594  0.2554 -0.3003
16837SOL     OW51961   6.335   1.007   0.736 -0.1231 -0.5494  1.4018
16837SOL    HW151962   6.414   0.965   0.703  0.0750 -1.1849  2.6385
16837SOL    HW251963   6.351   1.101   0.725 -0.1489 -0.7155 -0.4260
16838SOL     OW51964   5.051   0.467   0.943  0.2401 -0.1697 -0.1346
16838SOL    HW151965   5.079   0.559   0.937 -0.6477  0.0477 -1.3375
16838SOL    HW251966   5.019   0.459   1.033 -0.4003  0.9306 -0.2382
16839SOL     OW51967   6.923   0.398   8.901 -0.0380 -0.7620  0.3872
16839SOL    HW151968   6.949   0.488   8.919 -0.4825 -0.8078  1.2999
16839SOL    HW251969   6.833   0.404   8.870 -0.0604 -0.8958  0.4273
16840SOL     OW51970   2.053   4.305   8.262 -0.2464  0.2862 -0.0388
16840SOL    HW151971   2.030   4.318   8.354  0.2440 -0.0324  0.1361
16840SOL    HW251972   2.120   4.237   8.264 -0.3589  0.1521 -0.6493
16841SOL     OW51973   5.754   4.559   7.603  0.1315 -0.3612  0.3597
16841SOL    HW151974   5.679   4.614   7.627 -1.1623 -0.9402 -2.0113
16841SOL    HW251975   5.763   4.498   7.676 -2.4607 -0.9737  0.2966
16842SOL     OW51976   5.745   0.604   4.484 -0.5237 -0.4699 -0.1284
16842SOL    HW151977   5.771   0.534   4.424 -2.4632 -1.2879 -0.0868
16842SOL    HW251978   5.707   0.558   4.559 -0.5484  0.6065  0.5402
16843SOL     OW51979   8.324   7.134   3.285 -0.0666  0.4728  0.2011
16843SOL    HW151980   8.379   7.175   3.351  0.5745  1.2828 -0.8009
16843SOL    HW251981   8.283   7.207   3.239  0.2288 -0.0210 -0.9001
16844SOL     OW51982   7.539   3.133   6.119  0.4616  0.3768 -0.2685
16844SOL    HW151983   7.493   3.175   6.047 -1.7006  0.4967  1.1087
16844SOL    HW251984   7.473   3.078   6.162  1.8987 -0.3649  1.1176
16845SOL     OW51985   0.443   4.249   8.824  0.2843 -0.1216 -1.0378
16845SOL    HW151986   0.422   4.190   8.897  1.6099 -1.3572 -1.5969
16845SOL    HW251987   0.420   4.199   8.746 -1.8526  1.4861 -1.5225
16846SOL     OW51988   1.512   6.104   0.925 -0.0478  0.1594  0.0765
16846SOL    HW151989   1.514   6.045   1.000 -2.6209 -0.5091 -0.3172
16846SOL    HW251990   1.466   6.182   0.956  1.1838  1.0046 -0.1106
16847SOL     OW51991   6.246   3.279   2.743 -0.0802  0.1405  0.4937
16847SOL    HW151992   6.278   3.333   2.671  3.3621  0.0977  1.8064
16847SOL    HW251993   6.305   3.298   2.815 -1.2513 -2.3979  2.2602
16848SOL     OW51994   2.580   2.421   1.904 -0.0409  0.0346  0.0889
16848SOL    HW151995   2.587   2.326   1.904  0.7276  0.0780  1.0462
16848SOL    HW251996   2.640   2.450   1.972 -0.9725  1.1597  0.4686
16849SOL     OW51997   0.677   2.014   5.060 -0.1811 -0.4109  0.7946
16849SOL    HW151998   0.742   2.006   5.130  1.8025  1.7898 -0.6409
16849SOL    HW251999   0.686   2.105   5.030  0.1575 -1.5947 -3.2554
16850SOL     OW52000   8.056   2.540   1.535 -0.4488 -0.2679  0.0911
16850SOL    HW152001   8.029   2.604   1.601  0.0498 -0.5254  0.5567
16850SOL    HW252002   8.152   2.546   1.534 -0.3890 -1.0948  0.2399
16851SOL     OW52003   5.007   8.491   6.543  0.1606 -0.9480 -0.0689
16851SOL    HW152004   4.915   8.473   6.562  0.2732  0.0010  1.6054
16851SOL    HW252005   5.039   8.412   6.501 -0.2384 -3.3859  3.6917
16852SOL     OW52006   8.175   6.850   5.164  0.6048 -0.0829  0.0868
16852SOL    HW152007   8.233   6.774   5.173 -0.2353 -0.5939  1.6829
16852SOL    HW252008   8.087   6.813   5.168  0.1820  0.9620  0.8067
16853SOL     OW52009   9.260   3.701   0.992  0.7460  0.0582 -0.2150
16853SOL    HW152010   9.231   3.789   1.015 -0.3925 -0.5544  0.7589
16853SOL    HW252011   9.262   3.702   0.896 -2.2285  0.2724 -0.3802
16854SOL     OW52012   5.397   2.110   2.808  0.1084  0.1621  0.2969
16854SOL    HW152013   5.376   2.121   2.900 -1.5039 -2.0089  0.2743
16854SOL    HW252014   5.366   2.021   2.787 -1.9775  1.4590 -2.9099
16855SOL     OW52015   7.258   4.185   5.092  0.0111  0.2302 -0.0505
16855SOL    HW152016   7.176   4.196   5.044  0.1719  0.1558 -0.3436
16855SOL    HW252017   7.309   4.123   5.039  0.4380  0.6197 -0.1045
16856SOL     OW52018   7.073   8.154   4.367  0.1433 -0.1256 -0.1345
16856SOL    HW152019   7.062   8.106   4.449  1.1304  1.7015  1.1260
16856SOL    HW252020   7.062   8.246   4.391 -0.8573  0.3920 -2.3209
16857SOL     OW52021   8.781   3.828   6.244 -0.4665  0.3303 -0.5193
16857SOL    HW152022   8.857   3.771   6.250 -1.1821 -0.6264 -0.4024
16857SOL    HW252023   8.818   3.916   6.237  0.6702  0.1712  2.2548
16858SOL     OW52024   1.771   1.489   6.831 -0.1220  0.5420  0.2581
16858SOL    HW152025   1.838   1.513   6.894 -0.6732  1.9438  0.3350
16858SOL    HW252026   1.742   1.401   6.858 -3.0893  2.4990  4.4324
16859SOL     OW52027   3.153   1.739   8.871 -0.1987 -0.2610 -0.4436
16859SOL    HW152028   3.229   1.747   8.813  0.2026 -1.2223 -0.0706
16859SOL    HW252029   3.149   1.823   8.916  0.6672 -0.2037 -0.4504
16860SOL     OW52030   7.382   3.200   1.635  0.1619 -0.1643 -0.5429
16860SOL    HW152031   7.387   3.194   1.730 -0.5281  0.9044 -0.4292
16860SOL    HW252032   7.328   3.126   1.609  0.8488 -0.8166 -0.1748
16861SOL     OW52033   7.031   1.074   1.184 -0.5737 -0.1590 -0.1422
16861SOL    HW152034   6.963   1.025   1.230 -0.7511 -1.3603 -1.5805
16861SOL    HW252035   6.983   1.141   1.135 -0.8341 -1.3312 -1.5632
16862SOL     OW52036   6.538   0.005   7.728 -0.0130  0.1283  0.1157
16862SOL    HW152037   6.607  -0.044   7.684  0.7111  0.0757  1.2535
16862SOL    HW252038   6.515   0.075   7.667  0.1723 -0.5834 -0.7936
16863SOL     OW52039   4.783   2.514   2.375 -0.2207  0.3544  0.2589
16863SOL    HW152040   4.750   2.442   2.322 -0.7310  1.1942 -0.5783
16863SOL    HW252041   4.720   2.521   2.447 -0.4938  0.3395  0.0231
16864SOL     OW52042   5.713   3.046   1.979  0.2108 -0.7733  0.3120
16864SOL    HW152043   5.637   3.015   2.027 -0.3422 -0.0813 -0.1002
16864SOL    HW252044   5.679   3.073   1.894  1.0466 -1.2294 -0.1933
16865SOL     OW52045   1.330   4.033   4.740  0.3317 -0.0265  0.5485
16865SOL    HW152046   1.303   4.039   4.649 -0.9224  0.0658  0.9062
16865SOL    HW252047   1.266   4.086   4.788  0.2644 -1.0156  1.6022
16866SOL     OW52048   7.292   0.230   0.423 -0.5229 -0.0723  0.1922
16866SOL    HW152049   7.263   0.218   0.332 -0.4760  0.1854  0.1413
16866SOL    HW252050   7.304   0.141   0.457 -0.3951 -0.1667 -0.1001
16867SOL     OW52051   7.924   6.434   6.092 -0.7585  0.4029  0.2524
16867SOL    HW152052   7.954   6.380   6.018 -0.3024 -0.0881  0.7836
16867SOL    HW252053   7.852   6.385   6.130  0.2086 -0.2809  1.2597
16868SOL     OW52054   7.144   5.691   2.883 -0.3536  0.4220 -0.1175
16868SOL    HW152055   7.195   5.649   2.814 -1.4158  1.2646 -1.4557
16868SOL    HW252056   7.155   5.633   2.959  0.4373 -0.8003 -1.1177
16869SOL     OW52057   3.280   2.708   2.890  0.0584  0.2038  0.0131
16869SOL    HW152058   3.228   2.633   2.920 -1.9671  1.5933  0.1755
16869SOL    HW252059   3.273   2.706   2.795 -0.2462  0.3306  0.0302
16870SOL     OW52060   3.957   0.490   3.711 -0.0280 -0.1785  0.1576
16870SOL    HW152061   3.876   0.542   3.719 -0.0272 -0.1925  0.2548
16870SOL    HW252062   3.926   0.402   3.688  0.0077  0.0391 -0.7724
16871SOL     OW52063   0.111   2.343   2.729  0.5339  0.1913 -0.1367
16871SOL    HW152064   0.052   2.389   2.788  0.2556  0.5710 -0.6944
16871SOL    HW252065   0.053   2.300   2.666  0.8246 -0.2432 -0.1108
16872SOL     OW52066   3.723   1.321   4.462  0.2400  0.8323 -0.0313
16872SOL    HW152067   3.757   1.370   4.537  0.5562 -1.2831  1.2901
16872SOL    HW252068   3.801   1.300   4.410  0.4084 -0.1113  0.5783
16873SOL     OW52069   3.594   3.287   8.686  0.5637 -0.3564 -0.1308
16873SOL    HW152070   3.661   3.320   8.747  0.3675  0.5445 -0.3911
16873SOL    HW252071   3.569   3.364   8.634  0.0878 -0.9211 -0.7514
16874SOL     OW52072   3.921   0.064   2.187 -0.3304 -0.1390  0.1704
16874SOL    HW152073   3.962   0.017   2.115  1.7947  1.8462 -0.0585
16874SOL    HW252074   3.894   0.148   2.149 -2.0543 -0.2783  1.0035
16875SOL     OW52075   2.799   8.855   2.232 -0.1454  0.1658  0.4594
16875SOL    HW152076   2.765   8.900   2.155 -1.3802  0.5408  1.2064
16875SOL    HW252077   2.792   8.762   2.210  1.3763  0.2563 -0.6418
16876SOL     OW52078   7.429   0.454   4.898 -0.6480 -0.6817  0.1709
16876SOL    HW152079   7.382   0.412   4.970 -0.7840 -0.1942  0.3726
16876SOL    HW252080   7.450   0.542   4.931 -0.5591 -0.5154 -0.3167
16877SOL     OW52081   3.247   0.079   2.788  0.2721  0.4492 -0.1155
16877SOL    HW152082   3.291   0.046   2.709 -1.7021 -2.9884  0.0445
16877SOL    HW252083   3.189   0.147   2.755  1.8284  1.3895 -1.0762
16878SOL     OW52084   0.049   3.082   1.303 -0.2361 -0.2142 -0.0074
16878SOL    HW152085   0.009   3.165   1.276 -2.1683 -0.4898  1.8167
16878SOL    HW252086  -0.025   3.027   1.330  1.2587 -1.1770  2.4318
16879SOL     OW52087   7.415   5.673   5.313 -0.3385 -0.0537 -0.0543
16879SOL    HW152088   7.418   5.747   5.252 -0.7449  0.1065  0.1230
16879SOL    HW252089   7.491   5.619   5.288 -1.0831 -0.5379 -1.3864
16880SOL     OW52090   8.007   0.109   5.565  0.2041  0.1120 -0.3483
16880SOL    HW152091   7.971   0.104   5.654  0.6452 -1.7296 -0.2251
16880SOL    HW252092   7.938   0.149   5.513 -1.1927 -1.3256  0.3050
16881SOL     OW52093   2.859   8.262   2.765  0.1862 -0.1076 -0.3120
16881SOL    HW152094   2.813   8.251   2.682  1.2106 -0.4028 -0.8540
16881SOL    HW252095   2.789   8.272   2.830 -0.6257  0.7258 -1.2788
16882SOL     OW52096   6.314   6.570   8.650 -0.0570  0.0670 -0.5082
16882SOL    HW152097   6.363   6.492   8.679  1.4354  0.6594 -1.3352
16882SOL    HW252098   6.320   6.568   8.555 -1.5417  0.2651 -0.6333
16883SOL     OW52099   0.717   8.787   1.462 -0.1633 -0.0215 -0.3854
16883SOL    HW152100   0.807   8.753   1.457 -1.3043 -3.7129  0.8047
16883SOL    HW252101   0.727   8.874   1.500  2.9435 -0.0702 -0.8066
16884SOL     OW52102   3.498   6.629   1.419  0.1992 -0.0397  0.5231
16884SOL    HW152103   3.571   6.568   1.427  0.6632  0.3891 -0.3507
16884SOL    HW252104   3.472   6.647   1.510  0.4273 -1.0719  0.8045
16885SOL     OW52105   7.971   1.873   7.515 -0.7938 -0.4265  0.1028
16885SOL    HW152106   8.028   1.905   7.445 -0.6763  0.6252  0.6580
16885SOL    HW252107   8.025   1.876   7.594 -1.2541 -0.5362  0.4272
16886SOL     OW52108   3.750   5.881   5.520 -0.8502  0.7476  0.4594
16886SOL    HW152109   3.658   5.897   5.543 -1.1993 -0.2977 -0.1329
16886SOL    HW252110   3.746   5.814   5.452  0.2964  1.6235 -0.5055
16887SOL     OW52111   3.579   3.346   2.196  0.5675 -0.3047  0.2260
16887SOL    HW152112   3.505   3.402   2.173  0.4923 -0.4767  0.0385
16887SOL    HW252113   3.643   3.361   2.127 -0.0735 -1.5918 -0.7081
16888SOL     OW52114   8.308   7.180   5.836  0.1989 -0.0850 -0.6574
16888SOL    HW152115   8.247   7.209   5.904  1.2661 -0.9816  0.7414
16888SOL    HW252116   8.276   7.221   5.756 -0.6233  1.6909  0.5168
16889SOL     OW52117   0.438   0.834   5.076  0.1536 -0.4422 -0.5102
16889SOL    HW152118   0.531   0.822   5.055  0.8275  1.1630  1.2474
16889SOL    HW252119   0.399   0.863   4.994  1.3790 -0.3464 -1.0922
16890SOL     OW52120   1.886   0.240   6.747  0.5746  0.1646 -0.4746
16890SOL    HW152121   1.827   0.255   6.673 -0.1340  2.8225  0.5129
16890SOL    HW252122   1.883   0.322   6.797 -0.1750 -1.9490  3.3500
16891SOL     OW52123   7.505   8.946   0.225 -0.0394 -0.4287  0.3496
16891SOL    HW152124   7.532   9.029   0.265  0.5196 -0.4261 -0.0332
16891SOL    HW252125   7.481   8.890   0.300 -3.7366  1.1386  0.5739
16892SOL     OW52126   6.295   6.482   6.390  0.2109  0.1985 -0.2775
16892SOL    HW152127   6.296   6.508   6.297  0.0465 -0.3376 -0.4360
16892SOL    HW252128   6.283   6.564   6.438 -2.5678  0.2480 -0.8486
16893SOL     OW52129   5.133   7.970   0.881  0.0304  0.1811 -0.1134
16893SOL    HW152130   5.104   7.948   0.792  1.6733 -1.0967 -0.3722
16893SOL    HW252131   5.052   7.993   0.927 -1.4671 -3.0335 -0.8306
16894SOL     OW52132   7.128   9.070   3.959 -0.2778  0.5523 -0.1788
16894SOL    HW152133   7.182   9.015   4.016 -0.1007 -0.3594 -1.1964
16894SOL    HW252134   7.038   9.040   3.976 -0.0486 -1.7207 -2.3349
16895SOL     OW52135   6.474   4.406   8.896  0.3085 -0.0363  0.5087
16895SOL    HW152136   6.462   4.366   8.810  0.7078  0.6370  0.1292
16895SOL    HW252137   6.386   4.432   8.923  0.2322  0.1110  0.1216
16896SOL     OW52138   7.913   8.753   4.328  0.1223  0.1150  0.2803
16896SOL    HW152139   7.975   8.747   4.255 -1.1236 -1.6489 -0.7292
16896SOL    HW252140   7.860   8.829   4.308  0.7566  0.5347  0.1561
16897SOL     OW52141   4.648   6.213   2.253 -0.3490  0.0541 -0.5068
16897SOL    HW152142   4.740   6.239   2.247  0.0482 -1.1673  0.0661
16897SOL    HW252143   4.648   6.118   2.241 -1.6307  0.1165 -1.2731
16898SOL     OW52144   4.679   2.304   4.655 -0.2165  0.1153  0.0694
16898SOL    HW152145   4.715   2.279   4.740  0.0970  0.4419  0.0396
16898SOL    HW252146   4.590   2.334   4.674 -0.5209 -0.8116  0.1292
16899SOL     OW52147   7.428   4.033   4.940 -0.5845  0.2687 -0.3177
16899SOL    HW152148   7.387   3.980   4.872  1.5050 -1.1000 -0.6224
16899SOL    HW252149   7.446   3.972   5.011  0.3655  0.9292  0.0313
16900SOL     OW52150   7.319   5.284   8.170  0.0628  0.0236 -0.1133
16900SOL    HW152151   7.307   5.349   8.101  0.8627  2.2817  1.7525
16900SOL    HW252152   7.414   5.280   8.183 -0.1003  0.2144  1.3294
16901SOL     OW52153   8.241   5.197   8.747 -0.1668 -0.4996  0.1631
16901SOL    HW152154   8.216   5.217   8.837 -1.4793 -0.5490 -0.1790
16901SOL    HW252155   8.264   5.282   8.709 -2.6473 -0.0020 -0.3500
16902SOL     OW52156   5.931   6.998   5.347 -0.8523  0.2916 -0.1921
16902SOL    HW152157   5.942   7.082   5.302  0.8441 -0.0720 -0.5397
16902SOL    HW252158   5.958   6.933   5.282 -2.3302 -0.5599  0.0054
16903SOL     OW52159   0.834   5.092   4.785 -0.2380  0.0659 -0.0270
16903SOL    HW152160   0.757   5.113   4.732 -0.5340  1.2941  0.8324
16903SOL    HW252161   0.895   5.163   4.766  0.3066 -0.3870  0.0246
16904SOL     OW52162   5.149   4.136   7.286  0.7927  0.2946  0.3024
16904SOL    HW152163   5.175   4.163   7.198  0.7476  1.0113  0.4997
16904SOL    HW252164   5.214   4.177   7.344  1.1322 -0.6058  0.5682
16905SOL     OW52165   0.726   5.694   5.880 -0.9080 -0.0086 -0.2127
16905SOL    HW152166   0.706   5.778   5.921 -0.3670  0.2530 -0.4881
16905SOL    HW252167   0.734   5.633   5.954 -1.1421  0.2103 -0.0046
16906SOL     OW52168   8.034   0.936   0.522 -0.1476  0.0916 -0.4104
16906SOL    HW152169   8.111   0.905   0.570 -0.2387 -1.2836 -1.1072
16906SOL    HW252170   7.970   0.954   0.590 -0.6890 -2.9599  0.0584
16907SOL     OW52171   0.725   0.650   7.816 -0.5330  0.2887 -0.7796
16907SOL    HW152172   0.686   0.666   7.729 -0.6421  1.0710 -0.5966
16907SOL    HW252173   0.777   0.571   7.805 -0.8336  0.1797 -1.4719
16908SOL     OW52174   5.646   2.172   9.158 -0.6686 -0.3982  0.0382
16908SOL    HW152175   5.551   2.179   9.163 -0.7154  0.7411 -1.6515
16908SOL    HW252176   5.665   2.168   9.064  0.9404 -0.9955  0.3542
16909SOL     OW52177   2.185   7.831   9.279  0.0700  0.2391 -0.2644
16909SOL    HW152178   2.210   7.832   9.187 -0.4311  1.4443 -0.4091
16909SOL    HW252179   2.092   7.853   9.279  0.2348  1.0153  0.5660
16910SOL     OW52180   7.943   2.937   0.296  0.2753 -0.6102  0.4237
16910SOL    HW152181   7.895   2.937   0.213  1.2501  0.7332 -0.1682
16910SOL    HW252182   7.887   2.886   0.356 -1.7594  0.6707 -0.2865
16911SOL     OW52183   1.953   1.599   4.637 -0.1321 -0.3115 -0.3720
16911SOL    HW152184   2.011   1.542   4.588 -1.8915 -1.5895 -1.0827
16911SOL    HW252185   1.901   1.644   4.570 -1.6205 -1.0303  0.2493
16912SOL     OW52186   6.479   8.709   3.076  0.5858 -0.3296 -0.0419
16912SOL    HW152187   6.446   8.799   3.075 -0.2103 -0.6055  0.1527
16912SOL    HW252188   6.401   8.656   3.058  0.8399 -1.0380  0.9066
16913SOL     OW52189   3.670   5.837   4.391  0.3313  0.2135  0.5585
16913SOL    HW152190   3.583   5.809   4.365  0.8311 -0.5982 -0.3003
16913SOL    HW252191   3.698   5.773   4.456  0.7672 -0.2690 -0.0889
16914SOL     OW52192   2.851   7.018   8.663 -0.2062 -0.0962  0.1238
16914SOL    HW152193   2.886   7.095   8.707  1.0673  0.9762 -2.5382
16914SOL    HW252194   2.889   7.021   8.575  0.6594 -4.2579  0.1028
16915SOL     OW52195   5.112   4.435   1.088 -1.1809  0.2654 -0.1742
16915SOL    HW152196   5.133   4.365   1.026  0.0172  1.6255 -1.3828
16915SOL    HW252197   5.041   4.484   1.047 -0.9740  0.6617 -0.0642
16916SOL     OW52198   2.762   5.565   8.852  0.6872 -0.3900  0.1133
16916SOL    HW152199   2.733   5.579   8.762  2.1189  0.0003 -0.3054
16916SOL    HW252200   2.815   5.641   8.873  0.5062 -0.5508  1.2516
16917SOL     OW52201   4.077   7.138   2.436  1.1689 -0.1498 -0.7534
16917SOL    HW152202   4.016   7.156   2.364 -0.9666  1.8740  1.3787
16917SOL    HW252203   4.106   7.225   2.465  2.8391 -0.9594  0.1549
16918SOL     OW52204   0.231   9.053   7.938  0.0604  0.1905  0.1957
16918SOL    HW152205   0.266   9.123   7.883  1.9013 -1.8209 -1.4009
16918SOL    HW252206   0.286   9.054   8.016  0.7210 -0.0516 -0.2576
16919SOL     OW52207   4.869   3.509   5.105  0.8898  0.8522  0.2539
16919SOL    HW152208   4.817   3.526   5.183  0.7969  0.3493  0.3011
16919SOL    HW252209   4.952   3.554   5.122  0.5062  1.5994  0.2049
16920SOL     OW52210   0.334   0.617   8.269  0.1980 -0.0133 -0.2926
16920SOL    HW152211   0.312   0.531   8.304 -0.7551  0.9439  1.6494
16920SOL    HW252212   0.275   0.629   8.194 -1.5149 -0.0771  0.9701
16921SOL     OW52213   0.570   1.009   3.881 -0.2463  0.4923 -0.3045
16921SOL    HW152214   0.570   1.069   3.807  2.1305 -0.6105 -1.3181
16921SOL    HW252215   0.578   1.066   3.958 -0.5588  1.5609 -1.0410
16922SOL     OW52216   6.083   9.250   5.624  0.1722 -0.4376 -0.1224
16922SOL    HW152217   6.071   9.333   5.672 -0.4416 -0.5860 -0.0090
16922SOL    HW252218   6.115   9.277   5.538  0.7130 -0.1308  0.1703
16923SOL     OW52219   8.554   8.550   7.934  0.2245  0.3672  0.2638
16923SOL    HW152220   8.645   8.523   7.951 -0.1637 -0.1181  1.7016
16923SOL    HW252221   8.548   8.639   7.969 -0.2710 -0.2118  1.7298
16924SOL     OW52222   2.753   7.113   2.198  0.1214 -0.3582  0.0072
16924SOL    HW152223   2.754   7.026   2.239  0.6630  0.4159  1.6808
16924SOL    HW252224   2.792   7.098   2.112 -1.0088 -2.0136 -0.2901
16925SOL     OW52225   3.797   9.194   3.125 -0.8924 -0.1229 -0.1619
16925SOL    HW152226   3.702   9.195   3.116 -0.7993  0.0882 -1.2822
16925SOL    HW252227   3.815   9.118   3.181 -1.6216 -1.2556 -1.3953
16926SOL     OW52228   4.363   2.234   7.538  0.3260  0.2626  0.1137
16926SOL    HW152229   4.422   2.175   7.584 -0.3297 -0.7050 -0.2565
16926SOL    HW252230   4.394   2.322   7.561  0.0219 -0.1612  2.3866
16927SOL     OW52231   8.531   9.080   3.618  0.1024 -0.0024 -0.0065
16927SOL    HW152232   8.480   9.011   3.659 -0.2012  0.3251  0.1724
16927SOL    HW252233   8.620   9.045   3.615 -0.1633 -0.6531 -0.5004
16928SOL     OW52234   1.388   4.240   2.299  0.3849 -0.1923  0.5348
16928SOL    HW152235   1.466   4.185   2.297  0.4983 -0.0793  1.5918
16928SOL    HW252236   1.422   4.329   2.311  0.1336 -0.0322  0.1010
16929SOL     OW52237   9.061   8.176   6.617  0.6440 -0.3458  0.8028
16929SOL    HW152238   9.026   8.130   6.694  2.1055  0.6467  2.1306
16929SOL    HW252239   9.149   8.205   6.644  1.4206 -0.4061 -1.4375
16930SOL     OW52240   7.754   0.802   3.336 -0.6167  0.5636 -0.0139
16930SOL    HW152241   7.754   0.867   3.406  1.0646  0.6948 -0.0861
16930SOL    HW252242   7.671   0.756   3.346 -1.3598  1.9971  0.7123
16931SOL     OW52243   1.656   2.501   3.372 -0.1702  0.1290 -0.1531
16931SOL    HW152244   1.706   2.554   3.434 -0.2737 -0.1851  0.1955
16931SOL    HW252245   1.581   2.556   3.349 -0.2953  0.1180  0.2341
16932SOL     OW52246   6.018   1.079   7.655 -0.5464  0.1854 -0.1229
16932SOL    HW152247   5.923   1.067   7.660 -0.6470  0.1981 -1.4488
16932SOL    HW252248   6.030   1.172   7.637 -0.4255 -0.1299 -1.9332
16933SOL     OW52249   1.989   8.498   8.654  0.5243  0.3779  0.7976
16933SOL    HW152250   1.898   8.513   8.631  0.0022 -2.5473  0.5119
16933SOL    HW252251   2.038   8.521   8.575 -0.4045 -1.5080 -0.4044
16934SOL     OW52252   8.880   2.705   1.693  0.4128  0.0446  0.1492
16934SOL    HW152253   8.904   2.625   1.648  0.3665 -0.5208  1.1049
16934SOL    HW252254   8.832   2.676   1.770 -0.6583  1.0403 -0.1111
16935SOL     OW52255   8.323   6.360   3.246  0.6545  0.0472 -0.1040
16935SOL    HW152256   8.301   6.453   3.239 -0.4370 -0.1959 -0.1426
16935SOL    HW252257   8.281   6.331   3.327 -0.5549 -0.8025 -0.9923
16936SOL     OW52258   7.631   4.621   0.757 -0.4112 -0.1877  0.2718
16936SOL    HW152259   7.560   4.571   0.716 -0.3183  0.0458 -0.1855
16936SOL    HW252260   7.710   4.595   0.709 -0.3037  0.1079  0.2851
16937SOL     OW52261   2.740   1.932   6.928 -0.4044  0.2343 -0.5255
16937SOL    HW152262   2.692   2.012   6.907 -1.6064  0.3235  2.0904
16937SOL    HW252263   2.674   1.875   6.968  1.1450 -0.6492  0.8682
16938SOL     OW52264   4.788   6.678   3.614  0.0819  0.6633  0.3180
16938SOL    HW152265   4.733   6.680   3.536 -1.5379  2.3389  1.4358
16938SOL    HW252266   4.767   6.758   3.661  1.1395 -0.1979  2.4066
16939SOL     OW52267   4.184   2.136   3.657  0.0932 -0.4184  0.2854
16939SOL    HW152268   4.204   2.194   3.731  1.9785 -0.5034 -0.1110
16939SOL    HW252269   4.259   2.076   3.654  1.1733  0.8954 -2.9699
16940SOL     OW52270   1.757   8.251   4.175 -0.0588  0.4083 -0.3611
16940SOL    HW152271   1.793   8.180   4.123 -1.1822 -0.4397 -0.0179
16940SOL    HW252272   1.686   8.211   4.226  0.2718  1.4415  0.9920
16941SOL     OW52273   6.016   5.366   7.254 -0.4119 -0.1916  0.3041
16941SOL    HW152274   5.955   5.342   7.324 -0.6472 -0.5736 -0.0264
16941SOL    HW252275   6.065   5.440   7.289 -1.3993  0.4301  0.4037
16942SOL     OW52276   5.823   3.012   8.677  0.2653 -0.5061  0.4654
16942SOL    HW152277   5.839   3.062   8.597  0.1860 -0.7156  0.3158
16942SOL    HW252278   5.775   3.071   8.734  0.6995 -0.2113  0.5252
16943SOL     OW52279   8.294   4.195   6.186  0.0562  0.6326  0.0948
16943SOL    HW152280   8.347   4.182   6.108 -1.7664 -0.4573 -1.0401
16943SOL    HW252281   8.330   4.133   6.250  0.3108  0.0974 -0.5579
16944SOL     OW52282   1.259   5.232   8.536  0.1757 -0.3070 -0.3484
16944SOL    HW152283   1.296   5.143   8.536  0.1452 -0.3308  0.8176
16944SOL    HW252284   1.166   5.220   8.519 -0.0643 -0.6250  1.0787
16945SOL     OW52285   1.224   5.716   8.535 -0.4051 -0.3671  0.2131
16945SOL    HW152286   1.248   5.773   8.608  1.8085 -1.0992  0.1283
16945SOL    HW252287   1.233   5.627   8.570 -1.0489 -0.7083 -0.4616
16946SOL     OW52288   4.524   3.828   0.606 -0.0595 -0.5822  0.6707
16946SOL    HW152289   4.549   3.853   0.517  0.6656 -0.4777  0.8942
16946SOL    HW252290   4.554   3.738   0.615 -1.4886 -1.1238  0.3125
16947SOL     OW52291   1.566   7.174   3.319 -0.1927  0.3369  0.1040
16947SOL    HW152292   1.553   7.150   3.227  1.7249 -0.1991 -0.0853
16947SOL    HW252293   1.577   7.269   3.317 -1.9023  0.5568  0.0443
16948SOL     OW52294   9.101   6.327   2.864  0.0071  0.3222  0.2204
16948SOL    HW152295   9.088   6.258   2.930  0.6579 -0.3464 -0.3372
16948SOL    HW252296   9.066   6.406   2.905 -0.4418 -0.2712  1.0062
16949SOL     OW52297   0.317   7.707   5.305  0.3433 -0.3479  0.0398
16949SOL    HW152298   0.265   7.690   5.383  0.5478 -2.7131 -0.2762
16949SOL    HW252299   0.381   7.773   5.333 -0.1804 -0.4507  1.5790
16950SOL     OW52300   3.118   7.539   3.549  0.0092 -0.3296  0.4579
16950SOL    HW152301   3.164   7.531   3.632 -0.7156  0.7148  0.9868
16950SOL    HW252302   3.166   7.607   3.501 -0.8243  0.5942  0.9145
16951SOL     OW52303   2.542   2.950   7.502  0.3218  0.7048 -0.1316
16951SOL    HW152304   2.464   2.999   7.529  0.4252  0.4911  0.5791
16951SOL    HW252305   2.562   2.983   7.415 -1.2898 -0.1103 -0.8610
16952SOL     OW52306   3.112   5.232   8.418  0.6929 -1.1942  0.0083
16952SOL    HW152307   3.108   5.262   8.509 -0.7156 -1.7793  0.1562
16952SOL    HW252308   3.190   5.275   8.383 -0.3051  1.3396  0.6642
16953SOL     OW52309   6.656   2.430   0.407 -0.1034  0.5507 -0.4760
16953SOL    HW152310   6.643   2.475   0.324  0.7826 -1.9323 -2.0917
16953SOL    HW252311   6.685   2.342   0.382 -0.9496 -0.6835  2.4540
16954SOL     OW52312   2.561   1.061   8.980 -0.3183 -0.1651  0.7091
16954SOL    HW152313   2.488   1.075   8.920 -0.8925  0.5608  1.5480
16954SOL    HW252314   2.548   1.127   9.048  0.3875 -0.8850  1.5536
16955SOL     OW52315   3.383   8.037   3.483 -0.2362  0.0510  0.7589
16955SOL    HW152316   3.433   7.987   3.418  0.7535 -1.1331  2.3570
16955SOL    HW252317   3.427   8.122   3.486  0.7975 -0.4720  1.0753
16956SOL     OW52318   2.074   0.477   4.002 -0.1007  0.0408 -0.2634
16956SOL    HW152319   2.127   0.522   3.936 -0.4705  0.6965 -0.1261
16956SOL    HW252320   1.984   0.489   3.971 -0.5691  2.9061  1.8047
16957SOL     OW52321   0.883   7.634   2.231 -0.4391 -0.3590  0.2038
16957SOL    HW152322   0.934   7.555   2.250 -0.3325 -0.0404  1.3401
16957SOL    HW252323   0.902   7.693   2.304  0.4114  1.2002 -1.2068
16958SOL     OW52324   2.915   8.798   5.823 -0.3247 -0.3217  0.3314
16958SOL    HW152325   2.880   8.886   5.814  0.6098  0.0567  0.3022
16958SOL    HW252326   2.967   8.785   5.743 -0.8181 -1.0735  0.1221
16959SOL     OW52327   2.920   6.548   2.345  0.2882 -0.1453 -0.0174
16959SOL    HW152328   2.862   6.605   2.295  1.1677  1.1939  0.4378
16959SOL    HW252329   2.873   6.464   2.350 -1.6761  0.9132  0.4708
16960SOL     OW52330   3.059   8.586   6.228  0.2424 -0.0259  0.4354
16960SOL    HW152331   3.017   8.501   6.242 -0.2996  0.3786  1.4047
16960SOL    HW252332   3.050   8.631   6.313 -0.5956  1.4794 -0.4110
16961SOL     OW52333   2.331   4.927   2.911 -0.2738  0.6411  0.4277
16961SOL    HW152334   2.357   4.890   2.996 -0.9620  0.4794  0.5724
16961SOL    HW252335   2.350   5.021   2.919 -1.1380  0.7696  1.0803
16962SOL     OW52336   5.379   6.016   1.355 -0.1280 -0.5649 -0.2313
16962SOL    HW152337   5.400   5.977   1.270  1.7213  0.7534 -0.4423
16962SOL    HW252338   5.304   6.073   1.338  0.6680  0.2469 -1.1905
16963SOL     OW52339   1.738   1.692   1.337  0.3590  0.1215  0.0176
16963SOL    HW152340   1.736   1.717   1.429  1.0793  2.0717 -0.4465
16963SOL    HW252341   1.817   1.640   1.328  0.2033 -0.2100  0.5185
16964SOL     OW52342   9.088   8.797   1.055 -0.3598 -0.3324  0.0009
16964SOL    HW152343   9.115   8.874   1.006  0.7693 -0.2569  0.7027
16964SOL    HW252344   9.059   8.735   0.988  0.9422 -0.1575 -0.7639
16965SOL     OW52345   6.616   1.695   6.655  0.4922 -0.2841 -0.5525
16965SOL    HW152346   6.574   1.612   6.633 -0.8789 -0.4031  2.0456
16965SOL    HW252347   6.546   1.760   6.646  0.3952 -0.0766  1.2826
16966SOL     OW52348   5.410   6.532   6.811 -0.6079  0.3840 -0.0417
16966SOL    HW152349   5.347   6.559   6.745  0.6718  0.5111 -1.2461
16966SOL    HW252350   5.395   6.438   6.822 -0.9253  0.3929 -0.3990
16967SOL     OW52351   1.069   3.278   0.111  0.1606  0.5839 -0.4824
16967SOL    HW152352   1.164   3.272   0.117  0.2599  2.5715  0.7020
16967SOL    HW252353   1.043   3.197   0.066  2.4662  0.5068 -1.8412
16968SOL     OW52354   5.376   4.877   3.303  0.2401  0.4383  0.5106
16968SOL    HW152355   5.332   4.922   3.230  1.2986 -1.9381 -1.7782
16968SOL    HW252356   5.345   4.787   3.297  1.7823 -0.2313  1.8686
16969SOL     OW52357   5.343   3.684   2.327  0.1770 -0.2041  0.2135
16969SOL    HW152358   5.429   3.675   2.285 -0.5631 -1.8992 -1.0755
16969SOL    HW252359   5.316   3.773   2.306  0.8801 -0.2309 -0.9368
16970SOL     OW52360   1.033   3.964   8.326 -0.4830 -0.1949  0.1934
16970SOL    HW152361   1.125   3.991   8.333 -0.4971 -0.5259  2.6116
16970SOL    HW252362   0.994   4.025   8.263  1.0322  0.9267  0.2834
16971SOL     OW52363   0.217   1.754   0.026 -0.1616 -0.4082  0.3557
16971SOL    HW152364   0.265   1.785   0.103 -1.0502 -0.0498  0.7745
16971SOL    HW252365   0.222   1.826  -0.036 -1.2235  0.1448  0.8849
16972SOL     OW52366   3.937   7.701   2.740 -0.2399  0.2944 -0.1854
16972SOL    HW152367   3.999   7.642   2.784 -1.0336 -0.5390 -0.1538
16972SOL    HW252368   3.991   7.773   2.709  0.4388  0.6651  1.7164
16973SOL     OW52369   5.423   3.829   8.746  0.0139 -0.3871 -0.1559
16973SOL    HW152370   5.412   3.920   8.718  1.5627 -0.5631 -1.4399
16973SOL    HW252371   5.335   3.801   8.771 -0.3485  1.7521  1.2534
16974SOL     OW52372   6.891   8.117   8.151  0.3253  0.5037  0.2295
16974SOL    HW152373   6.801   8.093   8.174  0.2976 -0.0312 -0.4137
16974SOL    HW252374   6.944   8.044   8.182  0.4320  0.4045 -0.1712
16975SOL     OW52375   3.411   2.053   6.039 -0.2918  0.3660  0.2316
16975SOL    HW152376   3.502   2.023   6.033 -0.3144  0.0037  1.3971
16975SOL    HW252377   3.387   2.074   5.949  2.2061  4.2772  0.2236
16976SOL     OW52378   7.762   2.660   3.449  0.5250  0.4071  0.0063
16976SOL    HW152379   7.697   2.637   3.515  1.2810  1.6845  1.2729
16976SOL    HW252380   7.801   2.577   3.423 -1.4707 -0.3566 -0.6668
16977SOL     OW52381   5.365   1.494   5.445  0.6220  0.6525 -0.9696
16977SOL    HW152382   5.293   1.449   5.401 -0.6515 -0.8255  2.3504
16977SOL    HW252383   5.338   1.586   5.448  0.1693  0.5744 -2.0473
16978SOL     OW52384   3.898   8.500   3.199  0.1381  0.3601  0.3101
16978SOL    HW152385   3.806   8.519   3.217 -0.0235  0.0606 -0.1999
16978SOL    HW252386   3.898   8.460   3.113  0.6749 -0.2331  0.5781
16979SOL     OW52387   7.514   9.027   2.971 -0.4966 -0.2138 -0.1016
16979SOL    HW152388   7.442   8.977   2.933 -1.4802  1.1441 -0.0993
16979SOL    HW252389   7.481   9.058   3.055  0.7185 -0.9805  0.6993
16980SOL     OW52390   3.106   8.662   7.954 -0.2609  0.1396 -0.7984
16980SOL    HW152391   3.183   8.675   7.899  1.1955  1.5523  1.4475
16980SOL    HW252392   3.123   8.713   8.033 -1.4819 -3.0465  1.7512
16981SOL     OW52393   1.080   4.298   3.187 -0.0464 -0.6366 -0.1154
16981SOL    HW152394   1.048   4.251   3.110 -1.8642 -2.2776  1.5401
16981SOL    HW252395   1.016   4.368   3.199  1.1093  0.6081 -0.9455
16982SOL     OW52396   0.491   6.829   4.514  0.2362 -0.4722  0.0938
16982SOL    HW152397   0.419   6.765   4.511 -0.6036  0.4809 -0.7017
16982SOL    HW252398   0.535   6.811   4.597 -0.8332 -1.1739  0.5363
16983SOL     OW52399   6.012   7.078   1.253 -0.2819  0.0468 -0.0449
16983SOL    HW152400   5.959   7.020   1.308 -0.8981  0.2773 -0.3935
16983SOL    HW252401   6.018   7.033   1.169  1.5099 -0.7924  0.4842
16984SOL     OW52402   2.182   3.351   6.506  0.4510  0.0174  0.0688
16984SOL    HW152403   2.268   3.346   6.465  0.2042  1.1392 -0.6007
16984SOL    HW252404   2.136   3.420   6.459 -1.2480 -1.3320 -0.3487
16985SOL     OW52405   0.835   0.948   4.066 -0.1471  0.1561  0.5249
16985SOL    HW152406   0.788   1.029   4.083  0.6854  0.4167  1.6979
16985SOL    HW252407   0.774   0.879   4.090 -0.3326  0.4689  0.9534
16986SOL     OW52408   4.678   8.227   7.894  0.0029  0.2615 -0.0511
16986SOL    HW152409   4.670   8.202   7.986 -2.4270  0.7016 -0.0953
16986SOL    HW252410   4.769   8.256   7.886  0.7490 -1.3078  1.7942
16987SOL     OW52411   7.327   1.292   6.110 -0.0701 -0.7232 -0.5626
16987SOL    HW152412   7.359   1.357   6.173 -1.0446 -0.9861  0.2393
16987SOL    HW252413   7.404   1.269   6.058  0.2319  1.2954 -1.1034
16988SOL     OW52414   5.728   4.713   3.016 -0.3414 -0.1048 -0.0335
16988SOL    HW152415   5.686   4.676   3.093 -2.6700  1.8302 -0.2515
16988SOL    HW252416   5.765   4.796   3.047 -1.6386  0.8806 -1.0230
16989SOL     OW52417   7.400   4.855   9.183  0.1710  0.1273  0.0640
16989SOL    HW152418   7.414   4.927   9.244  2.2197  0.7251 -1.0274
16989SOL    HW252419   7.417   4.893   9.097  1.9015 -1.7371 -0.5050
16990SOL     OW52420   0.536   4.617   1.854  0.1836  0.4938 -0.7305
16990SOL    HW152421   0.600   4.604   1.784  2.1369 -1.0230  1.1802
16990SOL    HW252422   0.452   4.595   1.815  1.3292 -1.2612 -2.3754
16991SOL     OW52423   6.881   5.923   7.509  0.0926  0.1694  0.0861
16991SOL    HW152424   6.930   5.947   7.588 -0.8857  2.3112  0.1178
16991SOL    HW252425   6.799   5.887   7.541 -0.3739  1.1933  0.0826
16992SOL     OW52426   1.064   9.016   0.789  0.2738  0.3193  0.1157
16992SOL    HW152427   1.020   9.084   0.737 -0.0468  1.1602  1.4461
16992SOL    HW252428   1.102   9.063   0.863 -2.7452 -1.2354  2.9241
16993SOL     OW52429   3.007   3.962   7.650  0.6760 -0.0632  0.0066
16993SOL    HW152430   2.940   3.900   7.680  1.3228  0.0456  1.8267
16993SOL    HW252431   3.075   3.956   7.717  1.9664  0.6649 -1.2101
16994SOL     OW52432   3.182   2.142   5.861  0.2271 -0.4271  0.6060
16994SOL    HW152433   3.097   2.130   5.904 -0.6873  0.8329 -0.7571
16994SOL    HW252434   3.172   2.101   5.775  0.4191  1.0922 -0.1820
16995SOL     OW52435   4.382   7.180   2.152  0.2068 -0.4228  0.5868
16995SOL    HW152436   4.315   7.111   2.156  1.8027 -2.1374 -0.4959
16995SOL    HW252437   4.433   7.168   2.233  0.1008 -0.0688  0.7086
16996SOL     OW52438   3.227   2.296   7.304  0.2891  0.3767 -0.3395
16996SOL    HW152439   3.217   2.296   7.399  0.0838 -1.1419 -0.3292
16996SOL    HW252440   3.321   2.305   7.289  0.6477 -1.8327  0.1351
16997SOL     OW52441   2.591   7.244   5.224  0.2862  0.2916 -0.4022
16997SOL    HW152442   2.646   7.187   5.278  1.4646  1.4136 -0.3722
16997SOL    HW252443   2.503   7.207   5.232  1.0430 -1.6578 -0.5871
16998SOL     OW52444   4.145   7.965   5.744 -0.0612  0.2239 -0.2671
16998SOL    HW152445   4.123   7.944   5.835  1.3490  2.3550  0.6529
16998SOL    HW252446   4.087   8.038   5.721  0.5162  0.5865 -0.5991
16999SOL     OW52447   3.863   8.777   6.074  0.5456 -0.3007 -0.3938
16999SOL    HW152448   3.931   8.838   6.103 -1.0036  0.9001  0.9070
16999SOL    HW252449   3.890   8.692   6.109  1.7791 -0.0282 -0.6189
17000SOL     OW52450   6.343   8.913   0.537 -0.1908 -0.0178 -0.1796
17000SOL    HW152451   6.277   8.935   0.471  1.5491 -0.6416 -2.2331
17000SOL    HW252452   6.385   8.996   0.557  2.3278 -0.3248 -3.4173
17001SOL     OW52453   5.119   8.400   4.384 -0.6383  0.5084 -0.3180
17001SOL    HW152454   5.108   8.386   4.290 -4.3307  1.3420 -0.1669
17001SOL    HW252455   5.092   8.491   4.398 -1.7240 -0.0628  1.7082
17002SOL     OW52456   7.505   5.709   9.268  0.3323  0.3696 -0.3987
17002SOL    HW152457   7.472   5.778   9.210 -0.2835  0.4405  0.0264
17002SOL    HW252458   7.599   5.707   9.251  0.3762  1.3949 -0.3355
17003SOL     OW52459   8.632   4.737   8.072 -0.2931 -0.1908 -0.2504
17003SOL    HW152460   8.538   4.719   8.066 -0.0991 -0.7340 -3.0236
17003SOL    HW252461   8.674   4.655   8.046  1.0555 -0.3161  2.0266
17004SOL     OW52462   4.979   8.820   2.491 -0.3010 -0.2278  0.0635
17004SOL    HW152463   5.070   8.805   2.464 -0.4399  1.0383 -1.2542
17004SOL    HW252464   4.973   8.915   2.501 -1.2140 -0.3832  1.1880
17005SOL     OW52465   8.423   5.428   4.117  0.1089 -0.5414 -0.3732
17005SOL    HW152466   8.510   5.403   4.150  0.0538  1.4270  1.5221
17005SOL    HW252467   8.440   5.500   4.057 -0.2099  0.8157  1.0764
17006SOL     OW52468   3.559   7.081   2.637  0.1387  0.2427 -0.2597
17006SOL    HW152469   3.521   7.003   2.597 -1.7063  0.4167  1.0228
17006SOL    HW252470   3.626   7.048   2.696 -1.2017 -0.5040  0.9128
17007SOL     OW52471   3.947   2.268   2.875  0.3783 -0.5145 -0.1304
17007SOL    HW152472   3.952   2.335   2.807 -0.0322 -1.0378 -0.6830
17007SOL    HW252473   3.880   2.207   2.844  2.8070 -2.8782 -1.1474
17008SOL     OW52474   6.550   9.084   5.980 -0.7340  0.2922 -0.1138
17008SOL    HW152475   6.515   9.000   6.009  1.4511 -0.1540  1.5443
17008SOL    HW252476   6.573   9.071   5.889  1.0190 -1.4928  0.5162
17009SOL     OW52477   2.903   3.438   5.679  0.4201 -0.5853 -0.2993
17009SOL    HW152478   2.991   3.419   5.646 -0.5032 -2.1111 -2.0988
17009SOL    HW252479   2.865   3.497   5.615  0.1503  0.1661  0.5343
17010SOL     OW52480   2.649   3.582   4.863  0.0342  0.0450  0.5639
17010SOL    HW152481   2.692   3.600   4.780  1.1042 -1.2540  0.7972
17010SOL    HW252482   2.575   3.643   4.866  1.0148  1.3384 -0.5108
17011SOL     OW52483   8.893   2.817   3.916 -0.0653  0.2905 -0.5624
17011SOL    HW152484   8.852   2.745   3.964  1.1105  0.2758  0.5002
17011SOL    HW252485   8.969   2.841   3.971  0.8199  0.8674 -1.9906
17012SOL     OW52486   2.549   2.960   9.226 -0.1908 -0.2639 -0.0530
17012SOL    HW152487   2.546   2.889   9.290  0.1461 -1.5899 -1.4298
17012SOL    HW252488   2.495   2.928   9.153  1.9976 -0.2817 -1.7826
17013SOL     OW52489   4.310   2.540   8.298 -0.0510 -0.0651 -0.6493
17013SOL    HW152490   4.311   2.522   8.204  0.2984 -1.9552 -0.3213
17013SOL    HW252491   4.258   2.469   8.335  0.5054  0.1933  0.6803
17014SOL     OW52492   8.394   5.643   7.394 -0.1529  0.3662 -0.0783
17014SOL    HW152493   8.393   5.572   7.458 -0.4866  0.2823 -0.1731
17014SOL    HW252494   8.423   5.720   7.444  1.1424 -0.0346 -0.1990
17015SOL     OW52495   4.477   1.516   5.136 -0.0409  0.1711  0.3694
17015SOL    HW152496   4.395   1.564   5.147 -0.9257 -0.8322 -1.4660
17015SOL    HW252497   4.459   1.452   5.068  2.1379 -0.4272  0.2720
17016SOL     OW52498   2.757   3.723   8.372  0.6241 -0.7608 -0.3456
17016SOL    HW152499   2.807   3.649   8.335  0.2210 -0.9786 -0.4603
17016SOL    HW252500   2.758   3.789   8.303 -2.2296 -2.0789 -1.8404
17017SOL     OW52501   6.815   4.334   5.395  0.2527 -0.5784 -0.4529
17017SOL    HW152502   6.840   4.361   5.306  0.5453  0.7579  0.0029
17017SOL    HW252503   6.790   4.416   5.438 -2.8310 -1.5488 -0.1877
17018SOL     OW52504   6.445   4.575   7.393  0.2210  0.2585 -0.3201
17018SOL    HW152505   6.395   4.587   7.473 -0.5790  1.1381 -0.9422
17018SOL    HW252506   6.531   4.611   7.412  0.0350  0.4539  0.1400
17019SOL     OW52507   0.083   9.227   7.347  0.1257  0.6758  0.5450
17019SOL    HW152508  -0.012   9.222   7.362  0.1450 -1.1304  0.3216
17019SOL    HW252509   0.094   9.304   7.291 -1.2714  0.6777  0.2204
17020SOL     OW52510   8.011   7.872   2.645  0.6230  0.1191 -0.2061
17020SOL    HW152511   8.039   7.899   2.558  0.1106 -0.0610 -0.4287
17020SOL    HW252512   7.946   7.804   2.630  0.2902  0.3145  0.3093
17021SOL     OW52513   1.051   4.785   3.594  0.4439 -1.2683  0.3935
17021SOL    HW152514   1.135   4.785   3.549  2.0972  1.4001  3.0880
17021SOL    HW252515   1.014   4.871   3.575 -0.2510 -1.2869  1.5852
17022SOL     OW52516   5.916   5.265   0.975 -0.7073 -0.1294 -0.3805
17022SOL    HW152517   5.845   5.206   1.000 -1.2027  0.9184  0.7476
17022SOL    HW252518   5.977   5.262   1.050 -1.0883  1.3059  0.0150
17023SOL     OW52519   5.701   7.885   2.132  0.3740  0.4491 -0.6352
17023SOL    HW152520   5.772   7.875   2.069 -1.6149 -0.1368 -2.9195
17023SOL    HW252521   5.638   7.817   2.109 -0.1624 -0.3107  2.5107
17024SOL     OW52522   2.015   1.468   8.008  0.0257  0.0813 -0.4112
17024SOL    HW152523   1.969   1.518   7.941 -0.6607  0.5091  0.3641
17024SOL    HW252524   2.066   1.403   7.959 -1.3032 -0.3268 -1.2990
17025SOL     OW52525   7.053   6.002   9.066 -0.1031  0.6100  0.2812
17025SOL    HW152526   6.980   6.026   9.122 -0.2931 -0.2360  0.4061
17025SOL    HW252527   7.025   5.921   9.023 -0.0147  1.3034 -1.1334
17026SOL     OW52528   1.883   2.647   2.319  0.2645 -0.7590 -0.1503
17026SOL    HW152529   1.892   2.566   2.369  1.4628 -0.6393 -0.1457
17026SOL    HW252530   1.949   2.640   2.250 -0.7008 -0.4902 -1.1392
17027SOL     OW52531   0.176   4.445   9.003  0.0902  0.4178  0.0665
17027SOL    HW152532   0.096   4.415   8.959 -0.5413  1.9936  0.0886
17027SOL    HW252533   0.247   4.410   8.949 -0.6262 -0.3325 -0.4082
17028SOL     OW52534   4.584   2.304   6.004 -0.1999  0.5272 -0.3878
17028SOL    HW152535   4.528   2.242   6.050 -0.4430  0.2659 -1.0274
17028SOL    HW252536   4.628   2.352   6.074 -1.5483  1.0445  0.1579
17029SOL     OW52537   3.290   0.603   1.032 -0.0751  0.5509 -0.4177
17029SOL    HW152538   3.325   0.594   1.121 -0.1612  2.0686 -0.2075
17029SOL    HW252539   3.244   0.521   1.016  1.1217 -0.3152  0.4078
17030SOL     OW52540   6.157   1.683   3.028 -0.3228 -0.8260 -0.1445
17030SOL    HW152541   6.221   1.744   2.992 -0.8827 -0.8734 -1.2517
17030SOL    HW252542   6.196   1.654   3.111 -0.4734  1.7951  0.9755
17031SOL     OW52543   4.107   6.631   8.432 -0.7473  0.0160  0.4323
17031SOL    HW152544   4.171   6.601   8.497  0.6187  0.4235 -0.6971
17031SOL    HW252545   4.126   6.724   8.421 -2.8042  0.6284  1.4588
17032SOL     OW52546   6.062   2.081   0.249 -0.3187  0.2262 -0.2678
17032SOL    HW152547   6.044   2.117   0.163  0.4533 -0.0394 -0.5492
17032SOL    HW252548   6.060   1.986   0.236 -0.2984  0.1829  0.0332
17033SOL     OW52549   3.684   1.815   7.885  0.0877  0.0568  0.0860
17033SOL    HW152550   3.673   1.804   7.980 -0.5938 -0.2264 -0.0206
17033SOL    HW252551   3.683   1.726   7.851 -0.2715  0.1876 -0.2501
17034SOL     OW52552   5.530   3.089   2.507 -0.0713  0.1009 -0.0192
17034SOL    HW152553   5.607   3.072   2.561 -0.5428 -0.2168  0.5679
17034SOL    HW252554   5.500   3.002   2.479 -0.7115  0.1538  0.4656
17035SOL     OW52555   0.225   6.830   0.252 -0.1621 -0.0072  0.1965
17035SOL    HW152556   0.303   6.868   0.291 -0.5682  1.8288 -0.6644
17035SOL    HW252557   0.153   6.888   0.280 -1.1757 -1.4215  0.6478
17036SOL     OW52558   7.211   3.680   8.381 -1.3153  0.0739 -0.5382
17036SOL    HW152559   7.301   3.652   8.362 -1.0897 -0.8754  1.5837
17036SOL    HW252560   7.195   3.752   8.321  0.1393 -1.0296 -2.3489
17037SOL     OW52561   0.267   1.322   1.090  0.0228  0.1801 -0.4131
17037SOL    HW152562   0.224   1.369   1.019 -0.0868  0.9632  0.1657
17037SOL    HW252563   0.274   1.232   1.058 -0.1654  0.4906 -1.3493
17038SOL     OW52564   3.381   7.891   1.704 -0.5867 -0.3856 -0.3297
17038SOL    HW152565   3.395   7.844   1.786  2.7401  2.2533  0.8620
17038SOL    HW252566   3.429   7.840   1.639 -1.8835 -1.6186 -0.3778
17039SOL     OW52567   6.064   0.960   2.901 -0.5652  0.6940 -0.0293
17039SOL    HW152568   6.117   0.923   2.972  0.7257  1.5130 -0.5259
17039SOL    HW252569   5.998   0.893   2.884  1.0658 -0.9810 -0.2205
17040SOL     OW52570   6.189   4.655   1.705 -0.5110 -0.1011  0.3239
17040SOL    HW152571   6.207   4.599   1.780 -0.5813  0.1189  0.5066
17040SOL    HW252572   6.262   4.639   1.645  0.5072  1.0507  1.2154
17041SOL     OW52573   1.406   8.666   2.207  0.1399  0.0397 -0.5563
17041SOL    HW152574   1.424   8.756   2.234  0.2720 -0.4110  0.9445
17041SOL    HW252575   1.322   8.671   2.162 -1.2706  0.5194  1.9795
17042SOL     OW52576   8.751   3.316   2.985 -0.4012 -0.3181 -0.2220
17042SOL    HW152577   8.767   3.223   2.995 -0.0534 -0.4125 -1.4495
17042SOL    HW252578   8.696   3.340   3.059  1.2717 -1.0446  1.3303
17043SOL     OW52579   1.594   0.285   0.035  0.4426 -0.1612 -0.0952
17043SOL    HW152580   1.587   0.193   0.007  0.2078  0.3930 -2.0576
17043SOL    HW252581   1.533   0.293   0.108  0.5604 -1.5898  0.2009
17044SOL     OW52582   4.242   7.866   3.865  0.4023 -0.3859 -0.2851
17044SOL    HW152583   4.155   7.893   3.895  0.6498  0.1621 -0.0259
17044SOL    HW252584   4.283   7.829   3.943  1.0465  1.0332  0.0826
17045SOL     OW52585   9.036   1.002   1.285 -0.2184 -0.0871  0.0642
17045SOL    HW152586   8.973   1.071   1.263  1.3526  1.9278  1.5244
17045SOL    HW252587   9.101   1.006   1.215 -0.3583 -0.4038 -0.0851
17046SOL     OW52588   4.188   6.760   4.102 -0.2070 -0.7221  0.2703
17046SOL    HW152589   4.170   6.681   4.052 -0.9358  0.3355 -1.1831
17046SOL    HW252590   4.282   6.756   4.119 -0.0327 -1.3523 -0.7488
17047SOL     OW52591   7.030   7.645   5.803  0.4055  0.3741 -0.0639
17047SOL    HW152592   7.109   7.592   5.818  1.1718  1.6833  0.7419
17047SOL    HW252593   6.967   7.613   5.867  1.0690  0.8137  0.8275
17048SOL     OW52594   9.105   5.982   2.414  0.3527 -0.0483 -0.1277
17048SOL    HW152595   9.120   6.014   2.503  1.5088  1.0105 -0.6746
17048SOL    HW252596   9.028   5.926   2.421 -0.4840  1.2246  1.2605
17049SOL     OW52597   6.233   4.219   5.879 -0.1007 -0.2225 -0.2808
17049SOL    HW152598   6.293   4.196   5.949 -0.7509 -1.2449 -0.0443
17049SOL    HW252599   6.271   4.180   5.800 -0.9136 -1.7074  0.0272
17050SOL     OW52600   2.015   1.681   2.067  0.0014 -0.1936 -0.5748
17050SOL    HW152601   1.927   1.718   2.067 -0.1940 -0.6509 -0.3461
17050SOL    HW252602   2.072   1.753   2.095 -0.4186 -0.1715  0.2475
17051SOL     OW52603   6.248   6.014   3.128  0.2718 -0.1953 -0.4366
17051SOL    HW152604   6.342   6.006   3.145 -0.0114  0.8906  2.1349
17051SOL    HW252605   6.232   6.108   3.119 -0.7269 -0.2385  0.5442
17052SOL     OW52606   2.506   1.700   3.603  0.3868 -0.2404  0.0429
17052SOL    HW152607   2.469   1.693   3.691  0.4510 -0.6450  0.0384
17052SOL    HW252608   2.599   1.683   3.614  0.6725  1.1947  0.1197
17053SOL     OW52609   2.121   5.520   2.810  0.0521 -0.1179  0.0330
17053SOL    HW152610   2.034   5.552   2.785 -0.3467 -0.1970  1.2371
17053SOL    HW252611   2.115   5.507   2.904  1.1229 -0.9432  0.0007
17054SOL     OW52612   8.758   5.367   3.572  0.0078 -0.0802  0.3868
17054SOL    HW152613   8.706   5.287   3.580 -0.9161  0.5050  0.3650
17054SOL    HW252614   8.695   5.435   3.549  1.1908  0.0668 -3.1176
17055SOL     OW52615   4.365   0.340   7.369 -0.0030  0.1556 -0.6898
17055SOL    HW152616   4.448   0.294   7.356 -0.0208  0.1062 -0.6295
17055SOL    HW252617   4.391   0.429   7.393  0.0502 -0.1633  0.4744
17056SOL     OW52618   1.607   6.313   7.931  0.6695  0.5120 -0.3173
17056SOL    HW152619   1.634   6.307   8.023 -1.7177 -0.4653  0.3895
17056SOL    HW252620   1.540   6.246   7.921 -1.5412  2.7976 -1.8719
17057SOL     OW52621   2.706   8.926   0.164  0.0420 -0.3818  0.1493
17057SOL    HW152622   2.730   8.880   0.244  0.2564  0.3706  0.5264
17057SOL    HW252623   2.623   8.888   0.138  1.2376 -2.5479 -0.7896
17058SOL     OW52624   9.233   7.945   1.891  0.2336 -0.0911  0.2779
17058SOL    HW152625   9.180   7.865   1.889  0.2782 -0.1379  0.7500
17058SOL    HW252626   9.269   7.953   1.802 -0.8366  0.1277 -0.1499
17059SOL     OW52627   3.139   6.578   2.185 -0.5019 -0.5748  0.0221
17059SOL    HW152628   3.082   6.568   2.261 -2.4708  1.1430 -1.0877
17059SOL    HW252629   3.078   6.585   2.111  1.1571  1.1900 -1.2780
17060SOL     OW52630   6.410   4.240   8.547 -0.2840  0.3140 -0.1539
17060SOL    HW152631   6.418   4.335   8.535  1.3652  0.1405 -0.6206
17060SOL    HW252632   6.375   4.209   8.463  2.6269  0.1442 -1.4127
17061SOL     OW52633   6.916   4.790   7.735  0.3883 -0.2261 -0.1818
17061SOL    HW152634   6.868   4.726   7.684 -1.6118  1.3670 -0.4133
17061SOL    HW252635   6.960   4.845   7.669  0.8137 -0.3868 -0.0380
17062SOL     OW52636   3.579   7.008   9.118 -0.5497 -0.6423 -0.3091
17062SOL    HW152637   3.606   7.040   9.032 -1.6466 -0.0611 -0.4461
17062SOL    HW252638   3.626   6.925   9.128  0.0279 -0.4435 -1.2157
17063SOL     OW52639   1.812   0.364   6.185 -0.4124 -0.4213 -0.2647
17063SOL    HW152640   1.880   0.400   6.242  0.4095 -0.0766 -1.4402
17063SOL    HW252641   1.813   0.270   6.203 -0.3314 -0.2854  0.4630
17064SOL     OW52642   5.790   3.946   6.603  0.2432  0.0928 -0.2667
17064SOL    HW152643   5.851   3.937   6.676 -0.2735 -0.2578  0.1328
17064SOL    HW252644   5.778   4.041   6.592 -0.0512  0.1428  0.4299
17065SOL     OW52645   1.715   3.509   2.571 -0.2385  0.2037  0.4137
17065SOL    HW152646   1.638   3.494   2.626  0.8217  0.4117  2.0576
17065SOL    HW252647   1.698   3.460   2.491 -2.4012  0.8830  0.3882
17066SOL     OW52648   1.304   0.774   4.220 -0.7062 -0.0781 -0.2710
17066SOL    HW152649   1.257   0.701   4.261  0.3131 -0.1995  0.7215
17066SOL    HW252650   1.236   0.839   4.203 -1.3291 -0.4479  0.6977
17067SOL     OW52651   3.231   5.446   7.669 -0.6041  0.3413 -0.3436
17067SOL    HW152652   3.323   5.430   7.690 -0.6357 -1.0988 -1.1361
17067SOL    HW252653   3.221   5.541   7.675  0.4345  0.3892  1.6597
17068SOL     OW52654   8.638   0.213   8.302  0.0119 -0.3176  0.2343
17068SOL    HW152655   8.677   0.132   8.269  0.5929  0.3700 -0.8268
17068SOL    HW252656   8.684   0.230   8.385 -0.2650 -1.1750  0.5682
17069SOL     OW52657   8.626   4.466   4.773 -0.2784 -0.3049  0.4242
17069SOL    HW152658   8.667   4.547   4.742  0.4319 -0.8383 -0.0702
17069SOL    HW252659   8.618   4.478   4.868 -1.3745  0.8544  0.2009
17070SOL     OW52660   8.911   4.998   1.166 -0.1451  0.3467  0.3680
17070SOL    HW152661   8.938   4.912   1.197  2.8742  1.6332  1.6534
17070SOL    HW252662   8.816   4.991   1.155  0.1022 -3.4776 -0.8425
17071SOL     OW52663   0.777   5.799   4.340  0.0555 -0.1322  0.4078
17071SOL    HW152664   0.689   5.829   4.316  0.0824 -0.5269 -0.2156
17071SOL    HW252665   0.820   5.782   4.256  0.6684 -0.1130  0.7128
17072SOL     OW52666   6.717   4.091   8.436  0.0367  0.1773  0.0057
17072SOL    HW152667   6.650   4.122   8.375 -1.6501  0.9661  2.1290
17072SOL    HW252668   6.779   4.164   8.444  0.2109  0.1039 -0.6772
17073SOL     OW52669   6.998   2.280   1.327  0.4184  0.7147 -0.1177
17073SOL    HW152670   7.040   2.194   1.326 -3.2304 -1.4273 -3.4876
17073SOL    HW252671   7.039   2.327   1.254  1.4122  1.3068  0.8028
17074SOL     OW52672   2.097   5.090   6.740  0.5165 -0.6199  0.6942
17074SOL    HW152673   2.159   5.158   6.769 -1.8767  2.5863 -1.1050
17074SOL    HW252674   2.039   5.077   6.815  2.3540 -2.6181  1.8912
17075SOL     OW52675   7.656   8.166   5.109  0.2482  0.0196  0.0241
17075SOL    HW152676   7.727   8.175   5.172 -0.0038  2.3306  0.0470
17075SOL    HW252677   7.576   8.176   5.160 -0.0534 -0.5793 -0.3131
17076SOL     OW52678   0.321   6.614   4.572 -0.3695 -0.3397  0.0056
17076SOL    HW152679   0.288   6.559   4.500 -0.2328 -0.1224 -0.2263
17076SOL    HW252680   0.266   6.591   4.647 -0.0722 -1.0619  0.0082
17077SOL     OW52681   2.028   3.045   5.488 -0.1671  0.8432 -0.7947
17077SOL    HW152682   2.051   2.986   5.560  0.5277  1.9191 -0.1177
17077SOL    HW252683   1.934   3.058   5.498 -0.1341  0.7207 -0.2800
17078SOL     OW52684   9.013   1.872   5.459 -0.3598 -0.6272 -0.3741
17078SOL    HW152685   9.057   1.934   5.401  1.3956 -0.9446  0.5589
17078SOL    HW252686   8.934   1.846   5.410 -0.1372  0.8304 -1.6077
17079SOL     OW52687   7.476   6.212   4.075  0.4777  0.3709 -0.5982
17079SOL    HW152688   7.549   6.239   4.019  2.6054  0.8391  2.1740
17079SOL    HW252689   7.421   6.290   4.081  0.1887  0.3085 -1.9531
17080SOL     OW52690   6.921   2.035   4.206 -0.4925  0.1787  0.3564
17080SOL    HW152691   6.994   2.095   4.220  1.0630 -1.8590  1.6385
17080SOL    HW252692   6.870   2.039   4.287  0.0504 -0.7647  0.7527
17081SOL     OW52693   2.379   6.754   7.836 -0.4269 -0.6290  0.4646
17081SOL    HW152694   2.313   6.796   7.781 -1.1267  0.8241  2.3472
17081SOL    HW252695   2.438   6.712   7.773 -2.6253 -1.2818 -1.3063
17082SOL     OW52696   6.981   7.183   7.980  0.1432  0.3015  0.2028
17082SOL    HW152697   6.967   7.276   7.960  2.0539  0.7403  0.6721
17082SOL    HW252698   7.076   7.171   7.971 -0.2454 -2.1272 -1.9113
17083SOL     OW52699   6.091   2.160   1.103 -0.5695 -0.3594  0.0733
17083SOL    HW152700   6.006   2.169   1.147 -0.7624  3.2471 -0.6959
17083SOL    HW252701   6.153   2.200   1.164  0.3456 -1.4414 -0.1118
17084SOL     OW52702   1.228   8.586   8.918  0.2498 -0.2800 -0.0937
17084SOL    HW152703   1.187   8.645   8.982  0.6680  0.3985 -0.4347
17084SOL    HW252704   1.268   8.645   8.853  0.5680 -0.9433 -0.5141
17085SOL     OW52705   0.132   5.570   4.281  0.0306 -0.1484  0.1819
17085SOL    HW152706   0.067   5.504   4.257 -0.6896  0.5598  0.1670
17085SOL    HW252707   0.208   5.519   4.309 -0.2975 -0.9872 -0.4056
17086SOL     OW52708   8.654   9.084   8.195 -0.1101  0.4671  0.3605
17086SOL    HW152709   8.722   9.049   8.253 -1.0296  1.6930  2.2926
17086SOL    HW252710   8.572   9.055   8.233 -0.7425  0.5545 -0.8744
17087SOL     OW52711   5.236   8.907   4.912 -0.0201 -0.5882 -0.2002
17087SOL    HW152712   5.203   8.821   4.885 -0.1353 -0.4284 -0.5726
17087SOL    HW252713   5.164   8.967   4.892 -0.4098 -0.5623  1.1362
17088SOL     OW52714   1.690   4.376   0.061 -0.3206 -0.2493 -0.1424
17088SOL    HW152715   1.688   4.470   0.080  1.4646 -0.3591  0.8130
17088SOL    HW252716   1.623   4.340   0.119 -3.0611  0.6454 -2.5041
17089SOL     OW52717   5.741   1.585   5.674  0.0340 -0.4668 -0.3732
17089SOL    HW152718   5.702   1.637   5.603  0.9935  0.2438 -0.3907
17089SOL    HW252719   5.714   1.495   5.654 -0.4886 -0.1595 -1.1179
17090SOL     OW52720   5.305   7.731   8.088 -0.1141  0.6825 -0.4347
17090SOL    HW152721   5.239   7.779   8.138 -0.7237  1.5396 -1.9704
17090SOL    HW252722   5.256   7.694   8.015  0.4906 -1.7122  0.3088
17091SOL     OW52723   2.966   6.539   8.191  0.2245 -0.4414 -0.7371
17091SOL    HW152724   3.032   6.526   8.259  0.9235  1.2235 -1.0246
17091SOL    HW252725   2.929   6.452   8.175  0.4684 -0.9794  1.3142
17092SOL     OW52726   0.988   4.148   2.937 -0.0073  0.2109  0.3013
17092SOL    HW152727   1.024   4.136   2.850  0.0623  0.0686  0.3490
17092SOL    HW252728   0.903   4.190   2.923  0.7184  1.7322  0.2534
17093SOL     OW52729   6.481   6.340   1.469 -0.4753  0.1514  0.9093
17093SOL    HW152730   6.524   6.306   1.390 -2.8556 -2.9590  0.7243
17093SOL    HW252731   6.524   6.294   1.540 -1.3931 -0.6685  0.9620
17094SOL     OW52732   2.976   8.136   8.806 -0.1986  0.2223 -0.2412
17094SOL    HW152733   2.992   8.228   8.827 -1.2246  0.4792 -0.5439
17094SOL    HW252734   3.022   8.122   8.724  0.7783  0.1872  0.2896
17095SOL     OW52735   5.752   9.245   8.991  0.1166 -0.1184 -0.3759
17095SOL    HW152736   5.664   9.269   9.018 -0.0476  0.9344 -1.7579
17095SOL    HW252737   5.793   9.211   9.071 -0.6642  1.8867  0.9724
17096SOL     OW52738   5.291   3.174   0.511  0.3090 -0.0550  0.4645
17096SOL    HW152739   5.368   3.122   0.487  0.1622  0.8773 -2.4725
17096SOL    HW252740   5.217   3.126   0.473 -0.4974 -0.4663  2.4671
17097SOL     OW52741   0.834   0.020   3.903 -0.2121  0.3173 -0.5925
17097SOL    HW152742   0.870   0.068   3.828 -0.8276 -0.7187 -1.5877
17097SOL    HW252743   0.762   0.075   3.934 -0.3449  0.4659 -1.1562
17098SOL     OW52744   1.216   4.985   5.614  0.1817 -0.0686 -0.0013
17098SOL    HW152745   1.199   5.076   5.589 -0.9073 -0.3686 -0.4130
17098SOL    HW252746   1.138   4.938   5.585 -0.4714 -0.7253  2.5908
17099SOL     OW52747   5.645   7.133   0.139 -0.5919 -0.6461  0.2914
17099SOL    HW152748   5.708   7.198   0.170  0.3108 -0.6733 -1.4146
17099SOL    HW252749   5.595   7.110   0.218  0.9848 -0.0425  1.5338
17100SOL     OW52750   5.875   3.856   4.624 -1.1363  0.4442 -0.7687
17100SOL    HW152751   5.841   3.937   4.661 -1.4632 -0.2871  0.5990
17100SOL    HW252752   5.847   3.788   4.685  0.4268 -0.5221 -1.0750
17101SOL     OW52753   1.529   8.054   2.379  0.2113  0.2422 -0.3291
17101SOL    HW152754   1.532   8.117   2.451  2.1494 -0.4258  0.2261
17101SOL    HW252755   1.480   7.979   2.414 -0.7844  0.7876 -0.4954
17102SOL     OW52756   7.862   5.645   4.276  0.2639 -0.2965  0.3269
17102SOL    HW152757   7.804   5.669   4.204  1.1271  1.2788  0.1148
17102SOL    HW252758   7.863   5.549   4.275  0.9119 -0.3314 -2.3234
17103SOL     OW52759   5.897   4.566   0.125 -0.4771 -0.5819  0.1650
17103SOL    HW152760   5.933   4.493   0.175  1.2545 -1.2663 -1.8925
17103SOL    HW252761   5.803   4.562   0.140 -0.2930 -2.4653  1.1065
17104SOL     OW52762   0.271   8.507   5.105  0.0113 -0.4212  0.6252
17104SOL    HW152763   0.247   8.556   5.184 -0.6934 -1.0439  0.8067
17104SOL    HW252764   0.234   8.559   5.033 -0.6693 -0.6334  0.8119
17105SOL     OW52765   6.325   1.855   4.361  0.7183 -0.0658  0.6726
17105SOL    HW152766   6.315   1.940   4.403  3.3219  0.5362  0.2618
17105SOL    HW252767   6.420   1.843   4.352  0.3888 -1.9390 -1.4227
17106SOL     OW52768   2.561   7.288   4.622 -0.0106  0.5892  0.1079
17106SOL    HW152769   2.623   7.361   4.620  3.0565 -1.7933 -2.8177
17106SOL    HW252770   2.517   7.291   4.537 -1.1671 -0.0020  0.6576
17107SOL     OW52771   9.105   2.728   7.074  0.3147  0.0668 -0.1901
17107SOL    HW152772   9.176   2.790   7.059  1.3698 -0.7442  1.2016
17107SOL    HW252773   9.118   2.659   7.009  1.9832 -1.0252  1.2115
17108SOL     OW52774   1.090   5.049   0.630  0.0051 -0.1995 -0.1724
17108SOL    HW152775   1.109   5.091   0.546  1.9261 -1.4822 -0.4336
17108SOL    HW252776   1.141   5.099   0.694 -1.2747  0.6312  0.2317
17109SOL     OW52777   9.193   6.769   0.301 -0.0947  0.1229  0.2715
17109SOL    HW152778   9.143   6.755   0.220 -2.2449 -0.0480  1.5508
17109SOL    HW252779   9.215   6.862   0.299 -1.3342  0.4322  0.1022
17110SOL     OW52780   6.161   7.764   3.299  0.4193 -0.3811 -0.3754
17110SOL    HW152781   6.115   7.682   3.314 -0.0730  0.0004  0.2437
17110SOL    HW252782   6.122   7.826   3.362  2.0635 -0.1598  0.4832
17111SOL     OW52783   1.253   5.031   1.441  0.2778 -1.0429 -0.3271
17111SOL    HW152784   1.166   5.022   1.481  1.1707 -0.6580  1.8112
17111SOL    HW252785   1.242   4.994   1.353 -2.2839 -0.0948 -0.4891
17112SOL     OW52786   8.819   3.455   3.422 -0.1172 -0.2253 -0.3322
17112SOL    HW152787   8.756   3.504   3.369 -0.3893 -0.9724 -0.7201
17112SOL    HW252788   8.893   3.442   3.363  0.4968  0.7996  0.1755
17113SOL     OW52789   7.239   5.446   7.969 -0.4873 -0.1784 -0.0829
17113SOL    HW152790   7.307   5.422   7.907 -0.5049 -2.1664  0.5775
17113SOL    HW252791   7.157   5.438   7.920 -0.4468 -1.0073 -0.0356
17114SOL     OW52792   7.123   3.849   8.092 -0.3023  0.0772  0.2569
17114SOL    HW152793   7.060   3.864   8.021  1.2485  1.3819 -0.9200
17114SOL    HW252794   7.184   3.784   8.055  1.3654  1.8477 -0.2356
17115SOL     OW52795   7.559   0.164   1.657  0.2163  0.1238 -0.4612
17115SOL    HW152796   7.530   0.188   1.568  1.2660  0.3961 -0.7453
17115SOL    HW252797   7.605   0.242   1.689 -1.6111  0.6716  1.0163
17116SOL     OW52798   2.247   2.454   6.356 -0.0301 -0.8298  0.2616
17116SOL    HW152799   2.294   2.379   6.321  1.2655  0.6275 -1.2704
17116SOL    HW252800   2.172   2.465   6.298 -0.4948 -1.1882  0.7747
17117SOL     OW52801   1.257   0.702   4.829 -0.1111 -0.5632  0.0984
17117SOL    HW152802   1.317   0.650   4.882  0.7251 -0.7112 -0.9505
17117SOL    HW252803   1.310   0.775   4.798 -1.1504  0.6994  1.1760
17118SOL     OW52804   6.023   4.297   0.665 -0.1693 -0.3869  0.0921
17118SOL    HW152805   6.050   4.246   0.588  0.3167  1.3974 -0.9848
17118SOL    HW252806   6.091   4.281   0.729 -0.9316 -2.4434  0.4394
17119SOL     OW52807   5.020   7.575   2.897  0.5841  0.1770  0.4171
17119SOL    HW152808   5.009   7.654   2.950  2.0759  0.0383  0.9737
17119SOL    HW252809   5.113   7.556   2.902  0.3729 -1.1622 -0.3874
17120SOL     OW52810   2.323   0.638   7.950  0.0779 -0.5445  0.1581
17120SOL    HW152811   2.244   0.682   7.981  0.0558 -1.5309  1.6043
17120SOL    HW252812   2.390   0.706   7.948 -0.4438 -0.0180  0.3537
17121SOL     OW52813   3.336   6.936   4.763  0.2638  0.1268 -0.0715
17121SOL    HW152814   3.382   6.894   4.836 -0.1386 -0.9828 -0.4341
17121SOL    HW252815   3.245   6.907   4.772  0.3844 -0.8345 -1.5500
17122SOL     OW52816   1.868   2.611   6.903 -0.2253  0.3636  0.2790
17122SOL    HW152817   1.800   2.656   6.853  0.4512  0.0721 -0.9457
17122SOL    HW252818   1.950   2.638   6.861  0.2910 -0.7782  0.5209
17123SOL     OW52819   9.244   3.616   3.155  0.0059 -0.0375 -0.0144
17123SOL    HW152820   9.334   3.595   3.131  0.2868  1.3571 -0.3228
17123SOL    HW252821   9.191   3.551   3.110  0.8854 -1.2866  0.7152
17124SOL     OW52822   2.521   6.890   5.682 -0.7799  0.2423  0.0043
17124SOL    HW152823   2.522   6.796   5.699 -1.6988  0.2383  0.0398
17124SOL    HW252824   2.600   6.905   5.629 -0.3395 -0.4551  0.4432
17125SOL     OW52825   1.484   8.695   3.094 -0.0932 -0.3761 -0.0305
17125SOL    HW152826   1.550   8.704   3.026  0.2690 -0.7307  0.2663
17125SOL    HW252827   1.408   8.743   3.061  0.3515  0.1382 -0.3224
17126SOL     OW52828   5.064   6.841   6.392  0.3782  0.4036 -0.1849
17126SOL    HW152829   5.089   6.766   6.338  0.8690  0.5993 -0.2352
17126SOL    HW252830   5.145   6.891   6.402  0.8183 -0.6251  2.3395
17127SOL     OW52831   5.989   3.944   5.469  0.0011 -0.3157 -0.2988
17127SOL    HW152832   6.047   3.912   5.400 -1.8703  0.8055 -2.4853
17127SOL    HW252833   5.968   3.866   5.520  0.4062 -1.4359 -1.7850
17128SOL     OW52834   8.088   2.350   7.770 -0.3403 -0.4789  0.9401
17128SOL    HW152835   8.164   2.355   7.713 -2.3895 -0.6978 -1.9923
17128SOL    HW252836   8.097   2.266   7.815  1.6367 -0.0102  1.5090
17129SOL     OW52837   6.291   5.977   8.738  0.0217  0.1943  0.2959
17129SOL    HW152838   6.220   5.936   8.788  0.1284 -0.0134  0.2769
17129SOL    HW252839   6.254   6.061   8.710 -0.8008 -0.5790 -1.0823
17130SOL     OW52840   9.224   8.087   7.012 -0.2447 -0.3560 -0.5542
17130SOL    HW152841   9.245   8.009   6.960  0.1363 -0.4542 -0.2548
17130SOL    HW252842   9.160   8.057   7.076  0.6095 -0.6491  0.1763
17131SOL     OW52843   2.698   0.473   0.477 -0.5571  0.2549  0.6645
17131SOL    HW152844   2.749   0.555   0.478 -0.6565  0.3611 -0.9089
17131SOL    HW252845   2.734   0.422   0.549 -0.0253  1.4139  1.2435
17132SOL     OW52846   7.248   9.189   8.816 -0.1784  0.5006  0.3003
17132SOL    HW152847   7.200   9.124   8.764 -1.8931  1.6387  0.3977
17132SOL    HW252848   7.264   9.261   8.755  0.7409  0.4744  0.4914
17133SOL     OW52849   9.181   4.706   5.253 -0.3069 -0.5408 -0.3266
17133SOL    HW152850   9.242   4.760   5.203  0.6335  0.0561  1.4013
17133SOL    HW252851   9.150   4.763   5.323  1.5557 -2.4748  2.2323
17134SOL     OW52852   6.486   8.115   1.774  0.0434  0.4400 -0.3024
17134SOL    HW152853   6.428   8.186   1.800 -1.4062 -0.9585  0.5014
17134SOL    HW252854   6.428   8.054   1.727  0.7911 -1.0798  0.6603
17135SOL     OW52855   4.428   2.937   7.752 -0.0000  0.6497  0.2349
17135SOL    HW152856   4.373   3.010   7.780  0.3848  0.5334  1.3385
17135SOL    HW252857   4.493   2.978   7.694 -1.0290  0.8310 -0.8273
17136SOL     OW52858   4.218   3.127   6.703  0.0730 -0.1399  0.1248
17136SOL    HW152859   4.156   3.096   6.637 -0.9602  1.5651  0.2256
17136SOL    HW252860   4.202   3.221   6.708  1.8311  0.1522  1.0674
17137SOL     OW52861   5.110   4.681   4.757 -0.2035 -0.5342 -0.0738
17137SOL    HW152862   5.020   4.690   4.723 -0.2402 -1.2704 -0.1811
17137SOL    HW252863   5.138   4.771   4.773 -0.9439 -0.2925 -0.0898
17138SOL     OW52864   7.007   2.427   4.129  0.7147  0.8345  0.5835
17138SOL    HW152865   7.091   2.381   4.122  0.5769  0.5996  0.4342
17138SOL    HW252866   7.019   2.506   4.077  0.8827  0.8589  0.6586
17139SOL     OW52867   4.817   5.718   6.877  0.0546  0.2630  1.0800
17139SOL    HW152868   4.772   5.793   6.839 -1.8782  0.1072  2.8748
17139SOL    HW252869   4.909   5.734   6.858 -0.6355  0.0984 -3.6473
17140SOL     OW52870   7.720   6.269   3.956 -0.2803 -0.1474  0.2165
17140SOL    HW152871   7.802   6.311   3.931  0.3536 -0.9720  0.8237
17140SOL    HW252872   7.729   6.179   3.925 -0.6611 -0.4257  0.8928
17141SOL     OW52873   1.863   3.152   3.081  0.1425  0.1716 -0.2462
17141SOL    HW152874   1.802   3.080   3.062  1.6328 -0.7124 -1.9041
17141SOL    HW252875   1.823   3.229   3.042  0.1622 -0.4352 -1.4878
17142SOL     OW52876   3.541   1.831   3.008  0.4109 -0.1802 -0.1386
17142SOL    HW152877   3.575   1.834   2.919  2.0275 -1.0907  0.4154
17142SOL    HW252878   3.606   1.876   3.061 -0.7614  0.7714  0.5479
17143SOL     OW52879   3.617   4.999   8.237  0.0656  0.1837  0.3472
17143SOL    HW152880   3.523   5.015   8.240  0.1294  0.5519  0.3573
17143SOL    HW252881   3.648   5.055   8.165  0.2519 -0.0586  0.2381
17144SOL     OW52882   5.092   0.103   4.683  0.4466  0.4298  0.0526
17144SOL    HW152883   5.095   0.091   4.588  0.2775 -2.2014  0.2954
17144SOL    HW252884   5.028   0.038   4.713  2.3263 -0.5570  2.1795
17145SOL     OW52885   3.707   8.209   8.037 -0.3306  0.4515 -0.2081
17145SOL    HW152886   3.693   8.114   8.036  2.1568  0.0181 -1.5497
17145SOL    HW252887   3.627   8.246   8.000 -1.8515 -0.9815  1.4564
17146SOL     OW52888   2.807   6.329   7.545 -0.2876 -0.6833  0.5209
17146SOL    HW152889   2.773   6.411   7.510  2.3132 -0.5722 -2.1216
17146SOL    HW252890   2.762   6.261   7.496  0.0529 -0.7031  0.2353
17147SOL     OW52891   2.420   0.874   0.783  0.6929 -0.1663  0.4262
17147SOL    HW152892   2.508   0.851   0.752  0.4450  0.2524 -0.6564
17147SOL    HW252893   2.384   0.930   0.713 -0.4077 -0.2783  0.8794
17148SOL     OW52894   5.133   3.055   6.491  0.1234 -0.0783  0.4249
17148SOL    HW152895   5.070   2.998   6.535 -1.1053  1.6342  1.0053
17148SOL    HW252896   5.090   3.080   6.410  0.6072  0.0748  0.2145
17149SOL     OW52897   8.743   1.659   7.304  0.7763  0.0673 -0.4840
17149SOL    HW152898   8.725   1.644   7.397  1.6316  1.3163 -0.0986
17149SOL    HW252899   8.834   1.633   7.292  0.5271 -0.5657 -1.1046
17150SOL     OW52900   3.373   6.717   5.489  0.7006  0.5853  0.5911
17150SOL    HW152901   3.308   6.650   5.509  1.2510  0.1603  0.9819
17150SOL    HW252902   3.322   6.798   5.482  0.0380  0.1463  0.1743
17151SOL     OW52903   8.243   4.321   6.777  0.1348  0.0214 -0.2086
17151SOL    HW152904   8.161   4.336   6.731 -0.1624 -1.2091 -0.1306
17151SOL    HW252905   8.273   4.408   6.804 -0.6960  0.5605 -0.9902
17152SOL     OW52906   3.604   6.869   0.970 -0.3420  0.1819  0.0728
17152SOL    HW152907   3.514   6.875   1.002 -0.0480  1.4875  0.7585
17152SOL    HW252908   3.626   6.959   0.943  1.1301  0.1399  1.0138
17153SOL     OW52909   8.718   5.029   7.708 -0.0488  0.3986 -0.0543
17153SOL    HW152910   8.752   5.080   7.782 -0.7185  1.2222 -0.2960
17153SOL    HW252911   8.638   4.989   7.742  0.0744  0.1130 -0.0965
17154SOL     OW52912   1.984   7.618   8.488  0.0282  0.0916 -0.9424
17154SOL    HW152913   2.073   7.638   8.460  0.0223  0.1844 -0.8942
17154SOL    HW252914   1.959   7.542   8.435  0.8238 -1.1194  0.3537
17155SOL     OW52915   6.532   6.702   6.278 -0.0950  0.4883  0.7271
17155SOL    HW152916   6.497   6.736   6.196 -1.0175 -0.5368  0.6688
17155SOL    HW252917   6.468   6.726   6.344  1.2741  2.4695  1.4342
17156SOL     OW52918   3.235   5.398   5.942 -0.1627  0.0138 -0.1093
17156SOL    HW152919   3.256   5.307   5.966 -2.0049 -0.2398  0.7117
17156SOL    HW252920   3.228   5.397   5.847 -1.0541 -0.9340 -0.0519
17157SOL     OW52921   8.702   0.834   4.248  0.3684 -0.4066  0.0673
17157SOL    HW152922   8.718   0.759   4.191  1.1708  0.6024 -1.0824
17157SOL    HW252923   8.607   0.842   4.252  0.2115 -2.3079  1.3567
17158SOL     OW52924   2.931   2.956   7.686 -0.6721  0.5509 -0.1209
17158SOL    HW152925   3.020   2.979   7.712 -0.5514 -0.6106  0.5675
17158SOL    HW252926   2.943   2.905   7.605 -0.7314  0.6726 -0.2058
17159SOL     OW52927   9.100   5.146   4.602  0.3952  0.2695 -0.7056
17159SOL    HW152928   9.058   5.119   4.684  0.0060 -1.2097 -1.3512
17159SOL    HW252929   9.189   5.112   4.608  0.1917 -0.3570 -1.1253
17160SOL     OW52930   7.983   3.347   6.088  0.0951 -0.1403 -0.5458
17160SOL    HW152931   7.951   3.402   6.160  0.7705 -0.0254 -0.3276
17160SOL    HW252932   7.917   3.278   6.079 -0.1424  0.0148 -0.0115
17161SOL     OW52933   9.028   3.800   4.000 -0.1142  0.0067 -0.3539
17161SOL    HW152934   9.104   3.853   3.974  1.4008 -2.2796 -0.8206
17161SOL    HW252935   8.976   3.793   3.920  0.9626 -1.2102 -0.9835
17162SOL     OW52936   1.777   1.261   6.974  0.4343  0.3327 -0.1214
17162SOL    HW152937   1.728   1.202   6.916 -1.6255  1.6344  0.2107
17162SOL    HW252938   1.748   1.238   7.062 -0.3510  1.7481  0.0168
17163SOL     OW52939   0.203   2.666   3.040  0.4163  0.1868 -0.1561
17163SOL    HW152940   0.272   2.606   3.067 -0.1687 -1.0002 -1.2119
17163SOL    HW252941   0.235   2.703   2.957 -0.6536 -1.2057 -1.2318
17164SOL     OW52942   1.389   1.463   1.731 -1.0383 -0.3590  0.0090
17164SOL    HW152943   1.424   1.383   1.769 -2.3138 -0.4119  1.1409
17164SOL    HW252944   1.438   1.474   1.649 -0.5629 -2.0661  0.0223
17165SOL     OW52945   5.144   0.194   1.935 -0.5956 -0.1890  0.0279
17165SOL    HW152946   5.093   0.256   1.881  0.9913  0.3049 -0.9848
17165SOL    HW252947   5.151   0.237   2.020 -0.4748  0.5046 -0.3238
17166SOL     OW52948   9.253   2.920   0.311 -0.0871 -0.1212 -0.1418
17166SOL    HW152949   9.312   2.974   0.363  0.0882 -1.6072  1.2786
17166SOL    HW252950   9.304   2.894   0.234  0.7782 -0.5804  0.5805
17167SOL     OW52951   8.090   7.281   5.969  0.2608 -0.0535  0.2193
17167SOL    HW152952   8.005   7.238   5.964  0.0498  0.4268 -0.4711
17167SOL    HW252953   8.070   7.375   5.966  0.8567  0.0512 -0.9347
17168SOL     OW52954   3.362   6.574   7.315 -0.1018 -0.5436  0.3640
17168SOL    HW152955   3.422   6.501   7.302  0.8611  0.3886 -0.6194
17168SOL    HW252956   3.413   6.640   7.363  0.1541  0.7929 -1.6168
17169SOL     OW52957   0.575   0.696   6.402 -0.4804 -0.2200  0.3840
17169SOL    HW152958   0.594   0.628   6.338 -1.5381  0.2286 -0.4383
17169SOL    HW252959   0.484   0.679   6.429 -0.8014  0.9178  0.0826
17170SOL     OW52960   7.270   3.035   4.324  0.2424  0.3079  0.5407
17170SOL    HW152961   7.231   3.003   4.406  0.2744  0.0667  0.4623
17170SOL    HW252962   7.291   2.955   4.275  1.7355  0.3887  0.9913
17171SOL     OW52963   0.088   5.528   4.678  0.4837  0.2615  0.2167
17171SOL    HW152964   0.071   5.523   4.772 -0.1725 -3.3251  0.0383
17171SOL    HW252965   0.001   5.538   4.638  0.4609 -0.8403 -0.0533
17172SOL     OW52966   4.102   7.034   3.657  0.0271  0.4166  0.3792
17172SOL    HW152967   4.109   7.127   3.676 -0.9768  0.9835 -1.7293
17172SOL    HW252968   4.008   7.017   3.653  0.1929 -0.7652  1.0325
17173SOL     OW52969   3.176   5.768   9.269 -0.1217  0.4639 -0.3086
17173SOL    HW152970   3.175   5.855   9.230 -0.9707  0.6362  0.0670
17173SOL    HW252971   3.100   5.723   9.231  0.2431 -0.0761 -0.4148
17174SOL     OW52972   7.113   8.446   7.048  0.2429  0.3699 -0.4609
17174SOL    HW152973   7.077   8.400   7.124 -0.0515  0.3131 -0.6321
17174SOL    HW252974   7.176   8.384   7.010 -0.8579 -0.3012 -1.2556
17175SOL     OW52975   2.216   7.450   7.493 -0.0301 -0.1945 -0.4461
17175SOL    HW152976   2.183   7.496   7.416 -1.9016  0.6172  0.7895
17175SOL    HW252977   2.166   7.369   7.496 -1.2459  0.5680  0.8572
17176SOL     OW52978   6.132   4.208   6.574  0.1095  0.2964  0.0172
17176SOL    HW152979   6.135   4.191   6.668  2.4462  1.6057  0.2578
17176SOL    HW252980   6.171   4.295   6.564 -1.8605  1.0680 -2.0290
17177SOL     OW52981   4.439   9.039   2.596  0.6236 -0.1922 -0.0113
17177SOL    HW152982   4.378   8.966   2.588 -0.1896  0.5399 -0.7097
17177SOL    HW252983   4.483   9.042   2.511  2.1379 -1.1038  0.6813
17178SOL     OW52984   1.141   8.772   1.184 -0.0214 -0.1823 -0.0197
17178SOL    HW152985   1.201   8.845   1.198 -1.0832  0.6005  0.6543
17178SOL    HW252986   1.167   8.706   1.249  0.5869 -0.1875 -0.2588
17179SOL     OW52987   4.344   2.867   3.161  0.3082  0.7607 -0.3093
17179SOL    HW152988   4.275   2.826   3.109  0.5901 -1.8056  1.1435
17179SOL    HW252989   4.313   2.956   3.178 -2.1151  0.0449 -0.6316
17180SOL     OW52990   3.774   2.541   3.499 -0.5951  0.2823  0.1761
17180SOL    HW152991   3.828   2.557   3.422  0.1937  0.8404  0.8218
17180SOL    HW252992   3.772   2.446   3.507 -0.4126  0.2298 -0.3465
17181SOL     OW52993   0.365   3.552   0.706  0.2262 -0.1797 -0.2662
17181SOL    HW152994   0.364   3.595   0.792  0.2455 -1.1919  0.2549
17181SOL    HW252995   0.454   3.518   0.697 -0.0590 -0.9776 -0.2131
17182SOL     OW52996   8.416   7.060   1.175  0.3094 -0.4901  0.5474
17182SOL    HW152997   8.384   6.970   1.166 -1.6382 -0.0272  2.1627
17182SOL    HW252998   8.452   7.064   1.263  0.4543  0.3028  0.4565
17183SOL     OW52999   7.136   5.986   3.211  0.2222 -0.3131  0.1751
17183SOL    HW153000   7.162   6.005   3.301  0.1729 -0.4610  0.2212
17183SOL    HW253001   7.048   6.021   3.203 -0.1859 -1.2187  0.5034
17184SOL     OW53002   1.143   0.651   8.791 -0.0827 -0.0739 -0.5012
17184SOL    HW153003   1.194   0.615   8.864 -1.1034 -1.2462 -0.3478
17184SOL    HW253004   1.161   0.593   8.717 -2.0846 -1.2631 -0.1328
17185SOL     OW53005   0.733   2.737   5.465  0.0548  0.2225 -1.1824
17185SOL    HW153006   0.648   2.695   5.478 -0.2046  0.8469 -0.8211
17185SOL    HW253007   0.768   2.695   5.387 -0.3040 -0.4912 -0.9690
17186SOL     OW53008   7.379   2.604   8.903 -0.2486  0.5074  0.1712
17186SOL    HW153009   7.359   2.593   8.810  0.5933  0.2003  0.0151
17186SOL    HW253010   7.296   2.591   8.947 -0.9236  1.8540 -0.6127
17187SOL     OW53011   3.001   3.131   3.334 -0.6609 -0.7202  0.2701
17187SOL    HW153012   3.044   3.138   3.249  0.2282 -0.9847  0.6942
17187SOL    HW253013   2.919   3.084   3.316 -0.8187 -0.1481 -0.5477
17188SOL     OW53014   1.870   8.355   5.102  0.4397  0.5251  0.2593
17188SOL    HW153015   1.814   8.299   5.048 -0.0646 -0.1974  1.4890
17188SOL    HW253016   1.946   8.373   5.047  0.4640 -1.1011 -0.2902
17189SOL     OW53017   1.459   1.553   4.037  0.3180 -0.3973  0.7601
17189SOL    HW153018   1.400   1.478   4.033 -0.1800 -0.0369  1.1953
17189SOL    HW253019   1.518   1.533   4.110  1.4901 -1.2882 -0.3987
17190SOL     OW53020   1.063   2.806   2.065 -0.2700 -0.3355 -0.0767
17190SOL    HW153021   1.134   2.768   2.118 -0.6367  1.0188  1.4790
17190SOL    HW253022   1.108   2.865   2.005 -0.0484  0.5455  0.9272
17191SOL     OW53023   7.952   7.530   9.065 -0.0285  0.0924  0.2271
17191SOL    HW153024   8.044   7.555   9.075 -0.2838  1.3657 -0.4012
17191SOL    HW253025   7.905   7.589   9.124 -0.5290  0.1826 -0.2514
17192SOL     OW53026   8.924   3.865   7.621  0.0602  0.0084  0.3312
17192SOL    HW153027   8.952   3.944   7.666 -0.0355 -0.5967  1.5046
17192SOL    HW253028   8.899   3.894   7.533  0.4956  1.1849  0.5834
17193SOL     OW53029   7.075   7.936   4.209 -0.4433 -1.0601  0.4694
17193SOL    HW153030   6.985   7.915   4.232  0.2907 -2.1313  2.6805
17193SOL    HW253031   7.099   8.006   4.269  0.0152 -0.3201 -0.5555
17194SOL     OW53032   7.395   7.657   5.646 -0.6342  0.4978 -0.7273
17194SOL    HW153033   7.383   7.576   5.596 -0.0364  0.4136 -0.7393
17194SOL    HW253034   7.370   7.634   5.735 -0.9264  0.4297 -0.8258
17195SOL     OW53035   7.838   4.136   0.197  0.0898  0.0203 -0.1627
17195SOL    HW153036   7.759   4.184   0.172 -0.9386 -1.3797  0.2739
17195SOL    HW253037   7.832   4.052   0.151  2.2056  0.5097 -1.4868
17196SOL     OW53038   6.353   2.044   2.077  0.3880 -0.5152  0.1609
17196SOL    HW153039   6.370   1.957   2.040 -2.8008 -0.3794 -2.0194
17196SOL    HW253040   6.265   2.037   2.116  0.9416  1.2092  1.9011
17197SOL     OW53041   3.188   3.913   5.873 -0.0545  0.1423  0.0995
17197SOL    HW153042   3.235   3.838   5.908 -0.9282  0.0745  1.1520
17197SOL    HW253043   3.209   3.985   5.932 -0.3503  0.3898 -0.0912
17198SOL     OW53044   5.793   0.223   4.954  0.3127 -0.1370 -0.4538
17198SOL    HW153045   5.747   0.140   4.969 -0.7982  0.0659 -2.5009
17198SOL    HW253046   5.832   0.244   5.040 -0.3785 -2.1391  0.4167
17199SOL     OW53047   0.921   6.838   9.146 -0.6608 -0.1471  0.4560
17199SOL    HW153048   0.991   6.904   9.143 -0.4319 -0.3803  0.5547
17199SOL    HW253049   0.956   6.764   9.096 -0.6353 -0.4504  0.9091
17200SOL     OW53050   4.531   6.845   3.660  0.1058  0.1164  0.4151
17200SOL    HW153051   4.479   6.772   3.626  0.2744  0.3421 -0.3414
17200SOL    HW253052   4.467   6.913   3.681 -0.0686 -0.3194  1.3089
17201SOL     OW53053   4.330   7.986   1.855 -0.5965 -0.2043  0.7453
17201SOL    HW153054   4.243   8.006   1.820  0.0585 -1.1862 -1.6190
17201SOL    HW253055   4.312   7.948   1.942 -2.3534  1.4783  1.1997
17202SOL     OW53056   6.314   7.143   2.602 -0.2997 -0.0671  0.1524
17202SOL    HW153057   6.272   7.121   2.685  0.4469  0.2085  0.6108
17202SOL    HW253058   6.349   7.059   2.570 -0.6871 -0.1936  0.0578
17203SOL     OW53059   5.598   8.203   5.721 -0.2069 -0.6608  0.2169
17203SOL    HW153060   5.615   8.183   5.813 -2.7157  0.5967  1.0526
17203SOL    HW253061   5.553   8.126   5.687  1.5251 -1.5093 -0.3023
17204SOL     OW53062   2.852   6.727   1.748 -0.0644 -0.1554 -0.2779
17204SOL    HW153063   2.804   6.780   1.811 -1.0192 -1.2668 -0.0430
17204SOL    HW253064   2.925   6.783   1.720 -0.1598  0.6943  1.1044
17205SOL     OW53065   4.363   9.101   8.907  0.3354  0.3116 -0.0207
17205SOL    HW153066   4.287   9.072   8.957 -0.7088  1.5684 -0.7999
17205SOL    HW253067   4.413   9.156   8.968 -0.4249  1.0572 -0.0459
17206SOL     OW53068   0.292   4.301   6.959 -0.0148 -0.0031 -0.1501
17206SOL    HW153069   0.198   4.307   6.941  0.0414  0.2110 -0.3839
17206SOL    HW253070   0.303   4.341   7.046  0.0085  1.0119 -0.6038
17207SOL     OW53071   5.740   5.964   8.677  0.2984 -0.4236  0.9102
17207SOL    HW153072   5.821   5.977   8.628 -0.5607  0.1132 -0.4362
17207SOL    HW253073   5.732   5.869   8.687 -0.4851 -0.7314 -1.8362
17208SOL     OW53074   4.054   6.704   2.100 -0.3539 -0.4990 -0.4873
17208SOL    HW153075   3.980   6.761   2.122 -1.2905 -0.9689 -2.2304
17208SOL    HW253076   4.025   6.655   2.024  1.7504 -0.7560 -1.1978
17209SOL     OW53077   3.665   3.198   0.595  0.0586 -0.1148  0.7781
17209SOL    HW153078   3.649   3.186   0.502  3.4966 -2.8084  0.3022
17209SOL    HW253079   3.724   3.274   0.600  1.2224 -0.9728  0.4992
17210SOL     OW53080   9.120   3.503   6.142  0.0308  0.4474 -0.4121
17210SOL    HW153081   9.213   3.492   6.124  0.0585  0.0511 -0.0587
17210SOL    HW253082   9.117   3.554   6.223 -0.0257 -0.4954  0.2066
17211SOL     OW53083   7.933   4.167   2.080 -0.0598  0.2380  0.8710
17211SOL    HW153084   8.008   4.139   2.028 -0.1964  0.2365  0.6728
17211SOL    HW253085   7.858   4.159   2.020 -0.0392  1.4774  0.6558
17212SOL     OW53086   8.875   1.943   4.822  0.0567  0.1065  0.0723
17212SOL    HW153087   8.919   2.016   4.778 -1.2112  0.4041 -0.7547
17212SOL    HW253088   8.785   1.973   4.834 -0.5243 -1.3617 -0.4048
17213SOL     OW53089   0.088   8.851   5.789 -0.3196 -0.5425  0.3988
17213SOL    HW153090   0.025   8.782   5.766 -0.6949 -1.0612  2.7045
17213SOL    HW253091   0.172   8.805   5.797 -0.5425 -0.7455  1.7944
17214SOL     OW53092   2.694   3.276   2.930 -0.0713 -0.1126  0.3085
17214SOL    HW153093   2.750   3.349   2.956 -0.6370  0.8578 -1.0801
17214SOL    HW253094   2.605   3.311   2.934 -0.2853 -0.4240 -1.2683
17215SOL     OW53095   1.481   5.341   0.828 -0.4734  0.1187  0.1646
17215SOL    HW153096   1.451   5.431   0.817 -0.2066  0.4943  2.1076
17215SOL    HW253097   1.574   5.344   0.805 -0.7110  0.0989 -0.8091
17216SOL     OW53098   2.250   5.730   2.565  0.4146  0.1514 -0.0031
17216SOL    HW153099   2.207   5.645   2.559 -0.8237  0.7919 -0.7538
17216SOL    HW253100   2.343   5.710   2.571  0.3048 -1.2355 -1.9717
17217SOL     OW53101   1.817   5.647   6.784 -0.9125  0.3733 -0.0767
17217SOL    HW153102   1.750   5.689   6.729 -0.2393  2.0634  0.3251
17217SOL    HW253103   1.808   5.690   6.869  0.1429  0.0302  0.2204
17218SOL     OW53104   0.277   7.061   5.093 -0.4660  0.2389 -0.0690
17218SOL    HW153105   0.294   7.009   5.014 -0.7118 -0.9735  0.6399
17218SOL    HW253106   0.310   7.006   5.164  0.2154  1.5364  0.6337
17219SOL     OW53107   2.887   7.191   0.696  0.0585  0.2711 -0.6105
17219SOL    HW153108   2.877   7.104   0.658 -1.1761 -1.3342  2.9473
17219SOL    HW253109   2.798   7.216   0.721  0.8427  0.6682  2.0564
17220SOL     OW53110   3.002   4.056   3.233  0.1944 -0.4649 -0.2694
17220SOL    HW153111   3.035   4.068   3.322 -1.9200 -1.1466  0.6628
17220SOL    HW253112   2.945   3.979   3.239 -0.6988  0.0182 -2.0099
17221SOL     OW53113   1.744   1.250   5.536 -0.4091 -0.2391 -0.0632
17221SOL    HW153114   1.688   1.312   5.489  0.6577 -0.2532 -1.4498
17221SOL    HW253115   1.795   1.305   5.596  1.0483  0.4223 -1.7861
17222SOL     OW53116   7.781   6.736   6.757 -0.0071  0.0125  0.2353
17222SOL    HW153117   7.698   6.711   6.798  0.2939 -0.2799  0.6774
17222SOL    HW253118   7.801   6.664   6.697  0.8547 -0.8602  1.5026
17223SOL     OW53119   0.680   2.101   1.531  0.3092 -0.4427 -0.0998
17223SOL    HW153120   0.631   2.175   1.567 -1.7683 -2.1333  0.8102
17223SOL    HW253121   0.702   2.128   1.442  0.5908  1.6536  0.5405
17224SOL     OW53122   0.087   4.469   7.945 -0.6729 -0.0264  0.1241
17224SOL    HW153123   0.178   4.497   7.944 -0.6981  0.0994 -1.3100
17224SOL    HW253124   0.055   4.492   8.032  0.5335  0.3432  0.4808
17225SOL     OW53125   8.122   6.090   0.169 -0.4261 -0.4771  0.3099
17225SOL    HW153126   8.200   6.097   0.224 -0.0613 -0.8908 -0.1402
17225SOL    HW253127   8.075   6.015   0.204 -0.3321 -0.5727  0.2347
17226SOL     OW53128   4.906   9.211   5.537 -0.3886 -0.2455 -0.7411
17226SOL    HW153129   4.854   9.174   5.467 -0.4260 -0.4066 -0.6290
17226SOL    HW253130   4.882   9.161   5.615 -0.1949 -0.2083 -0.6543
17227SOL     OW53131   0.118   5.719   1.048 -0.1671  0.2743  0.1954
17227SOL    HW153132   0.101   5.688   0.959  0.2463  0.6208 -0.0115
17227SOL    HW253133   0.214   5.721   1.054 -0.1899 -0.3827  0.8735
17228SOL     OW53134   2.084   3.332   8.070 -0.2498 -0.5222  0.0326
17228SOL    HW153135   2.178   3.319   8.076 -0.1670 -0.2823 -0.5786
17228SOL    HW253136   2.051   3.255   8.024 -0.5044 -1.1071  1.1640
17229SOL     OW53137   6.849   2.613   2.965  0.1938  0.0768  0.2496
17229SOL    HW153138   6.780   2.575   3.021  0.4019 -1.4901 -0.5245
17229SOL    HW253139   6.903   2.663   3.026  0.4198 -1.5860  1.5067
17230SOL     OW53140   8.175   3.272   9.111  0.1961  0.0776  0.2312
17230SOL    HW153141   8.127   3.353   9.130  1.0937  1.0245 -1.2561
17230SOL    HW253142   8.123   3.229   9.043  0.3813  0.0558  0.1035
17231SOL     OW53143   2.572   2.540   1.309  0.0171  0.0705 -0.0932
17231SOL    HW153144   2.641   2.540   1.376  0.6201  0.7372 -0.7001
17231SOL    HW253145   2.491   2.551   1.359  0.2149 -1.7611  0.7306
17232SOL     OW53146   7.094   8.391   1.636  0.6338  0.1979  0.8618
17232SOL    HW153147   7.128   8.444   1.708  0.1232  0.0662  1.2081
17232SOL    HW253148   7.000   8.387   1.651  0.5481 -0.0307  0.3163
17233SOL     OW53149   3.179   1.653   6.679  0.6813 -0.4618  0.0063
17233SOL    HW153150   3.212   1.732   6.636  0.3717 -0.3610 -0.0449
17233SOL    HW253151   3.084   1.664   6.679  0.6604 -0.6467  0.3579
17234SOL     OW53152   0.697   0.954   6.806 -0.4216 -0.0652  0.2921
17234SOL    HW153153   0.700   1.036   6.757 -1.3246  0.7760  1.6082
17234SOL    HW253154   0.759   0.897   6.760  1.0047  1.6745 -0.0469
17235SOL     OW53155   4.285   7.066   6.263  0.5515  0.3420 -0.0319
17235SOL    HW153156   4.279   7.158   6.288 -2.0580  0.4835 -0.8774
17235SOL    HW253157   4.325   7.068   6.176 -0.5767  0.8232 -0.5630
17236SOL     OW53158   0.470   6.446   2.351  0.3424 -0.1856 -0.3949
17236SOL    HW153159   0.500   6.373   2.405  1.6340  0.3500 -0.3444
17236SOL    HW253160   0.437   6.511   2.414 -1.8724 -1.1516 -0.5001
17237SOL     OW53161   5.103   0.366   5.635  0.2895 -0.1180  0.2361
17237SOL    HW153162   5.147   0.326   5.560 -1.6151 -2.0611  0.0510
17237SOL    HW253163   5.071   0.291   5.686  0.8925  1.1565  2.6426
17238SOL     OW53164   8.055   6.900   1.186  0.0987  0.7758 -0.2912
17238SOL    HW153165   7.997   6.865   1.119 -0.4198  0.4271  0.3252
17238SOL    HW253166   8.038   6.995   1.186 -0.7404  0.6349  0.1209
17239SOL     OW53167   3.582   1.585   4.247  0.3527 -0.3590 -0.1040
17239SOL    HW153168   3.514   1.519   4.230  0.9857 -0.9204 -0.5201
17239SOL    HW253169   3.550   1.632   4.324 -0.2933 -0.9092 -0.0199
17240SOL     OW53170   8.873   6.851   6.108  0.3140  0.4406 -0.2369
17240SOL    HW153171   8.960   6.886   6.125  0.6352  0.7314 -2.1829
17240SOL    HW253172   8.835   6.834   6.194  2.0874  0.8142  0.6408
17241SOL     OW53173   2.981   5.007   2.476 -0.5247 -0.3379  0.4555
17241SOL    HW153174   2.919   4.954   2.425  0.6737 -1.7063  0.3634
17241SOL    HW253175   3.060   5.011   2.421  0.7990 -1.8397  2.1392
17242SOL     OW53176   2.979   7.867   8.143 -0.2086  0.0683  0.2476
17242SOL    HW153177   2.963   7.858   8.049 -1.6996  1.5597  0.3211
17242SOL    HW253178   2.938   7.790   8.181  3.0240 -2.2290 -0.4600
17243SOL     OW53179   3.980   2.711   4.185 -0.3328 -0.1444  0.1702
17243SOL    HW153180   4.009   2.664   4.107 -0.4919 -1.3265  0.7928
17243SOL    HW253181   3.889   2.685   4.196 -0.5588  0.6818  0.2774
17244SOL     OW53182   3.639   7.104   4.888  0.7319  0.3821 -0.2072
17244SOL    HW153183   3.659   7.196   4.875  1.5200  0.5251  1.7163
17244SOL    HW253184   3.628   7.069   4.800 -1.6940  2.7201 -0.9631
17245SOL     OW53185   0.502   3.432   4.760 -0.7801  0.2375 -0.2429
17245SOL    HW153186   0.447   3.450   4.684  0.1967  0.4012 -0.9328
17245SOL    HW253187   0.441   3.418   4.832 -1.7004  1.5087 -0.7437
17246SOL     OW53188   6.745   0.184   6.779 -0.0603  0.1064 -0.0079
17246SOL    HW153189   6.747   0.226   6.692  1.5324  0.6891  0.2717
17246SOL    HW253190   6.837   0.162   6.796 -0.0178  1.7479  2.3314
17247SOL     OW53191   8.690   5.280   5.286 -0.7440  0.2087 -0.2492
17247SOL    HW153192   8.747   5.340   5.335 -1.2724  0.5131  0.0055
17247SOL    HW253193   8.601   5.311   5.305 -1.0246 -0.6196 -0.1626
17248SOL     OW53194   4.785   5.068   7.185 -0.2327 -0.1581 -0.1441
17248SOL    HW153195   4.748   5.078   7.272 -0.5886  0.9624 -0.4053
17248SOL    HW253196   4.770   4.976   7.163  0.3467 -0.5961  1.1714
17249SOL     OW53197   2.210   5.790   0.550 -0.2190  0.4684 -0.8417
17249SOL    HW153198   2.251   5.752   0.473  0.0897  1.9304 -1.4346
17249SOL    HW253199   2.245   5.879   0.555  0.3219  0.2036  1.4067
17250SOL     OW53200   0.451   9.269   4.955  0.2508 -0.0922 -0.5505
17250SOL    HW153201   0.418   9.182   4.932  0.0578  0.0717 -0.8937
17250SOL    HW253202   0.523   9.285   4.894 -0.0744  0.2231 -0.8535
17251SOL     OW53203   5.249   5.391   5.773 -0.0254  0.4745 -0.1044
17251SOL    HW153204   5.205   5.306   5.772 -0.2574  0.5487 -2.1322
17251SOL    HW253205   5.296   5.394   5.689  1.2285  1.7221  0.6068
17252SOL     OW53206   0.277   2.110   0.785  0.0367  0.0606  0.6229
17252SOL    HW153207   0.257   2.021   0.813 -1.3520  0.4417  0.9406
17252SOL    HW253208   0.366   2.126   0.817  0.4973 -1.3667  0.1172
17253SOL     OW53209   9.156   7.564   3.074 -0.0916 -0.4866  0.1387
17253SOL    HW153210   9.226   7.626   3.052  0.3751 -0.9278  0.3566
17253SOL    HW253211   9.197   7.478   3.066  0.0675 -0.7104  2.4730
17254SOL     OW53212   8.468   7.386   4.215 -0.3706 -0.9273 -0.2570
17254SOL    HW153213   8.512   7.432   4.286 -1.8336 -1.1664  0.8463
17254SOL    HW253214   8.539   7.343   4.167  0.8533  0.9879 -0.2614
17255SOL     OW53215   0.913   0.007   6.906  0.1628 -0.6915  0.0567
17255SOL    HW153216   0.937   0.099   6.918 -0.1237 -0.3655 -1.5878
17255SOL    HW253217   0.984  -0.030   6.855  0.5251 -1.5431  1.1336
17256SOL     OW53218   2.702   6.380   0.410  0.2004  1.1795  0.2983
17256SOL    HW153219   2.658   6.302   0.443 -1.8199  1.4791 -1.4611
17256SOL    HW253220   2.784   6.383   0.458  0.7106 -2.4313 -0.0292
17257SOL     OW53221   3.059   6.733   3.661  0.0366 -0.3990  0.2828
17257SOL    HW153222   3.145   6.716   3.622  0.3118  0.4267  0.5145
17257SOL    HW253223   2.997   6.691   3.602  0.5729 -0.6736 -0.0894
17258SOL     OW53224   2.741   0.989   3.230  0.2236  0.5132  1.1059
17258SOL    HW153225   2.809   1.053   3.211  0.4594  0.2756  1.1569
17258SOL    HW253226   2.694   1.026   3.306 -0.8878  1.5940 -0.0581
17259SOL     OW53227   3.368   8.078   6.355  0.1324  0.0855 -0.2468
17259SOL    HW153228   3.462   8.090   6.364  0.0692  0.2592  0.1700
17259SOL    HW253229   3.357   8.043   6.266  0.8426 -2.5004  0.5998
17260SOL     OW53230   7.131   5.247   4.879  0.1223  0.0435 -0.4663
17260SOL    HW153231   7.154   5.166   4.925 -0.5433 -0.1154 -0.4066
17260SOL    HW253232   7.115   5.219   4.789 -1.2516 -0.1018 -0.2067
17261SOL     OW53233   5.849   3.423   0.015  0.0950  0.6430 -0.0186
17261SOL    HW153234   5.806   3.337   0.008  0.6943  0.1656  1.6899
17261SOL    HW253235   5.938   3.403   0.043  0.3056  1.8149  0.1969
17262SOL     OW53236   5.881   1.476   4.334 -0.1166 -0.1499 -0.9183
17262SOL    HW153237   5.854   1.562   4.366  1.4060  0.2967 -0.7802
17262SOL    HW253238   5.842   1.469   4.246 -0.1554  0.7214 -0.9732
17263SOL     OW53239   7.263   1.924   3.182 -0.0272  0.6186  0.0875
17263SOL    HW153240   7.210   1.862   3.233 -2.9028  0.5732 -2.6262
17263SOL    HW253241   7.310   1.975   3.248 -2.7421 -0.0231  2.7628
17264SOL     OW53242   3.573   5.966   7.962  0.1682 -0.1651  0.1435
17264SOL    HW153243   3.537   6.015   8.036  0.3170  0.1036  0.0377
17264SOL    HW253244   3.642   6.022   7.927  0.4257 -0.5054  0.0996
17265SOL     OW53245   1.685   2.456   2.596 -0.3033  0.2563  0.4175
17265SOL    HW153246   1.638   2.399   2.657 -1.0737  0.3876 -0.0294
17265SOL    HW253247   1.701   2.536   2.645 -0.5389  0.2026  0.5840
17266SOL     OW53248   4.035   6.161   7.795  0.1539 -0.0043 -0.3297
17266SOL    HW153249   4.102   6.100   7.764  1.2925  0.9484  0.1587
17266SOL    HW253250   4.043   6.159   7.891  0.7427  1.4375 -0.3208
17267SOL     OW53251   3.456   3.985   8.116 -0.1375  0.1067  0.3477
17267SOL    HW153252   3.462   4.016   8.207  0.6858  2.0652 -0.3197
17267SOL    HW253253   3.364   3.960   8.105 -0.9155  2.4502  0.9635
17268SOL     OW53254   1.663   2.801   7.756 -0.2351 -0.1743  0.1553
17268SOL    HW153255   1.617   2.722   7.730 -1.3237  0.2471  0.7255
17268SOL    HW253256   1.721   2.773   7.827 -1.0894 -0.3656  0.7966
17269SOL     OW53257   1.515   4.764   3.242 -0.3301  0.4293  0.0304
17269SOL    HW153258   1.593   4.743   3.190 -0.2552 -1.1360  0.6986
17269SOL    HW253259   1.462   4.819   3.185  0.5336  0.2006 -1.0375
17270SOL     OW53260   6.307   3.823   7.096 -0.0848 -0.5474 -0.3754
17270SOL    HW153261   6.342   3.807   7.009 -0.5799 -1.5563 -0.4021
17270SOL    HW253262   6.344   3.908   7.122  2.9966 -1.8323 -0.0888
17271SOL     OW53263   8.637   8.852   7.947 -0.1870 -0.0397 -0.2867
17271SOL    HW153264   8.638   8.856   7.851  1.1995  2.0788 -0.2451
17271SOL    HW253265   8.676   8.935   7.975 -2.7274  0.4924  2.1512
17272SOL     OW53266   7.736   4.050   3.878 -0.1785 -0.3448 -0.0579
17272SOL    HW153267   7.693   4.057   3.792 -0.3614  0.5976  0.0975
17272SOL    HW253268   7.828   4.038   3.858 -0.2109 -0.0551 -0.3914
17273SOL     OW53269   5.015   2.253   0.871 -0.0456  0.0195  0.1122
17273SOL    HW153270   4.954   2.326   0.860  0.3760  0.4622  0.6321
17273SOL    HW253271   4.962   2.183   0.910 -0.9065 -0.6509 -2.1363
17274SOL     OW53272   0.616   2.271   6.992 -0.0226  0.0869 -0.0180
17274SOL    HW153273   0.702   2.311   6.980  0.5928 -1.6468 -2.2484
17274SOL    HW253274   0.565   2.301   6.916 -0.1331 -1.7354 -0.7311
17275SOL     OW53275   7.601   2.235   8.127  0.1126 -0.4007 -0.1386
17275SOL    HW153276   7.676   2.182   8.100 -0.4487 -1.8265  0.9975
17275SOL    HW253277   7.639   2.312   8.169  0.9349 -0.4879 -0.7108
17276SOL     OW53278   8.145   0.341   6.216 -0.6670 -0.0332  0.5713
17276SOL    HW153279   8.120   0.260   6.259  0.6706 -0.9490 -0.3049
17276SOL    HW253280   8.235   0.326   6.186 -1.3677  0.6500 -2.2264
17277SOL     OW53281   7.807   8.774   5.709 -0.0027 -0.2180 -0.1057
17277SOL    HW153282   7.750   8.697   5.705  0.5968 -0.7165  0.5766
17277SOL    HW253283   7.842   8.782   5.621 -1.2613  0.2103 -0.5839
17278SOL     OW53284   0.954   7.317   8.591  0.2712 -0.0852  0.1342
17278SOL    HW153285   0.946   7.304   8.686  2.3946 -1.1394  0.2411
17278SOL    HW253286   0.931   7.232   8.553  0.1220  0.1187 -0.2346
17279SOL     OW53287   4.704   7.538   0.807 -0.0682  0.0102  0.1810
17279SOL    HW153288   4.734   7.507   0.721  1.3870  1.3581  0.1516
17279SOL    HW253289   4.737   7.473   0.869 -0.2988 -0.4656 -0.1880
17280SOL     OW53290   0.358   5.081   1.408  0.0180 -0.2247 -0.1800
17280SOL    HW153291   0.373   4.987   1.407 -1.6593 -0.6041  1.9681
17280SOL    HW253292   0.422   5.116   1.469 -0.6217 -0.2795  0.5373
17281SOL     OW53293   3.063   3.075   7.408 -0.1661 -0.4492 -0.2157
17281SOL    HW153294   3.134   3.044   7.464 -0.8317 -2.2066 -0.2703
17281SOL    HW253295   3.100   3.075   7.320  0.5690  1.3207  0.0594
17282SOL     OW53296   4.064   3.557   5.768  0.0439 -0.6716  0.2443
17282SOL    HW153297   4.110   3.628   5.814 -0.3816 -0.4108  0.2760
17282SOL    HW253298   4.103   3.477   5.803  1.0549 -0.4441 -0.3459
17283SOL     OW53299   7.780   3.229   9.145 -0.3671 -0.2445 -0.1923
17283SOL    HW153300   7.868   3.266   9.142 -0.8381  0.8648 -0.9709
17283SOL    HW253301   7.722   3.302   9.122 -1.4358 -1.1150 -0.3516
17284SOL     OW53302   5.707   9.243   3.720 -0.1273  0.1791 -0.0657
17284SOL    HW153303   5.685   9.276   3.808  1.9166  0.3599  0.4311
17284SOL    HW253304   5.760   9.165   3.736 -0.5857 -0.3786 -1.1768
17285SOL     OW53305   7.853   1.147   7.210 -0.0579 -0.6184  0.1167
17285SOL    HW153306   7.808   1.211   7.155 -0.5535 -1.8149 -0.9322
17285SOL    HW253307   7.932   1.124   7.161  1.0796  0.5161  1.3510
17286SOL     OW53308   7.645   5.158   4.167 -0.3163 -0.1751 -0.1233
17286SOL    HW153309   7.648   5.241   4.121 -1.8941  0.6309  1.1088
17286SOL    HW253310   7.705   5.169   4.241  0.4347 -0.6175 -0.6512
17287SOL     OW53311   9.035   6.606   0.724 -0.6382 -0.3047  0.4202
17287SOL    HW153312   9.051   6.694   0.758  2.2036 -0.1122 -1.0826
17287SOL    HW253313   8.963   6.572   0.777 -0.9452  2.4051  1.9218
17288SOL     OW53314   4.598   0.673   8.630 -0.4246 -0.2066  0.0341
17288SOL    HW153315   4.544   0.594   8.628 -2.8158  1.3074 -2.7332
17288SOL    HW253316   4.566   0.722   8.706 -2.7190  0.3923 -1.2192
17289SOL     OW53317   5.100   7.847   4.270 -0.8278 -0.5194 -0.0732
17289SOL    HW153318   5.061   7.838   4.357 -3.9783  1.1314 -1.1624
17289SOL    HW253319   5.101   7.941   4.253  2.2393 -0.5723 -0.8719
17290SOL     OW53320   0.937   4.114   3.327 -0.4105  0.4239  0.4676
17290SOL    HW153321   0.988   4.076   3.399 -1.0501  2.0767  1.8777
17290SOL    HW253322   0.983   4.196   3.307 -0.4695  0.1671 -0.7563
17291SOL     OW53323   0.796   1.469   8.300  0.6420 -0.6069 -0.0775
17291SOL    HW153324   0.855   1.425   8.361 -0.8757 -2.0869  0.4007
17291SOL    HW253325   0.720   1.412   8.294 -1.7225  2.1617  0.9768
17292SOL     OW53326   2.332   0.903   3.314 -0.6280 -0.6131 -0.1784
17292SOL    HW153327   2.374   0.880   3.231  0.3270  0.5387 -0.0333
17292SOL    HW253328   2.391   0.966   3.355 -1.3726 -0.7178  1.1183
17293SOL     OW53329   2.805   1.668   3.757  0.1669 -0.6178 -0.1772
17293SOL    HW153330   2.830   1.607   3.688  0.3426 -0.7133 -0.0314
17293SOL    HW253331   2.802   1.615   3.837  2.7819 -0.0172  0.4400
17294SOL     OW53332   2.512   4.187   5.953  0.3263  1.0793 -0.3933
17294SOL    HW153333   2.535   4.106   5.909  0.8387  0.9761  0.0505
17294SOL    HW253334   2.431   4.216   5.911 -0.3891 -0.1519  0.0897
17295SOL     OW53335   6.911   8.288   7.964 -0.1462 -0.3958 -0.4940
17295SOL    HW153336   6.935   8.203   8.003  0.6606 -0.3299 -0.8262
17295SOL    HW253337   6.857   8.330   8.031  0.8680 -0.4669  0.4030
17296SOL     OW53338   8.020   5.820   0.542  0.4496  0.1156  0.2700
17296SOL    HW153339   8.019   5.910   0.574 -0.5279 -0.3025  1.5098
17296SOL    HW253340   8.062   5.770   0.612  1.9882 -0.2663 -0.8716
17297SOL     OW53341   0.019   8.567   3.536  0.2871 -0.2180  0.2171
17297SOL    HW153342   0.065   8.512   3.600 -1.0263  0.5517  1.9214
17297SOL    HW253343  -0.016   8.639   3.589 -0.7663  0.5122 -1.4145
17298SOL     OW53344   1.506   4.471   1.506  0.0956  0.3944  0.0829
17298SOL    HW153345   1.498   4.501   1.597  1.6223 -1.4965  0.9193
17298SOL    HW253346   1.566   4.534   1.466  2.9477 -1.0626  1.7021
17299SOL     OW53347   2.328   6.690   5.543  0.0199 -0.0447  0.4773
17299SOL    HW153348   2.273   6.643   5.606 -1.0471  1.5876  0.8143
17299SOL    HW253349   2.286   6.775   5.532  2.5035  1.3229  0.7746
17300SOL     OW53350   1.770   5.386   7.479  0.5681 -0.6896  0.0430
17300SOL    HW153351   1.791   5.294   7.490  0.9823 -0.5372  0.5628
17300SOL    HW253352   1.686   5.387   7.434 -0.6060 -1.3299  2.1154
17301SOL     OW53353   4.326   0.586   7.143 -0.0625  0.1227 -0.1705
17301SOL    HW153354   4.325   0.629   7.057 -0.1675  1.2705  0.3756
17301SOL    HW253355   4.409   0.615   7.183 -0.0263 -0.3786  0.1266
17302SOL     OW53356   4.252   6.557   0.492  0.1816  0.1010  0.2689
17302SOL    HW153357   4.261   6.651   0.508  1.4481 -0.0705  0.6883
17302SOL    HW253358   4.264   6.548   0.397  0.2099  0.3532  0.2475
17303SOL     OW53359   0.448   5.973   3.107  0.5730  0.0842  0.1263
17303SOL    HW153360   0.373   5.914   3.108  0.1561  0.6003  1.2474
17303SOL    HW253361   0.467   5.989   3.199  1.5616  0.5938 -0.1526
17304SOL     OW53362   4.039   4.836   2.861 -0.2061 -0.0394  0.3433
17304SOL    HW153363   3.979   4.848   2.935 -1.5611 -2.1044 -0.3447
17304SOL    HW253364   3.986   4.794   2.794  1.3011  0.7124 -1.4077
17305SOL     OW53365   3.667   3.165   9.001  0.4948 -0.1096 -0.4398
17305SOL    HW153366   3.716   3.190   9.079 -1.1586  2.0315 -0.0032
17305SOL    HW253367   3.620   3.086   9.026  1.6582 -0.6993 -0.0314
17306SOL     OW53368   2.339   8.146   4.374 -0.3515 -0.0846  0.2993
17306SOL    HW153369   2.365   8.225   4.422  0.3558 -0.1109 -0.0315
17306SOL    HW253370   2.400   8.142   4.300 -1.6288  0.1404 -0.8098
17307SOL     OW53371   4.933   2.404   7.191  0.5555 -0.0077  0.5906
17307SOL    HW153372   5.022   2.375   7.174  0.7632  0.8610  0.1114
17307SOL    HW253373   4.877   2.335   7.155  0.9877  1.2993 -2.9969
17308SOL     OW53374   3.642   0.140   5.436 -0.1458 -0.1411  0.2308
17308SOL    HW153375   3.577   0.103   5.496 -0.3876  1.3658  0.9331
17308SOL    HW253376   3.721   0.089   5.452 -0.9171 -1.5069 -0.0926
17309SOL     OW53377   9.066   8.123   5.650 -0.3065 -0.1839  0.0911
17309SOL    HW153378   9.110   8.170   5.579 -1.3104  1.5632  0.5602
17309SOL    HW253379   8.987   8.088   5.609 -1.1392  1.2449  0.3975
17310SOL     OW53380   0.487   2.022   0.901 -0.1286 -0.0209 -0.2926
17310SOL    HW153381   0.477   1.954   0.968 -3.3325  2.0234  1.5488
17310SOL    HW253382   0.564   2.071   0.930  0.5263 -1.1386 -0.0588
17311SOL     OW53383   8.889   3.769   9.174  0.0826 -0.3164 -0.3382
17311SOL    HW153384   8.868   3.851   9.219 -0.7508 -1.3101  1.1910
17311SOL    HW253385   8.885   3.790   9.081 -0.1487  1.3589  0.0287
17312SOL     OW53386   8.060   5.742   1.669 -0.0430  0.2494  0.4196
17312SOL    HW153387   8.138   5.785   1.703  0.8720 -0.9606 -0.0791
17312SOL    HW253388   8.063   5.654   1.706 -0.0842 -0.4455 -1.1594
17313SOL     OW53389   1.164   7.491   1.967  0.1732  0.4242  0.9642
17313SOL    HW153390   1.176   7.541   2.047 -1.1070  0.9664  0.8417
17313SOL    HW253391   1.153   7.400   1.997 -0.4804  0.6492  1.4265
17314SOL     OW53392   5.356   8.520   4.014  0.2257 -0.5028 -0.5015
17314SOL    HW153393   5.373   8.542   3.923 -1.2218 -0.2660 -0.7479
17314SOL    HW253394   5.434   8.474   4.043  0.1880 -1.7846 -2.2638
17315SOL     OW53395   2.488   8.302   1.501  0.4427 -0.6079 -0.5985
17315SOL    HW153396   2.450   8.301   1.589 -1.3636  2.4948 -1.2042
17315SOL    HW253397   2.421   8.260   1.446  0.2389  0.0678 -0.8802
17316SOL     OW53398   1.821   8.231   1.321  0.4839  0.5292 -0.2954
17316SOL    HW153399   1.820   8.159   1.258  2.0192 -3.1292  3.4132
17316SOL    HW253400   1.913   8.240   1.346 -0.2065  0.6954  2.4866
17317SOL     OW53401   4.910   1.416   0.819  0.3885 -0.1578 -0.2326
17317SOL    HW153402   4.894   1.510   0.824 -0.2884 -0.3373  1.5605
17317SOL    HW253403   4.933   1.390   0.908 -0.6853 -1.8916 -0.4128
17318SOL     OW53404   2.291   2.456   1.682 -0.1142 -0.3181 -0.0989
17318SOL    HW153405   2.261   2.546   1.693  1.8514  0.5857 -1.4553
17318SOL    HW253406   2.284   2.417   1.769  0.9313  1.7976  1.0025
17319SOL     OW53407   1.584   6.503   9.134 -0.3133  1.1692  0.4902
17319SOL    HW153408   1.527   6.426   9.136  0.4038  0.5695 -0.8416
17319SOL    HW253409   1.568   6.542   9.049  0.1025  1.9039  0.7399
17320SOL     OW53410   6.486   7.595   5.810 -0.6407  0.1893 -0.1918
17320SOL    HW153411   6.407   7.574   5.761 -0.5225  2.1187 -1.2816
17320SOL    HW253412   6.540   7.645   5.749  1.6163 -1.3587  0.3914
17321SOL     OW53413   1.269   5.227   2.573  0.2250 -0.2124  0.7572
17321SOL    HW153414   1.306   5.259   2.491  1.5574  0.3382  1.5539
17321SOL    HW253415   1.265   5.132   2.562  2.0969 -0.3113  0.7174
17322SOL     OW53416   4.454   2.817   6.444  0.3074 -0.1050  0.1956
17322SOL    HW153417   4.515   2.880   6.406  0.8578 -0.5856  0.2721
17322SOL    HW253418   4.453   2.744   6.382 -0.2630 -0.0610  0.1484
17323SOL     OW53419   0.897   0.242   7.404  0.0002  0.0811 -0.0291
17323SOL    HW153420   0.828   0.274   7.463 -0.3070 -1.7705  0.6874
17323SOL    HW253421   0.949   0.320   7.384 -1.8747  1.3922 -0.0333
17324SOL     OW53422   2.023   2.404   6.187 -0.0293  0.4537 -0.3900
17324SOL    HW153423   1.996   2.364   6.104  1.0803  0.4887 -0.7784
17324SOL    HW253424   1.969   2.360   6.253 -1.7513  1.2467 -1.2299
17325SOL     OW53425   4.945   4.949   4.509  0.2274  0.0298  0.0819
17325SOL    HW153426   4.886   5.005   4.459 -0.8163 -0.0901  1.1336
17325SOL    HW253427   5.011   5.009   4.545 -1.5140  0.8413  2.1319
17326SOL     OW53428   7.839   5.694   3.811 -0.2269 -0.1430 -0.0049
17326SOL    HW153429   7.905   5.764   3.817  0.5927 -0.8625 -0.3421
17326SOL    HW253430   7.850   5.659   3.723 -0.4760 -0.8477  0.2403
17327SOL     OW53431   4.507   0.765   5.127  0.1814 -0.1857 -0.1363
17327SOL    HW153432   4.558   0.835   5.168 -0.3867 -0.3954  0.9707
17327SOL    HW253433   4.571   0.714   5.076  0.9702 -0.1112  0.7660
17328SOL     OW53434   3.934   3.973   1.350  0.0866 -0.8883  0.6461
17328SOL    HW153435   3.840   3.958   1.342 -0.3917  1.4258  1.1446
17328SOL    HW253436   3.974   3.889   1.329 -2.0712 -1.8489  0.1390
17329SOL     OW53437   8.954   5.508   7.962 -0.1202  0.1436  0.7252
17329SOL    HW153438   8.982   5.417   7.965 -2.2306 -0.5577  2.6502
17329SOL    HW253439   8.970   5.536   7.872 -0.7438 -2.6064 -0.3390
17330SOL     OW53440   8.569   2.567   3.756  0.1752 -0.3140 -0.2586
17330SOL    HW153441   8.578   2.480   3.718  0.7182  0.5623 -2.2365
17330SOL    HW253442   8.478   2.590   3.741 -0.6041 -1.3535  2.2655
17331SOL     OW53443   8.205   7.644   0.302 -0.2868  0.3652 -0.4070
17331SOL    HW153444   8.269   7.572   0.298  1.5371  1.8372  0.6023
17331SOL    HW253445   8.127   7.609   0.259  0.6923 -2.0306 -0.4082
17332SOL     OW53446   3.487   5.607   3.338  0.3468 -0.2843  0.1923
17332SOL    HW153447   3.482   5.697   3.371  1.6874  0.3572 -1.2303
17332SOL    HW253448   3.565   5.606   3.282 -1.2230 -1.5425 -2.1447
17333SOL     OW53449   8.337   3.879   2.511  0.0227  0.2630  0.6901
17333SOL    HW153450   8.298   3.801   2.552  1.1115 -0.0179  1.2362
17333SOL    HW253451   8.356   3.853   2.422 -0.6055  0.2574  0.5537
17334SOL     OW53452   5.560   0.854   3.062  0.1889 -0.2862  0.4007
17334SOL    HW153453   5.588   0.768   3.031  0.7608 -1.1830  3.1250
17334SOL    HW253454   5.602   0.864   3.147 -0.9738  2.1060  0.7898
17335SOL     OW53455   1.577   3.847   0.791  0.0481  0.2974 -0.3963
17335SOL    HW153456   1.650   3.796   0.755  0.9873  1.2844  0.0702
17335SOL    HW253457   1.522   3.867   0.716  0.7828  0.3836 -0.9207
17336SOL     OW53458   4.075   6.922   8.414  0.2019  0.1728  0.4976
17336SOL    HW153459   4.113   6.993   8.466 -1.1414  2.6628 -1.6755
17336SOL    HW253460   4.110   6.936   8.326 -0.2392 -1.8145 -0.0360
17337SOL     OW53461   2.456   7.979   7.363 -0.0770  0.1385 -0.0823
17337SOL    HW153462   2.439   8.031   7.441 -1.1638  1.7434 -1.3223
17337SOL    HW253463   2.509   7.905   7.394  1.8936  2.1434  1.7019
17338SOL     OW53464   4.776   8.737   8.651  0.5416 -0.2174 -0.4027
17338SOL    HW153465   4.757   8.827   8.679  1.1579  0.5223 -2.2104
17338SOL    HW253466   4.696   8.688   8.670 -0.2778  1.0142 -0.5899
17339SOL     OW53467   7.617   0.360   3.247  0.6812 -0.3184  0.3043
17339SOL    HW153468   7.624   0.398   3.160  0.4605  1.0852  0.8853
17339SOL    HW253469   7.680   0.288   3.246  1.6502  0.5088 -0.5865
17340SOL     OW53470   7.223   3.148   0.837  0.1430  0.0886  0.4063
17340SOL    HW153471   7.319   3.141   0.832  0.1523  0.8966 -1.5469
17340SOL    HW253472   7.192   3.061   0.810  0.3500  0.5989 -1.6115
17341SOL     OW53473   6.745   7.692   9.246  0.3639  0.6486 -0.5976
17341SOL    HW153474   6.668   7.741   9.273 -0.5915  0.1963 -2.4004
17341SOL    HW253475   6.774   7.647   9.326 -2.3892 -0.7211 -0.2513
17342SOL     OW53476   8.173   0.116   6.584 -0.1034  0.0334  0.1772
17342SOL    HW153477   8.183   0.052   6.655 -2.0151 -3.5059 -2.4207
17342SOL    HW253478   8.262   0.126   6.549  0.6573  0.9089  2.1986
17343SOL     OW53479   6.110   0.061   4.847 -0.2746 -0.0233  0.1256
17343SOL    HW153480   6.157   0.143   4.864 -0.4736  0.5460 -1.7321
17343SOL    HW253481   6.179  -0.004   4.833 -0.1167 -0.3390  2.1452
17344SOL     OW53482   2.476   0.996   1.971 -0.4578 -0.6086 -0.3240
17344SOL    HW153483   2.567   1.023   1.985 -1.1083  2.3263 -1.0839
17344SOL    HW253484   2.474   0.964   1.881 -0.6710  2.2582 -1.4387
17345SOL     OW53485   4.599   7.973   4.147 -0.3058  0.5961  0.1821
17345SOL    HW153486   4.638   7.922   4.076 -0.3969  1.8107 -0.7822
17345SOL    HW253487   4.592   7.912   4.220  1.7768 -0.1151 -0.1678
17346SOL     OW53488   6.975   7.825   4.991 -0.2333  0.0070  0.0511
17346SOL    HW153489   6.904   7.855   5.047  1.6425  2.4617  1.2878
17346SOL    HW253490   7.013   7.751   5.038 -1.0549 -0.4320  0.0535
17347SOL     OW53491   6.299   0.395   8.576  0.0592 -0.5500  0.1958
17347SOL    HW153492   6.234   0.461   8.551 -1.2562 -1.4568  1.0883
17347SOL    HW253493   6.274   0.317   8.527  0.9010 -0.7322  0.0369
17348SOL     OW53494   2.796   7.992   4.180 -0.1825  0.2281  0.6092
17348SOL    HW153495   2.711   8.035   4.170  0.3667  1.2876  0.2867
17348SOL    HW253496   2.847   8.052   4.234  0.7725  0.2331 -0.2684
17349SOL     OW53497   1.806   6.498   1.513  0.3561  0.3028  0.4582
17349SOL    HW153498   1.749   6.447   1.571  1.1518  0.7770  1.7067
17349SOL    HW253499   1.893   6.490   1.552  0.7780  1.2583 -0.2513
17350SOL     OW53500   1.886   2.722   4.976  0.1506  0.1067 -0.2836
17350SOL    HW153501   1.811   2.780   4.962 -0.2599 -0.3349  0.0582
17350SOL    HW253502   1.862   2.670   5.053  0.8021 -0.0503 -0.1805
17351SOL     OW53503   8.745   7.305   1.161  0.0246 -0.4709 -0.3409
17351SOL    HW153504   8.812   7.308   1.093  1.6999 -0.8163  1.1953
17351SOL    HW253505   8.682   7.372   1.136  2.5441  2.0894 -0.3266
17352SOL     OW53506   5.930   4.297   7.208  0.0133  0.4701  0.2968
17352SOL    HW153507   5.885   4.266   7.130  0.2274 -0.3408  0.4869
17352SOL    HW253508   5.872   4.275   7.281 -0.8620  2.5155  0.2813
17353SOL     OW53509   3.132   1.278   7.617  0.2557  0.0993 -0.3629
17353SOL    HW153510   3.217   1.287   7.573 -0.2890  0.4623 -1.3892
17353SOL    HW253511   3.103   1.369   7.631  0.7309  0.0098  1.4289
17354SOL     OW53512   8.868   7.724   4.076  0.1680  0.2684 -0.4765
17354SOL    HW153513   8.817   7.802   4.053  0.0807  0.2288 -0.4161
17354SOL    HW253514   8.901   7.692   3.992  0.2622  0.4099 -0.4956
17355SOL     OW53515   2.020   4.604   4.835 -0.1688 -0.4609  0.1070
17355SOL    HW153516   1.926   4.595   4.850 -0.0590  0.1948  1.2426
17355SOL    HW253517   2.040   4.695   4.859  0.8195 -0.6892  0.1903
17356SOL     OW53518   8.169   6.975   2.015  0.1544 -0.1496 -0.3811
17356SOL    HW153519   8.188   6.931   2.098 -1.4270  0.4095  0.3319
17356SOL    HW253520   8.120   7.054   2.041  0.1028  0.3169 -1.8119
17357SOL     OW53521   5.889   5.478   5.342 -0.0349  0.4821  0.2631
17357SOL    HW153522   5.955   5.517   5.284 -0.4136  1.8003  0.6710
17357SOL    HW253523   5.873   5.391   5.306  0.7144  0.7723 -0.8163
17358SOL     OW53524   4.501   2.054   1.823 -0.1115  0.2228 -0.3053
17358SOL    HW153525   4.434   2.110   1.784 -0.4691  0.8969  1.2227
17358SOL    HW253526   4.584   2.095   1.798 -0.2560 -0.3598 -1.8200
17359SOL     OW53527   2.888   0.055   5.281  0.4458  0.3229  0.1525
17359SOL    HW153528   2.969   0.041   5.233  0.0367 -0.0944 -0.4430
17359SOL    HW253529   2.911   0.044   5.373  1.0255  0.0411 -0.0263
17360SOL     OW53530   0.534   2.817   5.115 -0.4417  0.0186 -0.5015
17360SOL    HW153531   0.452   2.773   5.136 -1.1076  0.9439 -1.0619
17360SOL    HW253532   0.572   2.765   5.044  0.2566 -1.3071  0.8010
17361SOL     OW53533   3.413   3.914   0.404  0.1461 -0.1381 -0.0545
17361SOL    HW153534   3.409   3.832   0.452  2.8885  0.7174  1.9285
17361SOL    HW253535   3.407   3.982   0.472 -0.1575  1.2504 -1.4154
17362SOL     OW53536   7.317   3.879   5.900 -0.5182  0.0321 -0.0008
17362SOL    HW153537   7.304   3.969   5.871  1.8453  0.9013  1.3640
17362SOL    HW253538   7.274   3.826   5.833  0.8130  2.0405 -2.6402
17363SOL     OW53539   2.153   7.920   7.518  0.0355  0.6659 -0.1267
17363SOL    HW153540   2.163   7.955   7.429  1.2070 -1.0835 -0.7666
17363SOL    HW253541   2.102   7.840   7.506  0.1485  0.4506  0.7853
17364SOL     OW53542   0.818   2.353   5.097  0.1164 -0.3390 -0.7928
17364SOL    HW153543   0.911   2.332   5.111 -0.2635 -2.5090 -1.1051
17364SOL    HW253544   0.802   2.329   5.006 -0.8454 -0.3208 -0.6296
17365SOL     OW53545   3.315   8.806   4.424 -0.2655 -0.1101 -0.0256
17365SOL    HW153546   3.290   8.825   4.514  0.4617  0.1189  0.1342
17365SOL    HW253547   3.352   8.889   4.391 -0.7800 -0.1130 -0.6192
17366SOL     OW53548   3.712   4.420   1.208  0.1439  0.6343  0.4136
17366SOL    HW153549   3.699   4.325   1.210  1.2391  0.4628  2.0387
17366SOL    HW253550   3.760   4.436   1.127  1.3105 -0.4524  0.8456
17367SOL     OW53551   0.925   0.253   9.047  0.0535  0.4894 -0.0350
17367SOL    HW153552   0.992   0.196   9.085 -0.5751 -0.2397 -0.0135
17367SOL    HW253553   0.967   0.288   8.968  0.5724  0.2968  0.1463
17368SOL     OW53554   2.149   3.115   3.010 -0.2562  0.1681  0.1176
17368SOL    HW153555   2.098   3.123   3.091  0.9945 -0.3426  0.9812
17368SOL    HW253556   2.134   3.198   2.965  0.3623  1.1829  1.6870
17369SOL     OW53557   7.163   4.592   8.112  0.0394  0.7781 -0.2508
17369SOL    HW153558   7.229   4.524   8.099 -0.0547  0.9002 -1.4841
17369SOL    HW253559   7.142   4.587   8.205  0.2206 -0.7166 -0.2580
17370SOL     OW53560   6.115   2.547   1.074  0.0763 -0.2831  0.3699
17370SOL    HW153561   6.125   2.627   1.022  1.6254 -0.5001  0.2669
17370SOL    HW253562   6.135   2.477   1.012 -1.5969 -0.7987  0.3731
17371SOL     OW53563   6.211   2.743   5.523  0.6649 -0.2976 -0.4275
17371SOL    HW153564   6.223   2.749   5.618  1.7367 -0.7833 -0.5213
17371SOL    HW253565   6.296   2.765   5.486 -0.4436  2.8405 -1.4208
17372SOL     OW53566   9.026   6.145   3.076  0.2678  0.2592  0.2826
17372SOL    HW153567   9.089   6.113   3.141 -0.0947 -0.5644  0.2285
17372SOL    HW253568   8.967   6.202   3.126  0.7534  0.6478  0.4249
17373SOL     OW53569   4.289   2.159   2.624 -0.0823  0.3547 -0.3012
17373SOL    HW153570   4.331   2.106   2.557 -1.6051 -0.5877 -0.5641
17373SOL    HW253571   4.341   2.144   2.703  1.9564  1.7779 -1.2908
17374SOL     OW53572   8.667   5.016   4.730  0.0655 -0.5641 -0.1167
17374SOL    HW153573   8.685   5.015   4.823 -1.2433  1.9806  0.2431
17374SOL    HW253574   8.582   5.060   4.722 -1.1448 -3.0081 -2.3522
17375SOL     OW53575   2.570   3.637   1.456 -0.4168 -0.4535  0.0686
17375SOL    HW153576   2.590   3.562   1.400  0.8148  0.1444 -0.3233
17375SOL    HW253577   2.640   3.700   1.438 -2.1871  1.4101 -0.6855
17376SOL     OW53578   2.705   6.641   2.172 -0.4634  0.2251 -0.6631
17376SOL    HW153579   2.622   6.680   2.199  0.1463  1.6561 -0.7541
17376SOL    HW253580   2.766   6.715   2.168  0.5900 -0.6528 -1.5000
17377SOL     OW53581   7.792   3.178   6.029  0.4385  0.0102  0.1006
17377SOL    HW153582   7.818   3.101   5.978  1.1204 -1.2484  2.1954
17377SOL    HW253583   7.704   3.157   6.061  0.0878  0.7023 -0.3901
17378SOL     OW53584   6.976   8.290   3.196 -0.1626  0.9513 -0.2119
17378SOL    HW153585   6.932   8.342   3.129  0.2285  0.3020 -0.9859
17378SOL    HW253586   6.914   8.288   3.269 -0.1971  2.4734 -0.1633
17379SOL     OW53587   1.893   5.632   0.344  0.2675  0.3344 -0.0861
17379SOL    HW153588   1.970   5.655   0.291  1.0209  0.7110  1.1483
17379SOL    HW253589   1.821   5.681   0.304  1.6179  4.2164  1.7919
17380SOL     OW53590   7.074   7.281   2.506 -0.7308 -0.3966 -0.2502
17380SOL    HW153591   7.121   7.198   2.505 -0.1394 -0.0839  0.9206
17380SOL    HW253592   7.130   7.340   2.455 -1.5684 -0.9007 -1.8382
17381SOL     OW53593   7.006   8.003   4.577 -0.2070  0.4484 -0.6397
17381SOL    HW153594   7.017   8.047   4.661  0.9850 -0.5742 -0.2230
17381SOL    HW253595   6.954   7.925   4.597 -1.2444  0.9906 -1.1481
17382SOL     OW53596   1.237   5.254   0.100 -0.1234  0.5518  0.0844
17382SOL    HW153597   1.208   5.207   0.022 -1.4588 -0.2448  1.0318
17382SOL    HW253598   1.255   5.186   0.165  0.6414  1.2217  0.6053
17383SOL     OW53599   9.266   3.703   0.411 -0.2644 -0.8259  0.1698
17383SOL    HW153600   9.234   3.779   0.362  0.1921 -1.6851 -1.5536
17383SOL    HW253601   9.187   3.664   0.449 -0.4989  0.5078  1.1396
17384SOL     OW53602   3.458   0.408   4.927  0.0791  0.2825  0.0189
17384SOL    HW153603   3.444   0.401   4.832  2.9039 -1.2442 -0.4064
17384SOL    HW253604   3.533   0.467   4.935  3.3190 -3.5160  0.7614
17385SOL     OW53605   8.726   0.413   7.834 -0.0745 -0.0625  0.0933
17385SOL    HW153606   8.738   0.409   7.929  0.5592  1.3004  0.0893
17385SOL    HW253607   8.640   0.375   7.819  0.4145 -1.6564  1.0523
17386SOL     OW53608   0.423   2.347   1.821 -0.3342 -0.6416  0.4483
17386SOL    HW153609   0.396   2.352   1.913 -0.9099 -1.7829  0.3577
17386SOL    HW253610   0.341   2.347   1.772 -0.0548 -0.7633 -0.0273
17387SOL     OW53611   7.388   7.159   8.595  0.6119  0.1408  0.0862
17387SOL    HW153612   7.448   7.207   8.538 -0.8904  0.0441 -1.6568
17387SOL    HW253613   7.333   7.108   8.535  0.8555 -2.2704  1.7633
17388SOL     OW53614   4.135   7.308   5.231 -0.6352  0.2018  0.0418
17388SOL    HW153615   4.046   7.278   5.252 -0.2297 -0.9567  0.1724
17388SOL    HW253616   4.164   7.353   5.311 -0.3918 -1.1486  0.7403
17389SOL     OW53617   1.313   8.096   4.219  0.0651  0.3509 -0.1262
17389SOL    HW153618   1.323   8.144   4.136  0.2006 -0.1466 -0.4036
17389SOL    HW253619   1.261   8.154   4.274 -1.9913 -0.2165 -1.3431
17390SOL     OW53620   5.816   8.279   5.927 -0.0958  0.1941 -0.6617
17390SOL    HW153621   5.858   8.300   6.011  0.7535 -1.3051 -0.6750
17390SOL    HW253622   5.765   8.201   5.945  2.0678 -1.6674 -2.0436
17391SOL     OW53623   6.790   5.142   6.418  0.4643 -0.0782  0.0749
17391SOL    HW153624   6.861   5.137   6.354  0.0433  0.5894 -0.4556
17391SOL    HW253625   6.809   5.220   6.470  0.3322 -0.1197  0.1880
17392SOL     OW53626   8.841   8.504   5.916  0.0811 -0.6985  0.3464
17392SOL    HW153627   8.892   8.579   5.947 -1.5149  1.1090 -1.1349
17392SOL    HW253628   8.821   8.453   5.995  2.4937 -0.4480  1.1906
17393SOL     OW53629   6.661   2.888   8.022 -0.5065  0.4436 -0.0461
17393SOL    HW153630   6.715   2.810   8.031  0.8231  1.5445  2.1080
17393SOL    HW253631   6.575   2.862   8.055 -0.7724 -0.7220 -1.5479
17394SOL     OW53632   2.541   4.350   0.185  0.2452  1.0734  0.5464
17394SOL    HW153633   2.487   4.428   0.189 -2.5787 -0.7540  0.4940
17394SOL    HW253634   2.509   4.294   0.256  0.2675 -1.1226 -1.0534
17395SOL     OW53635   3.602   0.592   3.553  0.2786 -0.4962  0.2571
17395SOL    HW153636   3.624   0.501   3.573  2.5532  0.0828  0.6447
17395SOL    HW253637   3.611   0.598   3.458 -0.5619 -0.8162  0.1466
17396SOL     OW53638   9.063   4.241   3.833 -0.3086 -0.3354 -0.3149
17396SOL    HW153639   9.080   4.151   3.806  1.6589  0.2631 -1.1821
17396SOL    HW253640   8.994   4.233   3.899  1.9791 -2.7856  1.9724
17397SOL     OW53641   2.743   5.296   2.474 -0.0019  0.5399 -0.8156
17397SOL    HW153642   2.822   5.253   2.440  0.5342 -0.2286  1.2955
17397SOL    HW253643   2.673   5.234   2.458 -0.0671  0.8595 -1.9004
17398SOL     OW53644   3.348   7.354   7.230 -0.2901  0.8022 -0.0336
17398SOL    HW153645   3.319   7.352   7.139 -0.5001  0.3674  0.0420
17398SOL    HW253646   3.422   7.293   7.234  0.4320  1.6527 -0.1520
17399SOL     OW53647   8.154   6.744   3.446 -0.0915  0.3813 -0.0532
17399SOL    HW153648   8.061   6.754   3.467  0.0420  1.7630  0.0146
17399SOL    HW253649   8.195   6.819   3.490  1.0457 -0.2059 -0.1038
17400SOL     OW53650   0.676   2.954   1.845 -0.2157 -0.5108  0.2963
17400SOL    HW153651   0.739   3.025   1.836 -2.4483  1.4815 -0.9595
17400SOL    HW253652   0.710   2.884   1.790  0.6016  0.7415 -0.8499
17401SOL     OW53653   6.376   6.276   2.811  0.1836 -0.0202  0.8896
17401SOL    HW153654   6.283   6.294   2.804 -0.0395 -0.9759  1.2157
17401SOL    HW253655   6.408   6.276   2.721 -0.0564  0.6763  0.8034
17402SOL     OW53656   4.796   6.238   5.442  0.0074 -0.0040  0.3124
17402SOL    HW153657   4.770   6.198   5.525 -0.5425 -1.3432 -0.4724
17402SOL    HW253658   4.726   6.301   5.424 -0.5064 -0.5818  0.2695
17403SOL     OW53659   2.898   4.944   3.056 -0.1628  0.0361 -0.0623
17403SOL    HW153660   2.840   4.990   2.995 -2.0225 -1.2313  0.6433
17403SOL    HW253661   2.893   4.852   3.028  0.2868 -0.3080  0.9623
17404SOL     OW53662   7.154   1.373   5.537 -0.4558  0.8293  0.1463
17404SOL    HW153663   7.130   1.381   5.444 -0.7178 -0.2571  0.0997
17404SOL    HW253664   7.250   1.374   5.536 -0.4577  2.1516  0.0147
17405SOL     OW53665   2.950   2.348   8.006  0.0155  0.1574 -0.2550
17405SOL    HW153666   3.025   2.354   8.064 -0.5083  0.2967  0.4206
17405SOL    HW253667   2.874   2.353   8.064 -0.5165  0.0144 -0.9233
17406SOL     OW53668   1.295   6.563   1.384 -0.5188  0.5761  0.1318
17406SOL    HW153669   1.282   6.492   1.321 -1.3587 -0.1690  1.1141
17406SOL    HW253670   1.232   6.545   1.454 -0.9093  2.4053  0.3093
17407SOL     OW53671   2.535   6.281   6.464  0.1093 -0.0400 -0.5244
17407SOL    HW153672   2.468   6.347   6.485  0.9619  0.8312 -0.4513
17407SOL    HW253673   2.566   6.252   6.550 -1.0966 -1.4500 -0.5292
17408SOL     OW53674   2.947   5.658   8.506 -0.2833 -0.2697 -0.2342
17408SOL    HW153675   2.886   5.588   8.530 -0.5914  0.1609  0.2608
17408SOL    HW253676   2.973   5.696   8.590  1.4996 -1.1161 -0.3457
17409SOL     OW53677   2.665   7.412   6.697 -0.9176  0.3513  0.7485
17409SOL    HW153678   2.711   7.349   6.752 -0.6765  0.7925  1.0531
17409SOL    HW253679   2.690   7.498   6.732 -1.0780  0.6234  0.2082
17410SOL     OW53680   2.787   4.901   4.514 -0.4043 -0.0966 -0.0870
17410SOL    HW153681   2.819   4.878   4.601  1.2336  1.5996 -0.1763
17410SOL    HW253682   2.813   4.828   4.459  1.0719  0.0636  0.3522
17411SOL     OW53683   3.187   3.637   6.163 -0.0287 -0.0242  1.0109
17411SOL    HW153684   3.227   3.724   6.163 -1.1829  0.5680 -1.0089
17411SOL    HW253685   3.250   3.581   6.117 -0.8501  0.6073 -0.9642
17412SOL     OW53686   4.369   4.476   1.125  0.1610  0.7970  0.0737
17412SOL    HW153687   4.450   4.524   1.144 -0.4144  1.1925  1.6872
17412SOL    HW253688   4.318   4.482   1.206 -1.8299  1.2346 -1.1521
17413SOL     OW53689   3.116   3.142   2.166 -0.5659  0.4887  0.3929
17413SOL    HW153690   3.158   3.149   2.252 -0.6745 -1.3574  0.6343
17413SOL    HW253691   3.180   3.176   2.105  1.1883 -1.8448  0.7964
17414SOL     OW53692   6.222   5.411   9.131  0.2944 -0.0536  0.2444
17414SOL    HW153693   6.171   5.458   9.197  1.0095 -0.2838  0.9773
17414SOL    HW253694   6.308   5.453   9.133 -0.1626  1.1517 -1.8484
17415SOL     OW53695   1.756   6.261   7.263 -0.3965 -0.0026  0.3945
17415SOL    HW153696   1.773   6.343   7.311 -0.5817  1.2320 -1.5384
17415SOL    HW253697   1.685   6.219   7.312 -0.0393  0.7816  1.6434
17416SOL     OW53698   6.515   8.839   7.115 -0.1842 -0.2852  0.0207
17416SOL    HW153699   6.469   8.903   7.170 -0.9841 -1.1150  0.3433
17416SOL    HW253700   6.457   8.826   7.040 -0.5153 -1.3537  0.4404
17417SOL     OW53701   6.709   6.978   2.138 -0.1013 -0.4555 -0.2477
17417SOL    HW153702   6.791   6.978   2.188  0.4697 -0.7809 -1.1646
17417SOL    HW253703   6.678   6.888   2.142 -0.9849 -0.1396  0.9590
17418SOL     OW53704   1.380   4.513   0.045 -0.1042  0.4677  0.1828
17418SOL    HW153705   1.325   4.557  -0.019 -1.6360 -2.0303 -0.3595
17418SOL    HW253706   1.349   4.545   0.130 -0.6122  1.0332 -0.2143
17419SOL     OW53707   3.378   4.945   0.072  0.7478 -0.5459  0.4996
17419SOL    HW153708   3.340   4.992   0.146 -0.4148 -1.4130  0.4858
17419SOL    HW253709   3.442   5.006   0.034 -0.7607  1.0612  0.4129
17420SOL     OW53710   0.338   7.881   7.750 -0.3848  0.2371 -0.5579
17420SOL    HW153711   0.419   7.899   7.799 -1.6560  0.7979  1.4661
17420SOL    HW253712   0.359   7.805   7.697  1.9884  1.3851 -1.4367
17421SOL     OW53713   0.909   1.897   4.392  0.0310  0.1554  0.3045
17421SOL    HW153714   0.977   1.853   4.443  0.9559  0.6742 -0.4453
17421SOL    HW253715   0.898   1.981   4.437  1.3315  0.8993 -0.6690
17422SOL     OW53716   0.726   8.125   3.543 -0.4338 -0.0994  0.0004
17422SOL    HW153717   0.801   8.176   3.512 -0.8857  1.2224  0.9913
17422SOL    HW253718   0.764   8.047   3.581  0.3628  0.0277 -0.5039
17423SOL     OW53719   8.866   8.992   3.301  0.1915  0.2817 -0.0375
17423SOL    HW153720   8.857   8.933   3.377  1.8705  0.1971  0.1307
17423SOL    HW253721   8.806   9.064   3.320 -1.6412 -1.1330 -0.0653
17424SOL     OW53722   6.893   3.515   7.692  0.0743 -0.2813  0.0992
17424SOL    HW153723   6.936   3.432   7.674 -1.0122 -0.6746 -0.8365
17424SOL    HW253724   6.930   3.575   7.627 -0.2942 -0.4511 -0.2729
17425SOL     OW53725   0.982   7.304   4.894  0.7088 -0.2122 -0.4216
17425SOL    HW153726   1.038   7.381   4.893 -1.7023  1.6766 -1.5112
17425SOL    HW253727   0.900   7.334   4.853 -1.0564 -2.8020  0.9599
17426SOL     OW53728   8.890   6.000   2.765  0.3494  0.6576 -0.0993
17426SOL    HW153729   8.838   6.033   2.838  1.5929  0.2072  1.0186
17426SOL    HW253730   8.828   5.948   2.713 -0.0984 -0.8457  1.8253
17427SOL     OW53731   5.230   7.437   4.390  0.6163 -0.1432  0.1684
17427SOL    HW153732   5.309   7.489   4.376  0.8724 -1.0598 -2.2286
17427SOL    HW253733   5.188   7.433   4.305 -2.0319  0.2621  1.3662
17428SOL     OW53734   6.749   0.481   0.506  0.3464 -0.3220 -0.0377
17428SOL    HW153735   6.817   0.456   0.569 -1.2590 -1.8163  1.2033
17428SOL    HW253736   6.735   0.574   0.523  0.9794 -0.3587  0.7888
17429SOL     OW53737   4.766   6.041   1.257  0.3503  0.3559  0.0740
17429SOL    HW153738   4.696   6.074   1.312  0.7866  1.0238  0.2391
17429SOL    HW253739   4.813   5.979   1.313  0.5490  0.7289  0.3230
17430SOL     OW53740   8.533   3.376   7.627 -0.2540 -0.0444 -0.0577
17430SOL    HW153741   8.446   3.348   7.655 -1.0216  1.1700 -1.1220
17430SOL    HW253742   8.573   3.296   7.591 -0.7555 -0.7025  0.8057
17431SOL     OW53743   2.835   5.025   4.070  0.5976  0.4128  0.2998
17431SOL    HW153744   2.894   5.086   4.027  0.3432  1.1294  0.9533
17431SOL    HW253745   2.759   5.078   4.095  0.1817 -0.2556  0.4957
17432SOL     OW53746   1.218   0.490   4.302  0.4133  0.1412 -0.3089
17432SOL    HW153747   1.149   0.456   4.359  0.5621  0.2153 -0.0816
17432SOL    HW253748   1.261   0.412   4.268 -0.1908  0.0834 -0.9623
17433SOL     OW53749   1.077   3.958   4.904 -0.1445 -0.0796  0.5704
17433SOL    HW153750   1.148   3.895   4.918  1.4179  1.5751  0.5408
17433SOL    HW253751   1.011   3.934   4.968  1.4978 -0.2466  2.3028
17434SOL     OW53752   7.978   3.763   2.428 -0.3276  0.0398  0.3463
17434SOL    HW153753   7.972   3.840   2.372 -0.1157  0.1898  0.5283
17434SOL    HW253754   8.058   3.776   2.479  1.0524 -1.4236 -1.3068
17435SOL     OW53755   4.935   6.838   6.647 -0.4618 -0.3229  0.1088
17435SOL    HW153756   4.974   6.816   6.563 -1.9948 -0.3953 -0.6133
17435SOL    HW253757   4.915   6.753   6.687 -0.4948 -0.2798  0.1848
17436SOL     OW53758   6.303   1.094   9.220  0.0338 -0.8982 -0.2209
17436SOL    HW153759   6.293   1.187   9.239  0.3390 -0.6545 -1.1915
17436SOL    HW253760   6.397   1.081   9.212 -0.0276 -1.2174 -0.4453
17437SOL     OW53761   1.943   7.311   6.976 -0.1474  0.3126  0.0423
17437SOL    HW153762   1.992   7.232   6.955  1.3440  1.1297  0.2923
17437SOL    HW253763   1.935   7.310   7.072  1.1722  1.1574  0.1910
17438SOL     OW53764   4.629   0.239   1.913 -0.4531 -0.4700 -0.2762
17438SOL    HW153765   4.548   0.268   1.954 -0.5088 -1.2712  0.1960
17438SOL    HW253766   4.630   0.144   1.925  1.8041 -0.2674  2.1578
17439SOL     OW53767   0.602   7.104   4.923 -0.0428  0.3512  0.4887
17439SOL    HW153768   0.663   7.101   4.850 -1.2284 -0.6046 -0.4941
17439SOL    HW253769   0.605   7.195   4.954  0.1894  0.8711 -0.9936
17440SOL     OW53770   2.418   5.031   4.653 -0.2494  0.1344 -0.2208
17440SOL    HW153771   2.332   5.036   4.612 -0.4019 -0.1126  0.0616
17440SOL    HW253772   2.479   5.030   4.580 -0.5105 -0.1517 -0.4413
17441SOL     OW53773   0.887   0.438   6.270 -0.2893  0.0806 -0.7120
17441SOL    HW153774   0.899   0.454   6.177  0.3411 -1.4766 -0.9295
17441SOL    HW253775   0.962   0.385   6.296 -0.0697  1.0779  0.8667
17442SOL     OW53776   7.293   1.036   3.735 -0.1051  0.1261 -0.2167
17442SOL    HW153777   7.279   0.942   3.750 -0.4768  0.4072  1.3744
17442SOL    HW253778   7.212   1.066   3.695 -0.1904 -0.1429 -0.2471
17443SOL     OW53779   1.037   7.627   5.754 -0.0431 -0.2461  0.1616
17443SOL    HW153780   1.055   7.587   5.839 -1.4270 -3.2133 -0.7896
17443SOL    HW253781   0.988   7.706   5.775  0.2974 -0.5099  2.1401
17444SOL     OW53782   0.121   2.834   8.030  0.1202 -0.4898  0.0088
17444SOL    HW153783   0.105   2.742   8.007 -0.3075 -0.3702 -0.1736
17444SOL    HW253784   0.207   2.833   8.073  0.1756 -0.9562 -0.1066
17445SOL     OW53785   8.552   5.830   4.020 -0.1814 -0.5152 -0.3614
17445SOL    HW153786   8.523   5.765   3.956  0.0371  0.8465 -1.9031
17445SOL    HW253787   8.506   5.910   3.995 -0.5101 -0.0521  1.5470
17446SOL     OW53788   5.518   3.409   3.440  0.3329  0.1998  0.2087
17446SOL    HW153789   5.443   3.457   3.405 -0.5495 -0.1892  1.4929
17446SOL    HW253790   5.594   3.449   3.397 -0.6106  0.3149 -1.4590
17447SOL     OW53791   8.734   1.299   9.119 -0.0481 -0.7373 -0.0323
17447SOL    HW153792   8.648   1.260   9.135  0.0029 -1.3287 -1.0985
17447SOL    HW253793   8.718   1.368   9.055 -0.0104  0.4936  1.2403
17448SOL     OW53794   0.643   6.327   1.632 -0.2602  0.2136 -0.2153
17448SOL    HW153795   0.695   6.252   1.660 -2.2571  0.2683  4.7004
17448SOL    HW253796   0.699   6.403   1.649  0.5035  0.0702 -1.8849
17449SOL     OW53797   8.046   8.982   1.688  0.3321 -0.1562 -0.7652
17449SOL    HW153798   8.106   8.917   1.724 -0.2634 -1.1447 -1.4995
17449SOL    HW253799   8.102   9.054   1.659  0.8735  0.4325  1.5672
17450SOL     OW53800   2.809   3.844   0.437  0.4215  0.4438 -0.9713
17450SOL    HW153801   2.794   3.848   0.531 -2.5170  0.0856 -1.3161
17450SOL    HW253802   2.898   3.876   0.425  0.5688  1.3289  1.8300
17451SOL     OW53803   5.849   3.206   2.246  0.0790 -0.8741 -0.1291
17451SOL    HW153804   5.775   3.254   2.282 -1.7335 -2.1774 -1.8992
17451SOL    HW253805   5.888   3.161   2.321  0.9962  2.1326  1.3362
17452SOL     OW53806   6.972   1.599   8.068  0.1825 -0.4439 -0.1772
17452SOL    HW153807   6.908   1.630   8.133  0.1120  0.8853 -0.8490
17452SOL    HW253808   6.920   1.584   7.989  0.4962 -0.5820 -0.3570
17453SOL     OW53809   7.787   7.332   8.223  1.1254  0.3160 -0.1727
17453SOL    HW153810   7.723   7.369   8.162 -0.0089 -2.2124 -0.6665
17453SOL    HW253811   7.825   7.408   8.268 -2.4011  1.9677  0.3540
17454SOL     OW53812   7.630   7.842   7.428  0.4110  0.2867 -0.0173
17454SOL    HW153813   7.577   7.884   7.360  0.0137 -1.7065 -1.0108
17454SOL    HW253814   7.720   7.869   7.410 -0.0638  3.1991  1.3039
17455SOL     OW53815   3.034   4.522   2.650  0.5807  0.0895  0.3247
17455SOL    HW153816   3.008   4.614   2.658 -1.6053 -0.5424  1.0222
17455SOL    HW253817   3.015   4.483   2.735  1.1829 -1.0960 -0.0522
17456SOL     OW53818   5.337   3.748   6.715 -0.4599 -0.1728 -0.0258
17456SOL    HW153819   5.304   3.730   6.627  0.2648  0.1063 -0.3683
17456SOL    HW253820   5.422   3.704   6.718  0.3557  1.3409 -0.1242
17457SOL     OW53821   8.984   0.926   8.197 -0.4281  0.0926  0.3117
17457SOL    HW153822   8.891   0.906   8.209 -0.4773  0.1570  0.0456
17457SOL    HW253823   8.999   1.004   8.251 -0.4814 -0.0350  0.5116
17458SOL     OW53824   1.365   5.185   1.628  0.0400 -0.7862 -0.5352
17458SOL    HW153825   1.282   5.224   1.657  1.0723  1.1641 -0.0697
17458SOL    HW253826   1.346   5.153   1.540 -1.1411 -0.0841 -0.5652
17459SOL     OW53827   4.611   7.111   1.716 -0.2868 -0.1795  0.9313
17459SOL    HW153828   4.615   7.061   1.797  1.6569 -0.6258  0.6142
17459SOL    HW253829   4.611   7.203   1.744  2.5488 -0.2642  1.4816
17460SOL     OW53830   4.959   1.235   8.454  0.0858 -0.5795  0.0371
17460SOL    HW153831   4.903   1.247   8.531  0.9395  0.6752  0.4933
17460SOL    HW253832   4.904   1.261   8.380 -0.6086 -1.3948  0.2535
17461SOL     OW53833   3.719   8.653   1.212  0.2293  0.0923  0.0477
17461SOL    HW153834   3.780   8.678   1.282 -1.1081  2.7350  0.3800
17461SOL    HW253835   3.763   8.679   1.132  0.2640  0.3533  0.1529
17462SOL     OW53836   7.571   8.977   9.221 -0.1621  0.5032 -0.1269
17462SOL    HW153837   7.529   8.979   9.307  0.6148 -1.2921  0.3461
17462SOL    HW253838   7.500   8.991   9.159 -1.3730 -1.5433  0.6820
17463SOL     OW53839   5.398   1.428   4.362  0.0588  0.5850 -0.4818
17463SOL    HW153840   5.458   1.364   4.323  0.9645  0.7217  0.6139
17463SOL    HW253841   5.441   1.512   4.347 -0.7544  0.8802 -1.2485
17464SOL     OW53842   0.906   5.058   2.403 -0.2364  0.3862 -0.1499
17464SOL    HW153843   0.871   4.971   2.382 -0.3599  0.0900  1.1651
17464SOL    HW253844   0.828   5.110   2.421 -0.1085 -0.1602  2.3703
17465SOL     OW53845   4.625   0.374   7.640  0.3967  0.1579  0.3331
17465SOL    HW153846   4.720   0.387   7.639  0.4998 -0.5713  0.3195
17465SOL    HW253847   4.606   0.334   7.555 -0.2165  2.1736 -0.5521
17466SOL     OW53848   4.820   0.570   1.464 -0.0285  0.6148 -0.1400
17466SOL    HW153849   4.751   0.520   1.421 -0.7969  0.7387  0.9264
17466SOL    HW253850   4.779   0.608   1.541  1.0552  1.2630  0.1465
17467SOL     OW53851   7.249   6.742   4.293 -0.5768  0.4421 -0.6572
17467SOL    HW153852   7.156   6.720   4.302 -0.5464 -0.7834 -2.5970
17467SOL    HW253853   7.253   6.796   4.214  0.3816  0.2557 -0.7520
17468SOL     OW53854   7.320   6.860   3.686  0.0867 -0.0933 -0.5028
17468SOL    HW153855   7.254   6.873   3.755  0.8229 -0.7346  0.3515
17468SOL    HW253856   7.311   6.937   3.630 -1.0468  0.0733 -0.1205
17469SOL     OW53857   4.672   4.136   0.473  0.3624  0.6341  0.0434
17469SOL    HW153858   4.744   4.097   0.524 -1.4409  0.2337  2.4439
17469SOL    HW253859   4.612   4.063   0.458 -2.0020  1.8678  2.6646
17470SOL     OW53860   6.769   4.111   2.302 -0.3598  0.0173  0.1610
17470SOL    HW153861   6.850   4.074   2.335  0.8257  1.3348 -1.1093
17470SOL    HW253862   6.758   4.193   2.350 -0.3084  0.3949 -0.4510
17471SOL     OW53863   6.837   1.794   3.325  0.2659 -0.3115  0.3094
17471SOL    HW153864   6.914   1.757   3.369 -0.2124 -0.5446  0.9757
17471SOL    HW253865   6.871   1.833   3.245  0.8800 -1.6807 -0.1232
17472SOL     OW53866   8.860   1.303   7.655  0.1578  0.4388  0.1413
17472SOL    HW153867   8.899   1.222   7.687 -1.5931 -0.6603 -0.4211
17472SOL    HW253868   8.780   1.277   7.611 -0.5073  2.4851 -0.0004
17473SOL     OW53869   0.134   0.142   1.092 -0.0822 -0.0578 -0.5108
17473SOL    HW153870   0.218   0.099   1.076 -0.3757 -0.3113 -1.4514
17473SOL    HW253871   0.111   0.181   1.008 -0.1006  1.4718  0.1784
17474SOL     OW53872   0.769   5.469   6.998 -0.3820 -0.1270  0.3848
17474SOL    HW153873   0.821   5.470   6.918 -1.6870  1.9825 -0.5287
17474SOL    HW253874   0.700   5.405   6.981 -0.8881  0.6016 -0.3737
17475SOL     OW53875   3.609   0.110   4.869  0.0176  0.3620 -0.7346
17475SOL    HW153876   3.583   0.139   4.782  2.6271  1.7503 -1.1489
17475SOL    HW253877   3.658   0.029   4.854  2.2395  1.6637 -0.8756
17476SOL     OW53878   3.718   5.035   3.503  0.0330  0.1958  0.2896
17476SOL    HW153879   3.780   4.975   3.545 -0.2684 -0.5384 -0.2914
17476SOL    HW253880   3.684   4.985   3.428 -3.5248 -0.6311  2.2412
17477SOL     OW53881   7.812   8.274   8.172 -1.2250  0.0073 -0.1631
17477SOL    HW153882   7.718   8.281   8.184 -1.2108  1.6301 -0.7636
17477SOL    HW253883   7.827   8.181   8.156 -2.5576 -0.4603  1.1046
17478SOL     OW53884   7.086   6.551   2.577  0.2354 -0.2698  0.2173
17478SOL    HW153885   7.086   6.559   2.481 -0.5600  1.1169  0.2995
17478SOL    HW253886   7.144   6.477   2.595  1.9888  0.6369 -1.2606
17479SOL     OW53887   0.649   2.594   1.457 -0.2850 -0.0329  0.1746
17479SOL    HW153888   0.736   2.632   1.454  0.2246 -1.2014 -0.8917
17479SOL    HW253889   0.659   2.512   1.504 -0.4272 -0.9909 -1.3704
17480SOL     OW53890   2.887   6.941   3.787  0.6363  0.3552  0.9320
17480SOL    HW153891   2.906   6.963   3.878  0.1840 -0.5581  1.2612
17480SOL    HW253892   2.940   6.864   3.769 -0.4164 -0.3924  0.9153
17481SOL     OW53893   8.736   1.774   2.820  0.0362  0.6922 -0.2640
17481SOL    HW153894   8.811   1.718   2.842 -3.5346 -4.4107  0.6302
17481SOL    HW253895   8.713   1.817   2.902  0.2216 -0.1022  0.2087
17482SOL     OW53896   3.505   5.383   2.301 -0.0291 -0.0138 -0.0153
17482SOL    HW153897   3.546   5.301   2.272  1.0417  0.0148  1.3360
17482SOL    HW253898   3.567   5.421   2.362 -0.2421  2.1317 -1.0304
17483SOL     OW53899   9.132   2.365   8.254 -0.2910  0.5871 -0.6321
17483SOL    HW153900   9.087   2.288   8.289  1.2479 -0.0185  0.1079
17483SOL    HW253901   9.066   2.434   8.255 -0.6321  0.3650  2.6738
17484SOL     OW53902   3.707   3.393   1.467 -0.8771  0.2350 -0.1398
17484SOL    HW153903   3.651   3.471   1.466  1.6238  2.1381 -1.1057
17484SOL    HW253904   3.775   3.413   1.531 -0.1810 -1.1996 -0.3931
17485SOL     OW53905   4.213   1.906   0.335  0.9036 -0.9259  0.3720
17485SOL    HW153906   4.245   1.825   0.295 -0.1187 -0.7741 -0.8273
17485SOL    HW253907   4.243   1.975   0.277 -1.1328 -0.7504 -0.5843
17486SOL     OW53908   5.738   0.583   5.693 -0.1916  0.0574  0.1562
17486SOL    HW153909   5.821   0.605   5.734 -0.1702  1.8668 -0.7645
17486SOL    HW253910   5.671   0.627   5.746 -0.7561 -2.2617  1.5435
17487SOL     OW53911   2.080   5.589   1.655 -0.3576  0.1913  1.0507
17487SOL    HW153912   2.162   5.592   1.607 -0.8989  0.7096  0.1497
17487SOL    HW253913   2.013   5.609   1.591 -1.2236 -0.4185  1.7307
17488SOL     OW53914   8.336   6.799   0.613  0.0659  0.0794 -0.1305
17488SOL    HW153915   8.391   6.877   0.622 -1.2108  0.9891 -0.0411
17488SOL    HW253916   8.338   6.778   0.520 -1.9185  2.0061 -0.6750
17489SOL     OW53917   2.247   1.414   2.954  0.0938 -0.8356  0.2845
17489SOL    HW153918   2.208   1.500   2.940  1.1259 -0.4336 -0.1526
17489SOL    HW253919   2.326   1.431   3.005  0.7089 -1.4361 -0.4442
17490SOL     OW53920   1.526   6.471   4.857 -0.4501  0.0075  0.1589
17490SOL    HW153921   1.620   6.471   4.839 -0.1882  0.0646  1.4639
17490SOL    HW253922   1.512   6.396   4.914 -1.1555  0.1735  0.2155
17491SOL     OW53923   8.726   6.713   7.811  0.1072 -0.4453 -0.0046
17491SOL    HW153924   8.818   6.695   7.827  0.3343  0.0362 -0.7329
17491SOL    HW253925   8.725   6.769   7.733 -0.8466 -1.0926 -0.4777
17492SOL     OW53926   3.423   7.044   0.082  0.2135 -0.5143  0.4047
17492SOL    HW153927   3.405   7.072  -0.008  2.3308 -0.9358 -0.1973
17492SOL    HW253928   3.435   6.949   0.076 -1.3128 -0.8131  1.4594
17493SOL     OW53929   0.898   8.983   8.373 -0.1913  0.3011 -0.4391
17493SOL    HW153930   0.887   8.892   8.345 -1.7599  0.3721 -0.1582
17493SOL    HW253931   0.809   9.019   8.375  0.5258  2.4393 -2.4021
17494SOL     OW53932   5.479   9.280   9.043 -0.0074  0.1548 -0.0320
17494SOL    HW153933   5.412   9.307   9.105  0.5372  0.7503  0.3154
17494SOL    HW253934   5.456   9.325   8.961 -1.9062 -2.2374 -0.9240
17495SOL     OW53935   2.687   6.130   5.119  0.0215  0.4305 -0.4260
17495SOL    HW153936   2.624   6.186   5.164  0.0118  1.8687 -2.1054
17495SOL    HW253937   2.642   6.047   5.106 -1.0156  0.9715 -0.3317
17496SOL     OW53938   5.703   5.411   7.387 -0.2093  0.2585 -0.3763
17496SOL    HW153939   5.699   5.398   7.293 -1.4826 -1.4281 -0.1331
17496SOL    HW253940   5.760   5.341   7.419 -3.6301 -2.4729  0.5020
17497SOL     OW53941   7.402   6.550   2.147  0.1271  0.5143 -0.0649
17497SOL    HW153942   7.334   6.500   2.193  0.6695 -1.8304 -1.6260
17497SOL    HW253943   7.484   6.519   2.186  0.4600  3.6911  2.1707
17498SOL     OW53944   4.299   0.120   5.467  0.7946 -0.1279  1.0027
17498SOL    HW153945   4.343   0.200   5.495  0.1195  0.6249 -0.0464
17498SOL    HW253946   4.241   0.098   5.540 -0.4320  1.4236  0.5623
17499SOL     OW53947   8.516   5.817   4.602 -0.0564 -0.7160 -0.1889
17499SOL    HW153948   8.529   5.875   4.527  0.2459 -1.5304 -0.7892
17499SOL    HW253949   8.593   5.760   4.601 -0.0958 -0.7942  0.6963
17500SOL     OW53950   5.394   5.722   0.853 -0.1906 -0.5725 -0.1936
17500SOL    HW153951   5.422   5.632   0.866 -0.2626 -0.2821  2.4090
17500SOL    HW253952   5.313   5.715   0.802  0.8318 -1.8076 -1.7387
17501SOL     OW53953   1.804   5.024   6.046 -0.2003 -0.3523  0.3360
17501SOL    HW153954   1.746   5.098   6.058  2.1430  1.4783  1.2808
17501SOL    HW253955   1.747   4.951   6.020 -2.9219  1.0639  1.9935
17502SOL     OW53956   5.676   5.132   5.928  0.3101  0.2781  0.2921
17502SOL    HW153957   5.734   5.062   5.898 -0.6174  0.4644 -2.1465
17502SOL    HW253958   5.588   5.104   5.902 -0.2066  1.8666  0.2197
17503SOL     OW53959   3.607   4.343   7.156 -0.1413 -0.6345 -0.6202
17503SOL    HW153960   3.609   4.285   7.080 -1.0175 -1.6545  0.1002
17503SOL    HW253961   3.535   4.309   7.210  0.2408  0.2703  0.4988
17504SOL     OW53962   7.864   5.022   6.398  0.1488 -0.8273 -0.6758
17504SOL    HW153963   7.797   5.090   6.393 -0.5684 -1.4931 -0.2362
17504SOL    HW253964   7.918   5.048   6.473  0.1576 -0.4975 -0.7934
17505SOL     OW53965   4.302   6.484   0.842 -0.0571 -0.0133 -0.8288
17505SOL    HW153966   4.238   6.468   0.773 -1.9970  1.0489  0.6258
17505SOL    HW253967   4.251   6.523   0.913  2.2280  0.8895  0.4014
17506SOL     OW53968   8.726   2.123   0.066 -0.0506  0.1174 -0.1197
17506SOL    HW153969   8.765   2.202   0.103 -0.1953 -0.4142  1.2049
17506SOL    HW253970   8.633   2.143   0.057  0.3858  1.4035 -3.3237
17507SOL     OW53971   3.244   3.829   8.041 -0.0183  0.3810  0.0004
17507SOL    HW153972   3.216   3.876   7.962  2.6852  1.3632 -0.4714
17507SOL    HW253973   3.281   3.747   8.007 -1.8361 -0.7387  0.5791
17508SOL     OW53974   4.681   4.086   6.628 -0.4449  0.2290 -0.1141
17508SOL    HW153975   4.654   4.176   6.610 -1.5079  0.1791  1.1466
17508SOL    HW253976   4.776   4.087   6.615 -0.6642  1.0622 -1.9396
17509SOL     OW53977   5.626   2.726   0.751 -0.3654 -0.9603 -0.3076
17509SOL    HW153978   5.686   2.738   0.677  2.9301 -0.7063  2.1743
17509SOL    HW253979   5.642   2.637   0.782 -0.1050 -0.3875  1.3135
17510SOL     OW53980   6.147   0.152   2.304  0.2642 -0.3511 -0.2667
17510SOL    HW153981   6.100   0.119   2.381  1.3169 -1.0498  0.1015
17510SOL    HW253982   6.127   0.245   2.302  0.5923 -0.2293  1.1423
17511SOL     OW53983   5.418   1.912   7.337  0.0847  0.0461  0.6365
17511SOL    HW153984   5.406   1.910   7.432 -0.6500  0.0430  0.5527
17511SOL    HW253985   5.390   2.000   7.311 -1.1706 -0.4402  0.2587
17512SOL     OW53986   0.022   3.140   6.952 -0.0033 -0.4493 -0.4416
17512SOL    HW153987   0.041   3.123   6.860 -0.8115 -1.8741 -0.3809
17512SOL    HW253988   0.074   3.217   6.974  0.3198 -0.1811 -2.0423
17513SOL     OW53989   2.201   5.353   5.217  0.2750  0.4122 -0.2035
17513SOL    HW153990   2.140   5.426   5.220  0.7837  0.8184  0.3534
17513SOL    HW253991   2.190   5.316   5.129  0.8396  1.8617 -0.9031
17514SOL     OW53992   4.439   3.667   8.624 -0.4223  0.2518 -0.1322
17514SOL    HW153993   4.465   3.647   8.534  0.3003 -0.1704  0.1578
17514SOL    HW253994   4.355   3.622   8.635 -0.3683  0.0513 -0.4991
17515SOL     OW53995   7.077   1.174   2.213 -0.0980 -0.1369 -0.1353
17515SOL    HW153996   7.028   1.251   2.182 -0.5854 -1.1599 -2.0779
17515SOL    HW253997   7.167   1.205   2.221 -0.5520  1.0322  0.6436
17516SOL     OW53998   8.699   4.380   8.533  0.2856 -0.4292 -0.5689
17516SOL    HW153999   8.738   4.384   8.446  0.0148 -1.8417 -0.7734
17516SOL    HW254000   8.607   4.357   8.518  0.5230 -1.9672  0.1177
17517SOL     OW54001   5.906   0.324   5.181 -0.0598 -0.6342  0.3318
17517SOL    HW154002   5.929   0.246   5.231  0.8479 -0.7370 -0.2044
17517SOL    HW254003   5.880   0.389   5.247  0.4585 -0.9738  0.8798
17518SOL     OW54004   0.483   6.925   8.340 -0.1072  0.2994 -0.0114
17518SOL    HW154005   0.520   6.983   8.407 -0.2791  1.6337 -1.0270
17518SOL    HW254006   0.547   6.925   8.269 -0.3160 -0.4141 -0.2174
17519SOL     OW54007   0.649   6.134   2.738  0.3847 -0.3837  0.3180
17519SOL    HW154008   0.719   6.092   2.788  0.3815 -0.6853  0.0763
17519SOL    HW254009   0.606   6.192   2.801  0.9458 -0.0812  0.4298
17520SOL     OW54010   0.710   0.481   7.198 -0.4662 -0.3636 -0.1438
17520SOL    HW154011   0.689   0.395   7.163 -0.5007 -0.4182  0.0098
17520SOL    HW254012   0.626   0.514   7.233 -0.4182 -0.3380 -0.0526
17521SOL     OW54013   4.150   8.937   8.997  0.7640 -0.4317  0.3047
17521SOL    HW154014   4.108   8.921   9.082  0.1415 -1.4287 -0.1744
17521SOL    HW254015   4.080   8.924   8.933  1.1560  0.6094 -0.3541
17522SOL     OW54016   8.786   2.813   0.914  0.3771 -0.3820 -0.1409
17522SOL    HW154017   8.797   2.748   0.845 -0.9964  0.2063 -0.9651
17522SOL    HW254018   8.751   2.764   0.989 -0.2317 -0.6819 -0.6093
17523SOL     OW54019   6.541   5.336   8.713 -0.1130  0.1128  0.4276
17523SOL    HW154020   6.457   5.340   8.758 -0.7625 -2.1586 -0.4444
17523SOL    HW254021   6.518   5.330   8.620  0.9712 -0.9104  0.1973
17524SOL     OW54022   2.791   6.148   4.029  0.4782 -0.1227 -0.5454
17524SOL    HW154023   2.714   6.149   4.085  1.0754  2.1194  0.3845
17524SOL    HW254024   2.757   6.161   3.941 -0.2705  0.1983 -0.2189
17525SOL     OW54025   0.052   2.075   4.901 -0.0397  0.2094  0.0675
17525SOL    HW154026  -0.020   2.138   4.888 -0.9841 -0.1390  2.9858
17525SOL    HW254027   0.042   2.013   4.829 -3.2271 -0.2811  0.7849
17526SOL     OW54028   3.938   3.943   6.258 -0.3076  0.1913  0.2572
17526SOL    HW154029   3.917   3.874   6.321 -1.0373 -0.8622 -1.0773
17526SOL    HW254030   4.002   3.998   6.303 -0.1226 -1.0416  1.5784
17527SOL     OW54031   7.199   8.473   8.026  0.1330  0.2059 -0.3664
17527SOL    HW154032   7.281   8.426   8.034 -0.6571 -1.6254 -2.0899
17527SOL    HW254033   7.132   8.404   8.021 -1.6294  1.6266  1.6929
17528SOL     OW54034   2.823   2.271   5.454  0.4760  0.7564 -0.3383
17528SOL    HW154035   2.887   2.310   5.514  0.0318  1.1152 -0.0897
17528SOL    HW254036   2.774   2.346   5.419 -0.5309  0.4139  0.3011
17529SOL     OW54037   8.460   0.392   0.115  0.1514  0.1977 -0.1436
17529SOL    HW154038   8.522   0.396   0.042 -0.7809  0.2386 -0.9611
17529SOL    HW254039   8.462   0.301   0.144  0.5012  0.1723 -0.2465
17530SOL     OW54040   3.972   8.307   4.320  0.5969 -0.5851  0.8475
17530SOL    HW154041   3.991   8.269   4.406  0.4924  0.8077  1.5184
17530SOL    HW254042   3.879   8.329   4.325  0.4097 -1.1582  0.0904
17531SOL     OW54043   0.694   6.617   5.166 -0.0668  0.1542 -0.0231
17531SOL    HW154044   0.670   6.541   5.219  0.5013  0.6881  1.0258
17531SOL    HW254045   0.616   6.633   5.112 -0.8820 -0.0678  1.0363
17532SOL     OW54046   9.185   2.001   0.127 -0.7534  0.0278  0.5258
17532SOL    HW154047   9.148   2.068   0.069 -0.7327 -1.4202 -1.2209
17532SOL    HW254048   9.140   1.920   0.104  1.2039 -1.1495  0.5928
17533SOL     OW54049   2.700   0.795   4.852 -0.4206 -0.5411  0.1429
17533SOL    HW154050   2.637   0.844   4.904  0.0795  1.2001 -0.7933
17533SOL    HW254051   2.758   0.754   4.916 -0.0516  1.2292  1.0167
17534SOL     OW54052   7.171   3.738   2.362 -0.5032 -0.0253  0.1363
17534SOL    HW154053   7.126   3.693   2.291 -0.7562  0.2389  0.1297
17534SOL    HW254054   7.192   3.668   2.425  1.7821 -0.6629 -1.2357
17535SOL     OW54055   8.919   5.178   3.798  0.2862 -0.0360  0.1523
17535SOL    HW154056   8.843   5.144   3.751  1.3232 -2.5448  0.1401
17535SOL    HW254057   8.975   5.215   3.729 -0.3060  0.6309  0.0148
17536SOL     OW54058   0.423   3.535   4.232 -0.3390 -0.0120 -0.1392
17536SOL    HW154059   0.461   3.513   4.317 -0.6973 -1.4765 -0.3291
17536SOL    HW254060   0.483   3.495   4.169 -2.2878 -2.7057 -0.4458
17537SOL     OW54061   4.107   5.590   1.862  0.2410 -0.3985 -0.6426
17537SOL    HW154062   4.199   5.616   1.855 -0.1857  2.1973  1.5893
17537SOL    HW254063   4.064   5.632   1.787  0.8718 -1.9348 -1.9097
17538SOL     OW54064   3.346   6.798   3.810 -0.2438  0.2098  0.9045
17538SOL    HW154065   3.339   6.883   3.766  2.9447  1.0949  1.8459
17538SOL    HW254066   3.296   6.809   3.891  2.0100  2.1473  2.1650
17539SOL     OW54067   0.331   1.042   3.623  0.2624 -0.2773  0.0256
17539SOL    HW154068   0.263   0.974   3.618  0.0895 -0.0642 -0.8043
17539SOL    HW254069   0.411   0.998   3.597  0.4682 -0.5544  1.1092
17540SOL     OW54070   8.696   4.336   5.425  0.1127 -0.2496 -0.2540
17540SOL    HW154071   8.745   4.332   5.343 -0.4246 -0.3530 -0.5792
17540SOL    HW254072   8.613   4.378   5.401 -1.3744 -3.0382 -0.4624
17541SOL     OW54073   1.607   2.297   2.377 -0.0878  0.3351  0.8099
17541SOL    HW154074   1.654   2.356   2.437 -0.3373  0.8544  0.5015
17541SOL    HW254075   1.560   2.356   2.318  1.9429 -0.1092 -1.3881
17542SOL     OW54076   5.517   9.258   3.531  0.5413  0.6302  0.1429
17542SOL    HW154077   5.590   9.257   3.593  1.0660  1.9140 -0.4228
17542SOL    HW254078   5.481   9.169   3.535  1.1542  0.4154  1.5743
17543SOL     OW54079   6.211   2.928   1.360  0.1557 -0.5784  0.2408
17543SOL    HW154080   6.135   2.974   1.325 -0.4711 -0.8600  1.2066
17543SOL    HW254081   6.254   2.992   1.418  1.1671 -0.1280 -0.9477
17544SOL     OW54082   8.396   2.684   2.778  0.0608  0.6109  0.0671
17544SOL    HW154083   8.491   2.673   2.770  0.1020 -2.7230  2.6176
17544SOL    HW254084   8.385   2.754   2.843  0.9335 -0.4891  1.4539
17545SOL     OW54085   4.736   0.480   1.888  0.0940 -0.5100 -0.1653
17545SOL    HW154086   4.736   0.504   1.981 -1.1377 -0.6135 -0.1191
17545SOL    HW254087   4.698   0.392   1.886  1.9897 -1.3741 -0.6000
17546SOL     OW54088   1.155   6.422   5.150 -0.0756 -0.5445  0.4402
17546SOL    HW154089   1.182   6.473   5.074 -0.7980  0.5693  0.9002
17546SOL    HW254090   1.234   6.415   5.204  0.5462 -1.6972 -0.5710
17547SOL     OW54091   8.624   0.847   8.547 -0.2913 -0.0868 -0.1614
17547SOL    HW154092   8.555   0.907   8.573 -0.8620 -0.1622 -1.4315
17547SOL    HW254093   8.680   0.839   8.625 -1.2576  0.5915  0.6226
17548SOL     OW54094   5.338   2.903   3.561 -0.2734  0.4272 -0.5526
17548SOL    HW154095   5.313   2.827   3.508  1.0527 -0.4119 -0.0190
17548SOL    HW254096   5.332   2.977   3.502 -0.2626 -0.2889 -1.4657
17549SOL     OW54097   5.784   4.270   3.423  0.9532 -0.2945 -0.1019
17549SOL    HW154098   5.781   4.302   3.332 -0.6013 -0.7244 -0.2230
17549SOL    HW254099   5.730   4.332   3.472  0.3841 -1.0297  0.2128
17550SOL     OW54100   5.495   1.667   4.337  0.2745 -0.8169  0.4000
17550SOL    HW154101   5.446   1.730   4.284 -0.3707 -0.1752  1.7057
17550SOL    HW254102   5.587   1.686   4.318  0.0930  0.5588  0.7911
17551SOL     OW54103   0.217   8.916   6.860 -0.2105 -0.1418 -0.0384
17551SOL    HW154104   0.230   8.826   6.832 -0.9306  0.3680 -2.1809
17551SOL    HW254105   0.298   8.938   6.907  0.2684 -1.6558 -0.0874
17552SOL     OW54106   0.462   0.501   6.876  0.0152  0.0165 -0.3729
17552SOL    HW154107   0.536   0.453   6.839 -1.3616 -2.5198 -0.0577
17552SOL    HW254108   0.498   0.587   6.900  2.4842 -0.6374 -1.4532
17553SOL     OW54109   7.087   4.490   6.114  0.0566 -0.2572 -0.1234
17553SOL    HW154110   7.159   4.548   6.142  0.6554 -1.3954  0.7939
17553SOL    HW254111   7.122   4.444   6.038 -0.4760  0.6606 -0.9483
17554SOL     OW54112   0.314   7.274   6.523  0.4390  0.2271 -0.4372
17554SOL    HW154113   0.286   7.293   6.612  1.3831 -0.4045  0.0088
17554SOL    HW254114   0.343   7.359   6.489 -0.3134  0.5469 -0.2968
17555SOL     OW54115   2.156   5.287   9.227 -0.2487  0.0171  0.2933
17555SOL    HW154116   2.141   5.301   9.321 -1.3475 -0.4441  0.2003
17555SOL    HW254117   2.251   5.274   9.220 -0.3211 -1.6592  1.6032
17556SOL     OW54118   7.235   7.459   5.816  0.2257  0.4058  0.1092
17556SOL    HW154119   7.314   7.427   5.861 -0.3669 -1.0475  0.1706
17556SOL    HW254120   7.180   7.381   5.807  0.7885  0.3021 -4.2762
17557SOL     OW54121   6.707   8.228   4.505 -0.3302 -0.7795  0.3168
17557SOL    HW154122   6.675   8.178   4.430 -0.2945 -0.7727  0.2970
17557SOL    HW254123   6.783   8.275   4.472 -1.5200  0.8725 -0.2251
17558SOL     OW54124   7.168   4.762   3.979 -0.2922 -0.1518  0.1135
17558SOL    HW154125   7.090   4.727   4.023 -0.6834 -0.3996 -0.7522
17558SOL    HW254126   7.227   4.786   4.051 -1.1379 -0.0103  0.7843
17559SOL     OW54127   2.990   7.669   5.382  0.1663  0.3365 -0.7011
17559SOL    HW154128   2.942   7.655   5.300 -0.5315 -0.1251 -0.2340
17559SOL    HW254129   2.963   7.595   5.438 -0.0898  1.1335  0.2630
17560SOL     OW54130   6.952   8.955   1.599 -0.3612  0.7211  0.7636
17560SOL    HW154131   6.917   9.015   1.666 -0.0977  0.4845  1.1182
17560SOL    HW254132   7.033   8.922   1.637 -0.0374  0.8324  0.1831
17561SOL     OW54133   9.273   5.175   7.814  0.4271  0.4165  0.0418
17561SOL    HW154134   9.307   5.088   7.837  0.9082  0.6736  0.3013
17561SOL    HW254135   9.342   5.214   7.761  0.6530  1.0486  0.7978
17562SOL     OW54136   1.113   8.806   9.100  0.2562 -0.1024  0.2916
17562SOL    HW154137   1.109   8.888   9.051 -0.9068 -0.3467 -0.0469
17562SOL    HW254138   1.022   8.787   9.123  0.6714 -0.5347  1.6520
17563SOL     OW54139   8.052   0.321   1.569  0.4458 -0.3720 -0.1996
17563SOL    HW154140   7.963   0.287   1.573  0.6739 -0.8868  0.9164
17563SOL    HW254141   8.060   0.358   1.481 -0.3626 -1.7132 -0.8718
17564SOL     OW54142   6.393   1.351   7.315 -0.4396  0.2309 -0.2055
17564SOL    HW154143   6.417   1.391   7.398 -0.8583  1.4247 -0.6323
17564SOL    HW254144   6.351   1.268   7.339 -3.1016  1.7789  0.9759
17565SOL     OW54145   3.846   2.910   3.603 -0.3834  0.0632 -0.0358
17565SOL    HW154146   3.915   2.846   3.584 -0.1839 -0.1286  1.2567
17565SOL    HW254147   3.890   2.976   3.657 -1.0860  0.2443  0.3117
17566SOL     OW54148   5.730   8.753   1.301 -0.3667  0.7634 -0.2428
17566SOL    HW154149   5.808   8.698   1.305 -1.2909 -0.5336  2.3486
17566SOL    HW254150   5.737   8.809   1.378 -1.1397  1.9046 -0.9797
17567SOL     OW54151   6.021   6.474   0.191  0.2342 -0.2669  0.0668
17567SOL    HW154152   6.099   6.493   0.244  1.2281 -2.8980 -0.2889
17567SOL    HW254153   6.005   6.381   0.205 -2.5978  0.0703 -0.2985
17568SOL     OW54154   3.443   5.485   7.386  0.1209 -0.2382  0.3011
17568SOL    HW154155   3.530   5.478   7.346 -0.3586 -0.1056 -0.8121
17568SOL    HW254156   3.454   5.449   7.474  1.2408 -0.4598  0.0883
17569SOL     OW54157   0.632   3.836   2.090 -0.1739 -0.2798  0.5979
17569SOL    HW154158   0.592   3.920   2.112 -1.1486 -0.1086 -1.5437
17569SOL    HW254159   0.565   3.791   2.038  1.5181 -1.0341 -1.0369
17570SOL     OW54160   4.603   8.472   1.319  1.0236  0.5708 -0.0306
17570SOL    HW154161   4.562   8.510   1.241 -0.7098 -0.5130  0.2750
17570SOL    HW254162   4.630   8.385   1.291  0.6133  0.2672  0.4894
17571SOL     OW54163   8.457   4.934   8.173 -0.0749 -0.2374  0.2039
17571SOL    HW154164   8.382   4.924   8.115 -0.2416 -1.1249  0.5478
17571SOL    HW254165   8.529   4.889   8.127  0.0359 -0.1048  0.2471
17572SOL     OW54166   0.150   4.648   7.190 -0.0116  0.6468  0.3923
17572SOL    HW154167   0.191   4.724   7.230  0.5783  0.0118  1.0290
17572SOL    HW254168   0.220   4.583   7.184 -0.3210  0.4028 -0.8332
17573SOL     OW54169   8.351   3.676   1.443 -0.2141  0.2902  0.6256
17573SOL    HW154170   8.337   3.770   1.440  0.5125  0.3891 -0.0566
17573SOL    HW254171   8.312   3.648   1.526  0.3230  1.3261  1.2478
17574SOL     OW54172   5.723   1.498   8.628  0.0700 -0.8833  0.3617
17574SOL    HW154173   5.755   1.524   8.542 -0.6783 -1.3441 -0.0730
17574SOL    HW254174   5.773   1.550   8.690 -0.9006  1.0967 -0.4313
17575SOL     OW54175   5.975   3.946   6.818  0.4792  0.1147  0.1052
17575SOL    HW154176   5.953   3.870   6.872 -0.5915  0.3928  0.0826
17575SOL    HW254177   6.068   3.935   6.797  0.7423 -0.3480  1.4374
17576SOL     OW54178   3.686   5.706   0.299  1.0034  0.6910 -0.9178
17576SOL    HW154179   3.666   5.682   0.209  4.4210 -3.0779 -0.9437
17576SOL    HW254180   3.767   5.757   0.294  0.3444  1.8733 -0.0400
17577SOL     OW54181   2.795   8.269   1.843  0.8383  0.1629  0.2770
17577SOL    HW154182   2.756   8.189   1.880  1.0805 -0.3193 -0.4890
17577SOL    HW254183   2.889   8.255   1.850  0.9939 -1.1301 -2.8558
17578SOL     OW54184   1.449   2.808   2.046  0.1112  0.1910  0.0516
17578SOL    HW154185   1.397   2.793   2.125 -0.0135  0.2038 -0.0264
17578SOL    HW254186   1.536   2.774   2.067  0.3469  1.0471  0.5204
17579SOL     OW54187   1.796   8.501   7.875 -0.3110  0.6136  0.1997
17579SOL    HW154188   1.741   8.462   7.808  0.7806 -0.2135 -0.2389
17579SOL    HW254189   1.867   8.544   7.827  0.3231  0.2621  0.7953
17580SOL     OW54190   6.625   0.001   2.020  0.0104 -0.3354  0.2489
17580SOL    HW154191   6.538   0.017   2.056  0.1951  1.7266 -0.1231
17580SOL    HW254192   6.628   0.053   1.940  1.4035 -0.8092 -0.0298
17581SOL     OW54193   2.999   3.730   3.765 -0.0513 -0.5455  0.2290
17581SOL    HW154194   2.930   3.792   3.740  1.2223  0.3085 -1.3691
17581SOL    HW254195   2.985   3.715   3.859 -1.7348  0.4400  0.1780
17582SOL     OW54196   1.433   1.386   6.871 -0.3675 -0.0059  0.0485
17582SOL    HW154197   1.447   1.416   6.961  2.3072  0.1144 -0.3226
17582SOL    HW254198   1.450   1.464   6.818 -1.2330 -0.2574 -0.6121
17583SOL     OW54199   2.190   3.245   0.245  0.1400  0.1827  0.3411
17583SOL    HW154200   2.185   3.188   0.321 -2.1303  0.0868  0.1918
17583SOL    HW254201   2.195   3.186   0.170 -0.6076  0.1975  0.2732
17584SOL     OW54202   0.424   9.173   9.028  0.0456  0.4747  0.2010
17584SOL    HW154203   0.366   9.180   9.104  0.7398  1.7237  0.6517
17584SOL    HW254204   0.511   9.189   9.064  0.4613  0.3588 -0.7434
17585SOL     OW54205   4.961   6.360   0.953 -0.2727  0.5482  0.3252
17585SOL    HW154206   4.967   6.394   1.043 -2.0538 -2.0340  1.5421
17585SOL    HW254207   4.937   6.268   0.964  1.9874 -0.5772 -2.7875
17586SOL     OW54208   0.341   8.350   2.047 -0.1383 -0.5311  0.4183
17586SOL    HW154209   0.426   8.311   2.064 -0.3785 -1.7199 -0.8759
17586SOL    HW254210   0.303   8.295   1.979 -1.8576  0.0944  0.8160
17587SOL     OW54211   4.562   2.829   8.641 -0.2875 -0.5667  0.2976
17587SOL    HW154212   4.535   2.845   8.551  0.4444  0.3601  0.2328
17587SOL    HW254213   4.565   2.915   8.682 -0.2177 -0.9349  1.0974
17588SOL     OW54214   9.088   6.156   2.632 -0.1344  0.1497  0.2013
17588SOL    HW154215   9.039   6.090   2.682 -0.5413 -0.5841 -1.1200
17588SOL    HW254216   9.115   6.220   2.698 -0.5646 -0.8227  1.3790
17589SOL     OW54217   4.467   5.812   0.712 -0.1200  0.1660  0.4655
17589SOL    HW154218   4.453   5.897   0.669  0.0835  0.4378  0.9303
17589SOL    HW254219   4.438   5.748   0.647  2.5185  0.4198 -1.1170
17590SOL     OW54220   0.012   7.421   4.707  0.0331 -0.0561  0.3363
17590SOL    HW154221   0.017   7.328   4.729 -0.6945 -0.1912 -0.0663
17590SOL    HW254222  -0.006   7.423   4.613 -1.5719  0.4607  0.6308
17591SOL     OW54223   2.526   8.728   8.419  0.0805 -0.2772  0.5866
17591SOL    HW154224   2.444   8.763   8.384  0.2954  0.3585  0.7217
17591SOL    HW254225   2.498   8.656   8.475 -0.2597 -1.7071 -1.2943
17592SOL     OW54226   6.506   2.753   4.258 -0.2579 -0.4670 -0.1825
17592SOL    HW154227   6.516   2.809   4.181  2.3661  0.7094  0.8797
17592SOL    HW254228   6.420   2.776   4.293 -1.1665 -0.4480 -2.2733
17593SOL     OW54229   3.138   4.438   7.903 -0.2448  0.2236 -1.0397
17593SOL    HW154230   3.071   4.370   7.910  0.0776 -0.2560 -2.3539
17593SOL    HW254231   3.119   4.481   7.820 -1.4264  2.8569  0.4731
17594SOL     OW54232   5.564   0.258   6.944 -0.0561  0.4367 -0.2491
17594SOL    HW154233   5.529   0.342   6.914 -0.0234  0.0963 -1.2725
17594SOL    HW254234   5.490   0.216   6.989 -0.4009  0.5424 -0.7075
17595SOL     OW54235   2.717   6.781   0.826 -0.0552  0.0545  0.3280
17595SOL    HW154236   2.763   6.762   0.908  0.1275 -0.0355  0.2072
17595SOL    HW254237   2.770   6.850   0.785 -0.2707  0.2578  0.3915
17596SOL     OW54238   0.766   0.614   3.437 -0.3344 -0.2038 -0.0872
17596SOL    HW154239   0.861   0.618   3.450 -0.5134 -0.9646  1.7097
17596SOL    HW254240   0.751   0.660   3.355  1.4201  1.4023  0.4396
17597SOL     OW54241   6.515   2.759   5.474 -0.1437  0.4350 -1.3020
17597SOL    HW154242   6.524   2.757   5.379 -1.0266  0.8733 -1.3993
17597SOL    HW254243   6.514   2.667   5.500 -0.4902  0.3045 -1.7714
17598SOL     OW54244   7.607   6.132   8.485 -0.3691 -0.6344 -0.1529
17598SOL    HW154245   7.645   6.209   8.528 -0.2937 -1.1949  0.8137
17598SOL    HW254246   7.513   6.138   8.503 -0.0714 -2.2382  2.4552
17599SOL     OW54247   2.985   3.832   6.587  0.7251  0.2796  0.7224
17599SOL    HW154248   3.032   3.887   6.524 -0.3756  1.1807  0.6424
17599SOL    HW254249   2.992   3.880   6.669  0.3428  0.1908  0.8070
17600SOL     OW54250   6.924   3.005   4.655  0.0893  0.6183 -0.4699
17600SOL    HW154251   6.858   2.984   4.722  1.0839  0.4645  0.4950
17600SOL    HW254252   6.920   3.100   4.646 -2.0829  0.4453 -2.3857
17601SOL     OW54253   8.917   0.188   1.531 -0.4420 -0.4381 -0.9751
17601SOL    HW154254   8.854   0.244   1.576 -0.3652 -0.0416 -1.3556
17601SOL    HW254255   8.974   0.155   1.601 -0.0823  0.4879 -0.8214
17602SOL     OW54256   4.025   1.650   7.999  0.3822 -0.6835  0.2349
17602SOL    HW154257   4.006   1.742   8.014  1.0984 -0.5919  0.6164
17602SOL    HW254258   4.026   1.640   7.904 -0.0520 -0.3772  0.1984
17603SOL     OW54259   5.113   9.246   2.727 -0.2184  0.2799  0.2492
17603SOL    HW154260   5.028   9.215   2.696 -0.2563  0.4893  0.1408
17603SOL    HW254261   5.177   9.204   2.671 -0.2777  0.5210 -0.0046
17604SOL     OW54262   5.247   8.386   8.483  0.0861 -0.0622  0.5136
17604SOL    HW154263   5.312   8.330   8.525  0.1069 -0.9614 -0.6697
17604SOL    HW254264   5.267   8.381   8.390 -0.6950  0.9287  0.2735
17605SOL     OW54265   6.737   3.193   5.237  0.1371  0.0658  0.0612
17605SOL    HW154266   6.756   3.285   5.218  1.1180  0.2170  1.6291
17605SOL    HW254267   6.659   3.195   5.292 -0.5146 -0.1308 -0.8358
17606SOL     OW54268   1.915   4.262   8.008 -0.5658 -0.7576  0.5147
17606SOL    HW154269   1.984   4.315   7.969  0.5131 -3.2482 -1.2388
17606SOL    HW254270   1.932   4.265   8.102 -0.9868  2.4052  0.5909
17607SOL     OW54271   6.110   3.861   2.243  0.0623 -0.5192  0.1491
17607SOL    HW154272   6.168   3.878   2.169  0.7356 -2.1178  0.2692
17607SOL    HW254273   6.031   3.912   2.224 -0.1392 -1.5696 -2.1233
17608SOL     OW54274   8.721   4.895   3.933  0.3062  0.0527 -0.2438
17608SOL    HW154275   8.755   4.841   3.862  0.4551  0.6213 -0.6085
17608SOL    HW254276   8.798   4.920   3.983  0.1978 -0.3786  0.1524
17609SOL     OW54277   3.396   7.120   8.401 -0.9293  0.1749 -0.0503
17609SOL    HW154278   3.352   7.168   8.331 -0.1719  1.2917  0.2189
17609SOL    HW254279   3.326   7.096   8.462 -1.2853  1.1680 -0.0594
17610SOL     OW54280   5.385   7.229   1.500  0.3437  0.3010 -0.3856
17610SOL    HW154281   5.435   7.309   1.486 -0.5302  0.7508 -1.0734
17610SOL    HW254282   5.440   7.175   1.557  1.6080  0.7635 -1.1310
17611SOL     OW54283   2.610   2.945   1.762  0.0178 -0.6538  0.0309
17611SOL    HW154284   2.586   2.947   1.669 -0.4561  0.8009  0.1680
17611SOL    HW254285   2.706   2.951   1.762  0.0747 -1.3855 -0.3677
17612SOL     OW54286   6.474   1.669   1.674  0.2809  0.5520  0.0380
17612SOL    HW154287   6.526   1.590   1.658 -0.1652  0.2224  0.2029
17612SOL    HW254288   6.523   1.739   1.630  1.2877  0.3963  0.8848
17613SOL     OW54289   4.148   8.901   6.916  0.2364  0.2529 -0.2047
17613SOL    HW154290   4.074   8.946   6.874  0.2216 -0.3181 -0.8034
17613SOL    HW254291   4.129   8.808   6.904  1.9192  0.0836 -1.9296
17614SOL     OW54292   2.909   3.806   0.045 -0.5998  0.6772  0.6125
17614SOL    HW154293   2.843   3.741   0.068 -0.3339  0.0477 -0.3722
17614SOL    HW254294   2.860   3.877   0.003 -1.0121  1.5682  2.4852
17615SOL     OW54295   7.469   5.524   2.015  0.6384 -0.1582  0.3366
17615SOL    HW154296   7.534   5.456   1.999  0.4810 -0.5755  1.3720
17615SOL    HW254297   7.502   5.600   1.968  0.1388 -1.2883 -1.9560
17616SOL     OW54298   7.658   5.662   6.870 -0.6266  0.6851  0.3419
17616SOL    HW154299   7.611   5.587   6.835  1.5548  0.1190 -1.6496
17616SOL    HW254300   7.594   5.733   6.871 -1.9474 -0.4427 -0.6343
17617SOL     OW54301   2.702   7.612   3.825  0.5320  0.3810  0.0958
17617SOL    HW154302   2.748   7.688   3.861  1.3345 -0.5554  1.1352
17617SOL    HW254303   2.758   7.538   3.849 -0.4564 -0.5729 -0.5093
17618SOL     OW54304   1.205   7.581   1.162  0.1510 -0.5966 -0.0873
17618SOL    HW154305   1.297   7.566   1.143  0.2578  0.6381 -0.6516
17618SOL    HW254306   1.159   7.511   1.116  0.7444 -0.5854 -0.7058
17619SOL     OW54307   4.314   3.063   4.522  0.2508 -0.4573 -0.2749
17619SOL    HW154308   4.265   3.055   4.440 -0.0868 -0.5932 -0.0621
17619SOL    HW254309   4.253   3.033   4.590 -0.5131  2.3264  0.4019
17620SOL     OW54310   5.996   0.591   3.708  0.0323  0.2080  0.5225
17620SOL    HW154311   5.920   0.546   3.671 -1.5544  2.2848  1.0799
17620SOL    HW254312   6.049   0.520   3.747 -1.1603 -1.3801 -0.5992
17621SOL     OW54313   6.918   6.201   5.980  0.5178  0.5498  0.1537
17621SOL    HW154314   6.868   6.281   5.967  0.8405  0.8157  0.5219
17621SOL    HW254315   6.888   6.168   6.065 -1.2751 -0.9464 -0.9729
17622SOL     OW54316   2.420   3.003   8.946  0.2933  0.1524 -0.1894
17622SOL    HW154317   2.509   2.984   8.916 -0.3951 -2.7783 -0.7263
17622SOL    HW254318   2.381   3.056   8.876  1.2457  0.4992 -0.4704
17623SOL     OW54319   0.735   6.981   4.430 -0.6212 -0.1657  0.2927
17623SOL    HW154320   0.749   6.922   4.356 -0.6564 -0.9433  0.9006
17623SOL    HW254321   0.658   6.946   4.474  0.1389 -0.4564  1.4224
17624SOL     OW54322   8.748   5.516   2.019  0.6729 -0.2988 -0.4536
17624SOL    HW154323   8.824   5.470   2.053  1.7643  0.5245 -1.6767
17624SOL    HW254324   8.728   5.582   2.086  0.0422 -1.4875  0.5821
17625SOL     OW54325   4.839   4.331   3.018 -0.5121 -0.5669 -0.2523
17625SOL    HW154326   4.889   4.259   3.057  1.7691  2.1571  2.3863
17625SOL    HW254327   4.898   4.368   2.952  0.2538  1.4281  1.4499
17626SOL     OW54328   7.985   4.573   4.450  0.4496 -0.4015 -0.2112
17626SOL    HW154329   8.013   4.483   4.466  0.9329  0.0676  1.7637
17626SOL    HW254330   8.053   4.610   4.393  1.6821 -0.5207  1.1406
17627SOL     OW54331   3.242   0.423   8.873 -0.0578 -0.1177 -0.2157
17627SOL    HW154332   3.260   0.503   8.824 -1.6827 -1.1011 -2.6088
17627SOL    HW254333   3.308   0.361   8.842 -1.1027 -0.7513 -1.2435
17628SOL     OW54334   7.852   6.715   1.543  0.1456 -0.0781 -0.1553
17628SOL    HW154335   7.826   6.728   1.452  0.3144  0.0697 -0.1832
17628SOL    HW254336   7.771   6.689   1.588 -0.1491  0.8121 -0.1500
17629SOL     OW54337   1.437   0.179   8.839  0.5771  0.1995  0.2937
17629SOL    HW154338   1.414   0.249   8.900 -0.7934  1.6534 -1.7424
17629SOL    HW254339   1.529   0.196   8.817  1.2191 -0.5857  2.1526
17630SOL     OW54340   8.975   2.969   2.359 -0.1696 -0.1094  0.4263
17630SOL    HW154341   8.959   3.033   2.289 -1.8001 -2.3807 -1.4724
17630SOL    HW254342   9.070   2.966   2.368  0.0155  1.2439 -0.7477
17631SOL     OW54343   2.288   0.511   8.767  0.3379  0.0331 -0.4503
17631SOL    HW154344   2.229   0.584   8.752 -0.2437 -0.6256 -1.4910
17631SOL    HW254345   2.253   0.466   8.843 -1.3957 -1.1812 -1.8875
17632SOL     OW54346   6.689   0.176   7.422 -0.0312  0.2359  0.5575
17632SOL    HW154347   6.678   0.081   7.433 -0.8213  0.2332 -0.1752
17632SOL    HW254348   6.675   0.191   7.329  2.0457  0.8424  0.3038
17633SOL     OW54349   7.043   0.148   3.742  0.2443  0.1871  0.2426
17633SOL    HW154350   6.998   0.095   3.807 -0.5418 -0.5114 -0.8294
17633SOL    HW254351   7.059   0.232   3.785  0.3541 -0.4789  1.5385
17634SOL     OW54352   9.084   2.198   3.878 -0.4526  0.3574 -0.1427
17634SOL    HW154353   9.069   2.156   3.793  0.2438 -1.6182  0.6579
17634SOL    HW254354   9.178   2.192   3.891 -0.5097  0.9871  0.6073
17635SOL     OW54355   5.901   6.490   7.212 -0.5363  0.2905  0.1362
17635SOL    HW154356   5.913   6.449   7.126  3.3253  1.1528  0.0834
17635SOL    HW254357   5.967   6.449   7.268 -2.2051  0.5580  2.4349
17636SOL     OW54358   0.111   4.521   3.156 -0.2661  0.5484 -0.9219
17636SOL    HW154359   0.114   4.578   3.233 -1.3434  0.1264 -0.5526
17636SOL    HW254360   0.190   4.467   3.164  0.1402  1.1688 -0.6395
17637SOL     OW54361   5.751   8.828   6.972  0.2968 -0.3677  0.3827
17637SOL    HW154362   5.721   8.758   6.914  0.5531 -0.0825 -0.1043
17637SOL    HW254363   5.711   8.907   6.935  0.7690 -0.1328  0.3657
17638SOL     OW54364   2.385   2.286   6.206  0.2290 -0.4623  0.4423
17638SOL    HW154365   2.431   2.333   6.137  0.0304  1.0557  1.3076
17638SOL    HW254366   2.402   2.193   6.187  1.7505 -0.0226 -0.5415
17639SOL     OW54367   4.864   2.952   3.514 -0.5099 -0.0642 -0.1808
17639SOL    HW154368   4.918   2.884   3.473 -0.1206  0.5606 -0.7324
17639SOL    HW254369   4.777   2.913   3.520 -0.0311 -1.0393  0.6065
17640SOL     OW54370   2.662   1.660   6.678  0.4546 -0.4163 -0.2749
17640SOL    HW154371   2.573   1.685   6.703  0.6764  1.8455 -1.4870
17640SOL    HW254372   2.655   1.568   6.652 -1.6150 -0.2066 -0.6323
17641SOL     OW54373   0.204   8.539   8.405  0.2636 -0.4306  0.1244
17641SOL    HW154374   0.108   8.536   8.413  0.3777 -1.6377  1.6943
17641SOL    HW254375   0.220   8.571   8.316 -1.5804  0.3772  0.0361
17642SOL     OW54376   5.591   3.620   3.669  0.4298  0.0794  0.4466
17642SOL    HW154377   5.686   3.622   3.669  0.4620 -0.3825 -0.7467
17642SOL    HW254378   5.568   3.535   3.707  0.5202 -0.1371  0.0226
17643SOL     OW54379   3.344   3.406   6.170 -0.5673  0.0888  0.0937
17643SOL    HW154380   3.402   3.343   6.128 -0.2305  0.1400  0.4807
17643SOL    HW254381   3.301   3.356   6.240  1.0824  0.7177  1.6328
17644SOL     OW54382   0.726   3.461   7.530 -0.4636 -0.1599  0.1580
17644SOL    HW154383   0.732   3.410   7.610 -0.6323  0.2946  0.4637
17644SOL    HW254384   0.769   3.406   7.463  0.0485 -0.3585  0.6408
17645SOL     OW54385   6.679   1.920   5.527  0.1497  0.2776 -0.6422
17645SOL    HW154386   6.713   1.859   5.592  0.5019  0.3331 -0.7715
17645SOL    HW254387   6.749   1.927   5.462  1.1500  2.6171  0.5629
17646SOL     OW54388   8.891   0.155   7.497  0.1180 -0.6014 -0.1695
17646SOL    HW154389   8.922   0.129   7.410  1.2458 -0.8866  0.3028
17646SOL    HW254390   8.944   0.231   7.520  1.0096 -1.5071  0.9375
17647SOL     OW54391   7.585   0.950   2.385 -0.3377 -0.4136  0.0424
17647SOL    HW154392   7.540   0.878   2.341 -0.9683 -0.4564  0.7271
17647SOL    HW254393   7.516   0.991   2.438  0.2980 -0.0889  0.6217
17648SOL     OW54394   2.578   4.057   8.804  0.6019 -0.3974  0.8215
17648SOL    HW154395   2.587   4.144   8.766  0.3528  0.1581  1.9898
17648SOL    HW254396   2.653   4.008   8.770  0.8742  0.3344  0.3439
17649SOL     OW54397   5.676   5.971   6.588  0.2299  0.2412 -1.0393
17649SOL    HW154398   5.692   5.999   6.498 -0.0123  0.1573 -1.1112
17649SOL    HW254399   5.665   5.876   6.581  1.3689  0.0765 -0.7548
17650SOL     OW54400   4.163   7.986   1.429  0.2804  0.0972  0.4567
17650SOL    HW154401   4.130   7.905   1.468 -0.2506 -1.2894 -2.5496
17650SOL    HW254402   4.088   8.045   1.428 -0.0127 -0.2713  0.4831
17651SOL     OW54403   2.865   7.394   3.636 -0.5411 -0.2408  0.1674
17651SOL    HW154404   2.926   7.451   3.589  0.4302 -2.7455 -1.8387
17651SOL    HW254405   2.800   7.368   3.570 -0.8948 -1.5134  0.9746
17652SOL     OW54406   5.548   2.417   2.639  0.1745 -0.6685 -0.3317
17652SOL    HW154407   5.499   2.472   2.578  0.5930  0.7478  0.5563
17652SOL    HW254408   5.590   2.351   2.584  1.6766  1.3863 -1.8032
17653SOL     OW54409   8.006   7.365   2.784  0.2128 -0.2652  0.3172
17653SOL    HW154410   8.049   7.303   2.726 -0.9573  0.1612 -1.0680
17653SOL    HW254411   8.068   7.438   2.791 -0.3146  0.4686 -1.8733
17654SOL     OW54412   2.154   6.688   7.474  0.1247 -0.5938 -0.2089
17654SOL    HW154413   2.181   6.621   7.536 -0.1373 -0.0409  0.5110
17654SOL    HW254414   2.171   6.771   7.519 -0.3658 -0.1956 -0.7475
17655SOL     OW54415   8.122   4.857   3.628 -0.4180  0.1458 -0.1251
17655SOL    HW154416   8.204   4.855   3.578 -1.0553 -0.3853 -1.1807
17655SOL    HW254417   8.139   4.801   3.704  0.9244  1.8230  0.8785
17656SOL     OW54418   6.351   5.486   1.151 -0.0741 -0.0993 -0.7093
17656SOL    HW154419   6.355   5.394   1.178  1.6359 -0.0054 -0.5073
17656SOL    HW254420   6.432   5.524   1.186 -0.2766  1.2482 -1.6474
17657SOL     OW54421   8.261   9.247   5.681  0.1558  0.4660  0.3940
17657SOL    HW154422   8.307   9.176   5.637  1.0986  2.2396 -1.6249
17657SOL    HW254423   8.170   9.239   5.650  0.5053  0.8264 -0.7387
17658SOL     OW54424   6.470   6.653   5.368 -0.1934 -0.1770  0.4935
17658SOL    HW154425   6.476   6.587   5.299 -1.5977  0.1937 -0.0151
17658SOL    HW254426   6.440   6.606   5.445 -0.1184 -0.3181  0.4366
17659SOL     OW54427   6.097   2.100   1.669  0.0730 -0.1418  0.2585
17659SOL    HW154428   6.165   2.034   1.654 -1.0651 -1.1984 -0.5470
17659SOL    HW254429   6.049   2.068   1.745  0.7164  0.8249  1.0901
17660SOL     OW54430   5.909   2.574   8.472  0.4889  0.2716  0.0811
17660SOL    HW154431   5.971   2.518   8.425  0.2246 -0.2264  0.3191
17660SOL    HW254432   5.963   2.621   8.536  0.8966  1.1836 -0.9163
17661SOL     OW54433   5.399   1.454   4.874 -0.1366  0.4890 -0.1631
17661SOL    HW154434   5.402   1.411   4.789 -0.9207 -1.1206  0.5698
17661SOL    HW254435   5.436   1.390   4.935  1.1924  1.9373  0.6060
17662SOL     OW54436   6.013   6.017   5.727 -0.2175 -0.0645 -0.1044
17662SOL    HW154437   6.105   6.018   5.699 -0.2816  4.1556 -0.7055
17662SOL    HW254438   5.964   5.999   5.647 -0.0173 -1.4837  0.0605
17663SOL     OW54439   8.637   8.792   1.027  0.0774  0.0199 -0.1275
17663SOL    HW154440   8.706   8.847   1.063  1.3987 -2.3224  1.1688
17663SOL    HW254441   8.589   8.761   1.105  0.1482 -1.5860 -0.6928
17664SOL     OW54442   6.816   6.236   2.718 -0.1273 -0.6609  0.1079
17664SOL    HW154443   6.876   6.282   2.777 -1.6272 -0.3789  1.4947
17664SOL    HW254444   6.873   6.183   2.663  1.5079  0.8570  0.2128
17665SOL     OW54445   7.290   4.170   5.819 -0.3971  0.6342 -0.0281
17665SOL    HW154446   7.325   4.224   5.890  1.0009 -1.0591  0.6368
17665SOL    HW254447   7.363   4.160   5.758 -0.8468  0.0468 -0.4810
17666SOL     OW54448   8.141   8.754   7.448  0.2465 -0.4881  0.8850
17666SOL    HW154449   8.073   8.818   7.426  2.1527  0.9032 -1.5510
17666SOL    HW254450   8.205   8.803   7.498  0.8119 -1.0080  0.6809
17667SOL     OW54451   9.134   8.107   1.531  0.0368  0.8412  0.5413
17667SOL    HW154452   9.122   8.176   1.465  0.2044 -0.0254 -0.4270
17667SOL    HW254453   9.050   8.101   1.576 -0.9656 -0.3144 -1.3649
17668SOL     OW54454   4.144   6.163   6.174 -0.3851 -0.0196 -0.1383
17668SOL    HW154455   4.063   6.162   6.125 -1.5800 -0.3132  1.7343
17668SOL    HW254456   4.142   6.083   6.227  0.8111  0.2846  0.4179
17669SOL     OW54457   6.282   7.482   0.002 -0.2442 -0.5631  0.5629
17669SOL    HW154458   6.243   7.405  -0.041 -0.5132  0.1519 -0.5112
17669SOL    HW254459   6.268   7.553  -0.060  1.6134 -0.0036  0.7452
17670SOL     OW54460   7.576   7.353   4.138 -0.3180 -0.1724  0.3803
17670SOL    HW154461   7.661   7.330   4.175  1.0181  1.7767 -1.2093
17670SOL    HW254462   7.550   7.432   4.186 -1.8787 -1.4016  1.6680
17671SOL     OW54463   0.002   3.683   6.908  0.3375 -0.4711  0.0731
17671SOL    HW154464  -0.066   3.616   6.917 -0.4161  0.3752  0.9531
17671SOL    HW254465   0.061   3.667   6.982 -0.3172  0.3256  0.7984
17672SOL     OW54466   9.114   8.700   4.761 -0.9154  0.1945  0.5292
17672SOL    HW154467   9.151   8.634   4.701 -1.7473 -0.1121  0.3285
17672SOL    HW254468   9.034   8.729   4.717 -0.9874  0.7334  1.0114
17673SOL     OW54469   4.497   0.905   3.956  0.6305 -0.3385 -0.2093
17673SOL    HW154470   4.427   0.905   4.021 -0.0121  3.5610 -0.6051
17673SOL    HW254471   4.576   0.924   4.006  0.8639 -1.5177 -0.1222
17674SOL     OW54472   7.999   4.962   2.464 -0.0357 -0.0428 -0.3013
17674SOL    HW154473   7.948   5.012   2.529  0.8443 -1.1966  1.3422
17674SOL    HW254474   8.077   5.015   2.449  0.0198 -0.0414 -0.0030
17675SOL     OW54475   5.444   9.170   4.336  0.5343  0.1026  0.1417
17675SOL    HW154476   5.487   9.243   4.380  0.3283  0.2032  0.1768
17675SOL    HW254477   5.462   9.094   4.391 -0.0550  0.2980  0.6047
17676SOL     OW54478   5.379   0.288   0.467  0.1399  0.0110  0.4560
17676SOL    HW154479   5.389   0.370   0.514 -1.9848  0.5543  0.0853
17676SOL    HW254480   5.296   0.251   0.499  0.1973 -1.1376 -0.6074
17677SOL     OW54481   1.170   2.348   2.789  0.0405  0.1965 -0.1528
17677SOL    HW154482   1.232   2.352   2.716  0.3178 -1.7196 -0.0495
17677SOL    HW254483   1.203   2.412   2.852  0.6890  0.7358 -1.0189
17678SOL     OW54484   5.038   2.830   3.992  0.3072  0.4822 -0.4920
17678SOL    HW154485   5.022   2.783   4.074 -1.0894 -1.1925 -1.6496
17678SOL    HW254486   5.133   2.827   3.981  0.4255 -0.1793  0.5593
17679SOL     OW54487   3.502   3.575   7.212 -0.3327 -0.2499  0.1268
17679SOL    HW154488   3.454   3.531   7.282  0.4057 -0.4926  0.4962
17679SOL    HW254489   3.472   3.666   7.215 -0.7469 -0.3908  0.3626
17680SOL     OW54490   8.462   1.813   1.110 -0.2105  0.5450 -0.3169
17680SOL    HW154491   8.520   1.809   1.033 -0.6416  0.9207 -0.6662
17680SOL    HW254492   8.390   1.869   1.083 -1.3110 -0.7891 -0.2795
17681SOL     OW54493   6.750   9.253   3.191 -0.0022  0.5288  0.5129
17681SOL    HW154494   6.791   9.338   3.208  0.4324  0.6305 -0.8697
17681SOL    HW254495   6.819   9.189   3.208 -0.0794  0.5086  0.7530
17682SOL     OW54496   0.197   4.347   4.333 -0.4509  0.1346 -0.4779
17682SOL    HW154497   0.102   4.336   4.324 -0.5406  0.0075  0.5622
17682SOL    HW254498   0.225   4.378   4.246 -1.4901  0.5366 -0.6911
17683SOL     OW54499   1.603   7.398   2.350  0.4813 -0.3739 -0.4114
17683SOL    HW154500   1.527   7.359   2.393  1.4088  0.1724  1.9379
17683SOL    HW254501   1.661   7.324   2.330 -0.3301 -0.7180 -1.5357
17684SOL     OW54502   2.783   7.067   5.326  0.2597  0.0693  0.3995
17684SOL    HW154503   2.775   6.999   5.259 -1.8667  0.4331  0.2259
17684SOL    HW254504   2.770   7.021   5.409  1.1698 -0.0855  0.4750
17685SOL     OW54505   6.274   7.452   1.743 -0.0991  0.2192 -0.3651
17685SOL    HW154506   6.336   7.455   1.815 -1.2829 -0.8173  0.7338
17685SOL    HW254507   6.244   7.361   1.740 -1.1665  0.5700 -1.2124
17686SOL     OW54508   4.833   7.466   7.814  0.1331  0.1731  0.7449
17686SOL    HW154509   4.875   7.478   7.729  1.7004 -1.8202  1.1770
17686SOL    HW254510   4.815   7.555   7.844  0.2269  0.9515 -1.3000
17687SOL     OW54511   4.830   2.146   3.148 -0.2711  0.1318  0.1258
17687SOL    HW154512   4.769   2.182   3.083  0.2765  1.7887  0.4924
17687SOL    HW254513   4.916   2.159   3.109 -0.0424 -0.5922  0.3763
17688SOL     OW54514   3.879   1.110   5.315 -0.0175 -0.2134 -0.0831
17688SOL    HW154515   3.864   1.045   5.383 -0.6096  0.8211  0.7933
17688SOL    HW254516   3.973   1.103   5.296  0.4079  0.2673  1.6790
17689SOL     OW54517   7.476   1.988   7.714  0.3757 -0.0700  0.0176
17689SOL    HW154518   7.487   1.971   7.621  1.0668 -0.9320  0.2379
17689SOL    HW254519   7.551   2.041   7.738  0.5035 -0.3238  0.1881
17690SOL     OW54520   7.748   3.589   5.392 -0.3825  0.0720 -0.1334
17690SOL    HW154521   7.739   3.682   5.373  0.8299  0.0426 -1.0035
17690SOL    HW254522   7.772   3.549   5.308  2.1176 -0.5285  0.7537
17691SOL     OW54523   7.931   0.613   7.366 -0.1262 -0.2388 -0.3924
17691SOL    HW154524   7.874   0.596   7.440 -0.5551 -0.8362 -0.8496
17691SOL    HW254525   7.956   0.705   7.375 -1.7122  0.2335 -0.5585
17692SOL     OW54526   3.312   5.732   5.385  0.3411 -0.1786  0.3775
17692SOL    HW154527   3.337   5.764   5.299 -0.2718  0.5474  0.4527
17692SOL    HW254528   3.305   5.637   5.376 -0.3947 -0.0416 -0.5467
17693SOL     OW54529   4.674   8.959   2.743 -0.0359  0.1119 -0.9549
17693SOL    HW154530   4.586   8.948   2.707  0.4074 -0.3809 -1.9550
17693SOL    HW254531   4.662   8.962   2.838 -0.7654 -4.6352 -0.6466
17694SOL     OW54532   5.684   0.510   1.475 -0.2285  0.0635 -0.0634
17694SOL    HW154533   5.746   0.582   1.471 -1.0309  0.7966  0.4325
17694SOL    HW254534   5.614   0.535   1.415 -0.4128 -0.3963 -0.0454
17695SOL     OW54535   2.942   7.502   2.712 -0.0824 -0.8721  0.1366
17695SOL    HW154536   3.015   7.562   2.698 -0.7656  0.1415  0.8372
17695SOL    HW254537   2.935   7.494   2.807 -1.1274 -0.6529  0.0890
17696SOL     OW54538   2.847   7.055   8.017 -0.3219  0.4218 -0.1310
17696SOL    HW154539   2.783   7.119   8.049 -0.0557  1.1210 -0.9459
17696SOL    HW254540   2.800   6.972   8.015 -1.6696  1.1550 -2.0023
17697SOL     OW54541   1.777   1.796   5.190  0.4725 -0.5584 -0.0732
17697SOL    HW154542   1.683   1.795   5.206  0.5791 -1.7120  0.5206
17697SOL    HW254543   1.786   1.768   5.099  0.2357 -0.1222 -0.2359
17698SOL     OW54544   4.120   7.520   2.861 -0.1629 -0.3741  0.1196
17698SOL    HW154545   4.085   7.445   2.814  1.7233 -1.3808  0.2392
17698SOL    HW254546   4.190   7.553   2.805 -0.1617  0.5430  0.6428
17699SOL     OW54547   2.481   2.031   4.602  0.1344  0.4561 -0.1782
17699SOL    HW154548   2.501   2.022   4.509  0.2478 -1.1548 -0.0317
17699SOL    HW254549   2.532   2.107   4.630  0.2629  0.8351 -1.3819
17700SOL     OW54550   5.763   8.479   5.390 -0.5528 -0.6870 -0.5342
17700SOL    HW154551   5.784   8.389   5.363  1.4398 -0.1007 -1.1250
17700SOL    HW254552   5.759   8.474   5.486 -1.4000 -1.5680 -0.5951
17701SOL     OW54553   8.289   6.948   2.720  0.3139 -0.4914 -0.3956
17701SOL    HW154554   8.320   6.971   2.807  0.0013  1.7533 -0.8350
17701SOL    HW254555   8.362   6.972   2.662  0.2662 -1.3595 -0.8356
17702SOL     OW54556   2.732   1.635   5.007  0.2490  0.2096 -0.8698
17702SOL    HW154557   2.818   1.641   5.049  0.7882 -0.4160 -1.8740
17702SOL    HW254558   2.747   1.587   4.926 -1.4880 -2.2465  0.1282
17703SOL     OW54559   6.404   2.623   5.868 -0.2486 -0.0186  0.6090
17703SOL    HW154560   6.340   2.692   5.848  0.5129  0.8547  1.1033
17703SOL    HW254561   6.366   2.577   5.943 -1.0607 -0.5594 -0.1116
17704SOL     OW54562   1.346   1.860   7.536  0.6331  0.3933 -0.1286
17704SOL    HW154563   1.298   1.882   7.616 -0.4699  0.4392 -0.7886
17704SOL    HW254564   1.371   1.944   7.498  0.8255  0.3760 -0.0472
17705SOL     OW54565   3.653   8.517   8.852 -0.1300 -0.1347 -0.0796
17705SOL    HW154566   3.659   8.473   8.768 -2.6437  0.2059 -0.5278
17705SOL    HW254567   3.667   8.447   8.917  0.6342 -0.6337 -0.7782
17706SOL     OW54568   1.884   1.632   4.244  0.1618 -0.1473 -0.5569
17706SOL    HW154569   1.979   1.645   4.254  0.4815 -2.1101 -0.6178
17706SOL    HW254570   1.858   1.699   4.181  1.5747  0.1973 -0.8243
17707SOL     OW54571   8.271   3.394   0.353 -0.0972 -0.4254  0.2607
17707SOL    HW154572   8.334   3.352   0.294 -0.5002  0.3344 -0.7232
17707SOL    HW254573   8.325   3.423   0.427  0.6655 -0.0958 -0.4037
17708SOL     OW54574   0.862   0.731   3.824 -0.1862  0.4311  0.2136
17708SOL    HW154575   0.951   0.745   3.791  0.2715 -0.2413  1.1223
17708SOL    HW254576   0.858   0.781   3.905  0.1957 -1.4567  1.4543
17709SOL     OW54577   2.033   8.476   3.723 -0.1424 -0.1592  0.0213
17709SOL    HW154578   2.047   8.545   3.788 -2.4115 -0.2239  0.6725
17709SOL    HW254579   1.944   8.490   3.692  0.3097 -1.1696 -1.8679
17710SOL     OW54580   7.198   3.060   5.528 -1.0598  0.4720 -0.3154
17710SOL    HW154581   7.106   3.060   5.554 -0.7292 -0.2220  0.9562
17710SOL    HW254582   7.236   3.137   5.572 -0.7774  0.0426  0.2071
17711SOL     OW54583   6.506   8.001   9.252  0.2145 -0.5389  0.0011
17711SOL    HW154584   6.574   8.057   9.288 -0.5787  0.8627 -0.5970
17711SOL    HW254585   6.439   7.996   9.320  0.0812 -0.3740 -0.1158
17712SOL     OW54586   3.239   6.078   8.888  0.0034  0.1369 -0.2128
17712SOL    HW154587   3.236   6.039   8.801  0.6708 -0.5829  0.0829
17712SOL    HW254588   3.203   6.167   8.875  0.2567  0.1021 -1.2441
17713SOL     OW54589   6.664   1.059   2.874  0.0254  0.3404  0.3412
17713SOL    HW154590   6.689   0.976   2.915  0.7864  0.3476 -0.0790
17713SOL    HW254591   6.711   1.126   2.923 -0.1737  0.4743  0.3504
17714SOL     OW54592   1.741   8.494   3.402 -0.0485 -0.3841  0.3570
17714SOL    HW154593   1.836   8.498   3.386 -0.0237 -1.3175  0.1973
17714SOL    HW254594   1.731   8.511   3.495  0.0299  2.4984 -0.0701
17715SOL     OW54595   9.041   8.033   3.257 -0.4646  0.6883 -0.1214
17715SOL    HW154596   8.988   8.109   3.282  0.3787  0.6033  2.1201
17715SOL    HW254597   9.009   7.961   3.312  0.6418  0.1441 -0.1496
17716SOL     OW54598   3.234   3.510   8.989  0.3609 -0.1675 -0.0192
17716SOL    HW154599   3.320   3.522   8.948 -0.7544  1.9602 -1.9432
17716SOL    HW254600   3.188   3.447   8.933 -0.2820  0.8102 -0.6112
17717SOL     OW54601   3.963   6.232   1.488  0.1289  0.5671 -0.7485
17717SOL    HW154602   3.996   6.318   1.513 -0.1353  0.8144 -1.2267
17717SOL    HW254603   3.900   6.250   1.418 -0.4939  0.0507 -0.3415
17718SOL     OW54604   4.693   8.145   3.509 -0.2957  0.0629 -0.1893
17718SOL    HW154605   4.600   8.147   3.534 -0.2128 -0.3906  0.1535
17718SOL    HW254606   4.718   8.053   3.515 -0.1888 -0.0305 -1.6728
17719SOL     OW54607   7.906   0.352   2.280  0.9174  0.4137 -0.0890
17719SOL    HW154608   7.926   0.382   2.369  1.6102 -0.5854  0.1042
17719SOL    HW254609   7.872   0.263   2.291 -1.8653  1.2920 -0.5887
17720SOL     OW54610   8.019   4.664   1.311  0.4253 -0.3280 -0.3088
17720SOL    HW154611   8.019   4.737   1.249  0.9062  0.0120  0.0810
17720SOL    HW254612   7.938   4.674   1.360  0.9264  0.5032  0.3752
17721SOL     OW54613   1.103   5.097   9.145  0.3222  0.2984  0.7071
17721SOL    HW154614   1.116   5.014   9.100 -2.6632 -0.5112  1.1303
17721SOL    HW254615   1.112   5.163   9.076  1.7019 -0.4160  0.1654
17722SOL     OW54616   5.778   3.618   4.305 -0.3170  0.1679 -0.2362
17722SOL    HW154617   5.821   3.699   4.334 -0.1381  0.2404 -0.6897
17722SOL    HW254618   5.707   3.605   4.367  0.1591  0.2291  0.3311
17723SOL     OW54619   3.341   2.893   5.553  0.8088  0.5684  0.5233
17723SOL    HW154620   3.316   2.811   5.594 -1.2901  0.6602 -0.4079
17723SOL    HW254621   3.430   2.878   5.520  1.9725  0.0127  3.6173
17724SOL     OW54622   1.140   1.231   1.159  0.4967 -0.1651 -0.1666
17724SOL    HW154623   1.222   1.217   1.207  0.1019  0.1818  0.6217
17724SOL    HW254624   1.164   1.290   1.088  0.9808 -0.2500 -0.0761
17725SOL     OW54625   7.798   5.687   4.983 -0.3065 -0.6350 -0.1814
17725SOL    HW154626   7.751   5.769   4.996  1.9197  0.6051  0.7279
17725SOL    HW254627   7.796   5.672   4.889 -0.5835  0.5988 -0.3873
17726SOL     OW54628   0.455   0.203   4.222  0.0240 -0.3200 -0.5024
17726SOL    HW154629   0.428   0.139   4.157  2.3813 -0.2472 -1.6746
17726SOL    HW254630   0.376   0.255   4.240 -1.8746 -3.2105  0.2139
17727SOL     OW54631   3.985   0.187   2.952  0.9787  0.2964 -0.2478
17727SOL    HW154632   3.890   0.191   2.960  0.9123  0.5771 -1.0720
17727SOL    HW254633   4.018   0.246   3.020  0.5767  0.0905  0.1307
17728SOL     OW54634   6.082   8.619   2.049 -0.1229 -0.6756  0.1816
17728SOL    HW154635   6.095   8.709   2.079  0.1210 -0.6723  0.0618
17728SOL    HW254636   5.988   8.603   2.063 -0.8833  0.6561 -2.6885
17729SOL     OW54637   5.183   2.689   1.443 -0.6259 -0.1596 -0.1720
17729SOL    HW154638   5.207   2.769   1.489  2.1594 -0.8839 -0.1790
17729SOL    HW254639   5.199   2.709   1.350 -3.4729  0.3873 -0.6191
17730SOL     OW54640   6.273   7.029   9.044 -0.2884  0.0155  0.6276
17730SOL    HW154641   6.308   7.020   9.132  1.0235 -1.7987 -0.0163
17730SOL    HW254642   6.185   6.992   9.049 -0.6830  1.0102  1.4033
17731SOL     OW54643   6.099   6.342   7.369  0.1640  0.6533  0.1650
17731SOL    HW154644   6.099   6.270   7.432  0.7567  1.2809  0.9128
17731SOL    HW254645   6.176   6.326   7.315  0.4219  0.8289  0.4721
17732SOL     OW54646   4.147   3.260   4.172  0.3584  0.2186  0.2092
17732SOL    HW154647   4.241   3.252   4.153  0.9484  1.6106  2.2265
17732SOL    HW254648   4.110   3.298   4.092  1.8570  1.4276  0.0390
17733SOL     OW54649   3.226   1.615   4.243  0.2342  0.8222 -0.0682
17733SOL    HW154650   3.165   1.556   4.288 -0.4836  1.2892 -0.4095
17733SOL    HW254651   3.289   1.556   4.201 -0.5196  0.2775 -0.4690
17734SOL     OW54652   8.726   2.229   8.807  0.0292  0.2937  0.1457
17734SOL    HW154653   8.790   2.160   8.820  0.1987  0.3598 -0.3251
17734SOL    HW254654   8.709   2.263   8.895 -0.0934 -0.3747  0.3836
17735SOL     OW54655   1.425   0.565   6.218  0.3483 -0.1413  0.0644
17735SOL    HW154656   1.389   0.597   6.136 -1.2868 -1.0214  0.3937
17735SOL    HW254657   1.516   0.597   6.219 -0.7052  3.1933 -0.2406
17736SOL     OW54658   5.584   1.210   6.734  0.2881 -0.4439 -0.2660
17736SOL    HW154659   5.636   1.244   6.807  1.3659 -1.0996 -0.7102
17736SOL    HW254660   5.607   1.265   6.660 -1.6005  0.9025  0.0858
17737SOL     OW54661   0.596   5.474   1.736 -0.1960  0.2337 -0.0212
17737SOL    HW154662   0.612   5.382   1.716 -0.4204  0.3383 -0.6966
17737SOL    HW254663   0.538   5.504   1.667 -2.0300  0.2936  1.4680
17738SOL     OW54664   7.383   8.656   0.135 -0.1283  0.4274 -0.0118
17738SOL    HW154665   7.473   8.688   0.149 -0.6022  0.7773  2.9881
17738SOL    HW254666   7.377   8.578   0.191 -1.1762 -0.7131 -1.6421
17739SOL     OW54667   1.567   8.642   4.855  0.0308 -0.7998 -0.4503
17739SOL    HW154668   1.526   8.729   4.848  0.0211 -0.7369  0.3124
17739SOL    HW254669   1.548   8.614   4.945  2.2314 -0.4579  0.1936
17740SOL     OW54670   5.089   6.696   5.766 -0.4097 -0.4105 -0.2780
17740SOL    HW154671   5.128   6.719   5.682  0.2944  0.5145  0.2776
17740SOL    HW254672   5.091   6.777   5.817 -0.1083 -1.1207  0.9017
17741SOL     OW54673   4.780   8.061   2.852  0.1558  1.1092  0.0095
17741SOL    HW154674   4.801   8.064   2.946  0.2757 -0.6464  0.0699
17741SOL    HW254675   4.734   8.143   2.836  0.9585  1.8893  1.3945
17742SOL     OW54676   2.690   4.122   1.459 -0.1368  0.0687  0.1489
17742SOL    HW154677   2.626   4.140   1.527  0.2641 -0.7314  0.7516
17742SOL    HW254678   2.732   4.041   1.486  1.6687  0.9605  0.1968
17743SOL     OW54679   0.102   2.046   6.471 -0.2263  0.0287 -0.4739
17743SOL    HW154680   0.066   2.025   6.385  1.3011 -0.3955 -1.0410
17743SOL    HW254681   0.197   2.044   6.459  0.0391 -0.4870  1.3372
17744SOL     OW54682   7.104   7.881   0.747  0.3238 -0.0715  0.0583
17744SOL    HW154683   7.146   7.805   0.707 -1.8718 -0.4031 -1.7885
17744SOL    HW254684   7.026   7.845   0.790 -0.0143  0.9604  0.3411
17745SOL     OW54685   3.747   4.100   2.512  0.6142 -0.4730 -0.2689
17745SOL    HW154686   3.718   4.009   2.501  0.2598 -0.2859 -0.9346
17745SOL    HW254687   3.666   4.149   2.524  0.8894 -0.4816  2.1044
17746SOL     OW54688   8.201   2.035   6.484 -0.6164  0.0909 -0.1342
17746SOL    HW154689   8.120   2.014   6.436 -0.9806  0.3947  0.3386
17746SOL    HW254690   8.269   1.988   6.436 -1.1494 -0.6417 -0.2010
17747SOL     OW54691   7.788   3.640   6.484  0.0635 -0.1236  0.3290
17747SOL    HW154692   7.716   3.604   6.537 -0.3197 -1.1200 -0.8305
17747SOL    HW254693   7.758   3.728   6.461 -0.9583 -0.6454 -0.4167
17748SOL     OW54694   4.642   2.846   4.745  0.0716  0.4109 -0.3417
17748SOL    HW154695   4.687   2.924   4.712  0.8448 -0.0624 -0.4328
17748SOL    HW254696   4.705   2.806   4.806 -0.9440  0.7210  0.9559
17749SOL     OW54697   5.755   0.924   1.218  0.0389  0.2885 -0.1156
17749SOL    HW154698   5.799   0.952   1.298  3.5371 -0.5140 -1.5790
17749SOL    HW254699   5.825   0.889   1.163 -2.6656 -2.2865 -2.2529
17750SOL     OW54700   3.069   1.855   4.923  0.1663  0.1323  0.6244
17750SOL    HW154701   3.129   1.834   4.851 -0.3366 -0.6774  0.4246
17750SOL    HW254702   3.036   1.770   4.952  0.7506  0.4038  2.1701
17751SOL     OW54703   8.351   7.438   3.728 -0.1807  0.0894  0.1881
17751SOL    HW154704   8.372   7.457   3.819  2.7318 -1.8755  0.0741
17751SOL    HW254705   8.392   7.509   3.679 -1.3780  0.9146  0.3509
17752SOL     OW54706   3.838   0.271   3.631 -0.4266  0.2649  0.9242
17752SOL    HW154707   3.843   0.192   3.685 -1.8880 -2.1250 -2.1139
17752SOL    HW254708   3.746   0.296   3.633 -0.4277  0.3902 -0.0512
17753SOL     OW54709   8.448   3.317   6.592  0.2281  0.4265  0.0157
17753SOL    HW154710   8.483   3.392   6.545 -0.7959  0.8466 -0.1125
17753SOL    HW254711   8.388   3.275   6.530 -0.2347  0.3044  0.5337
17754SOL     OW54712   2.145   8.085   7.254  0.4884  0.7751  0.0714
17754SOL    HW154713   2.172   8.144   7.183 -1.5270  0.6724 -0.8463
17754SOL    HW254714   2.171   7.998   7.224 -0.8088  0.6692 -0.8397
17755SOL     OW54715   1.434   7.841   3.981  0.2278  0.0636 -0.2239
17755SOL    HW154716   1.441   7.793   4.063 -0.2076  1.2257  0.5242
17755SOL    HW254717   1.340   7.858   3.971  0.2979  0.1137 -0.8563
17756SOL     OW54718   2.867   5.600   2.036  0.4008 -0.3836  0.0273
17756SOL    HW154719   2.857   5.576   1.944 -0.4249 -3.1896  0.7310
17756SOL    HW254720   2.819   5.532   2.083 -0.1401  1.5685  2.5189
17757SOL     OW54721   6.837   5.182   2.882  0.2126  0.3120  0.6228
17757SOL    HW154722   6.866   5.105   2.931  0.0104  0.1304  0.4629
17757SOL    HW254723   6.806   5.146   2.798  1.5629  0.7210 -0.0898
17758SOL     OW54724   2.040   6.323   6.955  0.1116 -0.3132  0.0228
17758SOL    HW154725   1.969   6.370   6.998  0.4609 -0.5403  0.8663
17758SOL    HW254726   2.042   6.238   6.998  2.7991  0.6912  2.1349
17759SOL     OW54727   3.603   8.852   3.637  0.0824  0.1419  0.0682
17759SOL    HW154728   3.554   8.771   3.653 -0.7749  0.6996  0.2902
17759SOL    HW254729   3.606   8.895   3.722  1.2480 -0.0271  0.1339
17760SOL     OW54730   6.719   6.977   5.219  0.1694  0.1572  0.3670
17760SOL    HW154731   6.700   7.050   5.160 -1.1452 -0.1541  0.3621
17760SOL    HW254732   6.731   6.902   5.161 -2.1063 -0.3574  0.4698
17761SOL     OW54733   4.442   9.262   8.398  0.3991  0.2688 -0.3381
17761SOL    HW154734   4.465   9.248   8.306 -0.0870 -0.0739 -0.4136
17761SOL    HW254735   4.433   9.173   8.434  0.1403  0.4026 -0.0745
17762SOL     OW54736   4.701   6.802   1.739  0.9969  0.2224 -0.7316
17762SOL    HW154737   4.665   6.724   1.697  2.6712 -0.7524 -0.4437
17762SOL    HW254738   4.641   6.873   1.714 -1.9108 -1.5042  0.8894
17763SOL     OW54739   1.537   8.893   8.198  0.4033  0.2383  0.1804
17763SOL    HW154740   1.457   8.847   8.175  0.7755 -0.5839  0.4874
17763SOL    HW254741   1.583   8.904   8.114  1.7552 -2.7502  0.3975
17764SOL     OW54742   4.789   7.470   5.715 -0.3256  1.0313 -0.0310
17764SOL    HW154743   4.705   7.456   5.759 -0.7186  1.2689 -0.6917
17764SOL    HW254744   4.766   7.480   5.622  0.4624  0.7905 -0.2598
17765SOL     OW54745   8.581   0.013   0.760  0.8927  0.2377 -0.1280
17765SOL    HW154746   8.555  -0.011   0.671  2.5221 -1.8850 -0.1146
17765SOL    HW254747   8.631  -0.062   0.791  0.4884  0.9841  2.5594
17766SOL     OW54748   2.225   7.846   7.125  0.1786  0.0520 -0.5825
17766SOL    HW154749   2.190   7.811   7.043 -1.1038 -0.2820  0.0681
17766SOL    HW254750   2.305   7.797   7.140  1.3489  1.2554 -2.4407
17767SOL     OW54751   7.841   3.482   7.962  0.0329  0.7890 -0.6570
17767SOL    HW154752   7.900   3.552   7.987 -0.4415  1.0434 -0.2328
17767SOL    HW254753   7.768   3.489   8.024  0.0125 -0.1173 -0.5716
17768SOL     OW54754   7.822   3.933   6.911  0.0722  0.1772  0.0667
17768SOL    HW154755   7.869   3.891   6.840 -0.1338 -0.6148  0.3926
17768SOL    HW254756   7.771   4.003   6.869 -0.4332 -0.5975 -0.6244
17769SOL     OW54757   0.628   0.693   7.576  0.3829 -0.3403 -0.1044
17769SOL    HW154758   0.596   0.759   7.514  0.6501  0.0688  0.1884
17769SOL    HW254759   0.551   0.643   7.600  0.3845 -0.9560 -1.3001
17770SOL     OW54760   3.797   0.952   8.928  0.0258  0.2993 -0.0279
17770SOL    HW154761   3.853   0.995   8.992  2.0207 -2.4442  0.2585
17770SOL    HW254762   3.752   0.884   8.977  1.0194 -1.3692 -1.3281
17771SOL     OW54763   1.553   0.577   8.762 -0.0919  0.1109 -0.2531
17771SOL    HW154764   1.628   0.630   8.791 -0.1786 -0.7454  1.7591
17771SOL    HW254765   1.491   0.582   8.835 -1.8904  0.5287 -1.7322
17772SOL     OW54766   3.222   2.944   1.754 -0.0861 -0.0201 -0.0862
17772SOL    HW154767   3.298   2.902   1.713 -0.9175 -2.5840  0.8468
17772SOL    HW254768   3.214   3.028   1.708  2.7199 -0.0660 -0.8338
17773SOL     OW54769   3.068   8.209   2.368  0.6130 -0.9341 -0.5071
17773SOL    HW154770   3.093   8.172   2.453  0.6974 -0.9661 -0.5455
17773SOL    HW254771   2.985   8.166   2.346  0.1961 -0.3590 -0.0764
17774SOL     OW54772   8.581   6.775   3.118  0.5692 -0.3979  0.2915
17774SOL    HW154773   8.667   6.733   3.106 -0.3261 -2.8184  1.6126
17774SOL    HW254774   8.567   6.773   3.212 -1.5308 -1.4228  0.0141
17775SOL     OW54775   7.522   6.223   4.529 -0.1272 -0.1234  0.1091
17775SOL    HW154776   7.536   6.132   4.556  0.9594 -0.3437 -1.0607
17775SOL    HW254777   7.433   6.225   4.496 -1.2549 -0.0008  2.8879
17776SOL     OW54778   5.808   2.884   3.313  0.2161  0.1971  0.0759
17776SOL    HW154779   5.750   2.950   3.351  0.7720  1.4344 -1.1219
17776SOL    HW254780   5.836   2.831   3.387  0.0582  1.5610  1.1465
17777SOL     OW54781   3.235   4.590   7.305 -0.1870 -0.4612  0.0111
17777SOL    HW154782   3.277   4.529   7.364  1.2945  0.0792 -0.4422
17777SOL    HW254783   3.195   4.535   7.238  2.1011 -0.9554 -1.0375
17778SOL     OW54784   9.178   5.849   7.899  0.0333 -0.4210  0.1116
17778SOL    HW154785   9.248   5.817   7.841  1.7176  3.8014 -0.5635
17778SOL    HW254786   9.192   5.802   7.981  2.5877 -0.9824 -0.5418
17779SOL     OW54787   2.469   2.431   7.162 -0.3237 -0.4250  0.2277
17779SOL    HW154788   2.378   2.457   7.147 -0.5473 -0.1479  1.9077
17779SOL    HW254789   2.518   2.472   7.090 -1.6374 -1.4910 -1.3589
17780SOL     OW54790   4.881   9.257   3.590  0.3517 -0.0582 -0.4596
17780SOL    HW154791   4.795   9.298   3.575  0.5106 -0.4552 -2.7608
17780SOL    HW254792   4.934   9.327   3.628 -0.5190  0.6956 -0.5901
17781SOL     OW54793   2.400   3.231   9.262 -0.2901  0.4831 -0.4304
17781SOL    HW154794   2.320   3.187   9.291  0.3371 -0.9520 -0.8131
17781SOL    HW254795   2.465   3.162   9.256  1.0154  1.6364 -0.0846
17782SOL     OW54796   0.152   0.222   0.005  0.0816 -0.0381 -0.6097
17782SOL    HW154797   0.190   0.216  -0.082  0.1185  0.3884 -0.6235
17782SOL    HW254798   0.183   0.306   0.039 -0.5290  0.1324 -0.4666
17783SOL     OW54799   7.372   1.228   1.154  0.6267 -1.0139  0.4559
17783SOL    HW154800   7.439   1.293   1.132  0.4037 -1.1963 -0.8151
17783SOL    HW254801   7.390   1.206   1.246  0.0998  1.5309  1.2602
17784SOL     OW54802   2.312   3.359   8.364 -0.2320  0.5295  0.6159
17784SOL    HW154803   2.242   3.425   8.364 -2.0226 -1.1753 -1.5937
17784SOL    HW254804   2.333   3.346   8.457 -0.5445  3.3567  1.1793
17785SOL     OW54805   2.390   8.583   8.663  0.4227 -0.0852 -0.1041
17785SOL    HW154806   2.322   8.532   8.707 -1.2191 -1.2921 -3.6755
17785SOL    HW254807   2.379   8.672   8.697 -0.0312 -1.0421  2.5144
17786SOL     OW54808   5.585   6.169   6.735  0.1242 -0.3731 -0.3440
17786SOL    HW154809   5.597   6.095   6.675  0.6895 -1.2291  0.7940
17786SOL    HW254810   5.490   6.186   6.732  0.2868  0.5551 -2.5380
17787SOL     OW54811   1.702   0.390   4.391  0.2732  0.1430  0.0534
17787SOL    HW154812   1.672   0.444   4.318  0.3847 -0.4184 -0.4079
17787SOL    HW254813   1.656   0.425   4.467  1.3281  1.7616  0.0050
17788SOL     OW54814   8.887   3.063   2.635 -0.5122  0.3156 -0.0628
17788SOL    HW154815   8.809   3.007   2.638 -0.6455  0.4989 -0.1185
17788SOL    HW254816   8.926   3.045   2.549 -0.6479  0.4335 -0.1493
17789SOL     OW54817   1.808   0.853   4.975  0.0780  0.2842  0.7049
17789SOL    HW154818   1.747   0.881   5.043 -0.3724  1.3318 -0.1003
17789SOL    HW254819   1.814   0.928   4.915  0.5639 -0.5532 -0.3413
17790SOL     OW54820   8.779   0.425   6.139 -0.3087 -1.1682 -0.4939
17790SOL    HW154821   8.700   0.468   6.109  0.0718 -1.2357 -1.6654
17790SOL    HW254822   8.774   0.337   6.102  0.8539 -0.8016 -1.6064
17791SOL     OW54823   9.050   7.756   8.897 -0.0849  0.2279 -0.3350
17791SOL    HW154824   9.002   7.772   8.978 -0.2018  0.5971 -0.4737
17791SOL    HW254825   9.041   7.837   8.848  0.9260  0.4226 -0.2388
17792SOL     OW54826   1.843   3.872   4.715 -0.3957 -0.0939  0.3536
17792SOL    HW154827   1.790   3.901   4.789  0.7320 -0.8914  1.5228
17792SOL    HW254828   1.781   3.862   4.643 -1.4288  1.3303  0.9901
17793SOL     OW54829   3.991   8.753   4.561  0.2944 -0.5128  0.4313
17793SOL    HW154830   3.910   8.790   4.526  1.6296  2.2723 -0.0464
17793SOL    HW254831   4.054   8.826   4.557  2.4563 -2.1525  2.0456
17794SOL     OW54832   1.629   0.338   0.631 -0.0553  0.2528 -0.1135
17794SOL    HW154833   1.570   0.275   0.671  0.0350 -0.1691 -0.6337
17794SOL    HW254834   1.696   0.284   0.589  1.1311  0.7295  1.1031
17795SOL     OW54835   4.133   5.476   2.226 -0.8885 -0.2393 -0.1994
17795SOL    HW154836   4.143   5.542   2.157  2.3771 -2.4000 -2.0578
17795SOL    HW254837   4.044   5.489   2.259 -1.8739  2.2858 -3.3415
17796SOL     OW54838   6.925   1.783   0.744 -0.0254 -0.0229 -0.4324
17796SOL    HW154839   6.966   1.768   0.659  2.1741  2.2227  0.1357
17796SOL    HW254840   6.919   1.878   0.751  0.3940 -0.1324  2.1394
17797SOL     OW54841   7.416   7.247   0.072  0.7317  0.1359 -0.5937
17797SOL    HW154842   7.444   7.157   0.092  1.2508  0.8604  2.2946
17797SOL    HW254843   7.404   7.247  -0.023  0.0364 -3.1629 -0.6240
17798SOL     OW54844   8.341   3.998   5.129  0.0789  0.0315 -0.0295
17798SOL    HW154845   8.259   4.016   5.176  0.3236 -0.4927  0.6171
17798SOL    HW254846   8.388   3.937   5.186  0.7283 -0.0120 -0.6031
17799SOL     OW54847   1.434   0.165   1.401  0.1148  0.4212  0.6820
17799SOL    HW154848   1.392   0.203   1.323 -2.4978  0.5936  2.0688
17799SOL    HW254849   1.528   0.174   1.383 -0.3588  0.7294 -2.2947
17800SOL     OW54850   8.580   5.409   7.384  0.2883 -0.6464  1.0625
17800SOL    HW154851   8.489   5.408   7.354 -0.8667  1.1327  4.1037
17800SOL    HW254852   8.599   5.317   7.405 -0.9073 -1.0011  0.6772
17801SOL     OW54853   1.396   7.116   8.073  0.1312 -0.2659  1.0183
17801SOL    HW154854   1.383   7.209   8.053  0.1484  0.1977  2.9223
17801SOL    HW254855   1.452   7.116   8.151  2.2991 -1.9620 -0.3810
17802SOL     OW54856   1.826   1.398   2.520  0.4710 -0.7384  0.3851
17802SOL    HW154857   1.774   1.320   2.503 -0.2895 -0.1872  0.1410
17802SOL    HW254858   1.867   1.381   2.604 -1.5284 -0.4440  1.4686
17803SOL     OW54859   8.840   0.987   8.939 -0.4317  0.2613 -0.1850
17803SOL    HW154860   8.869   0.959   8.852  0.7371  0.9580 -0.0583
17803SOL    HW254861   8.852   1.082   8.938 -2.7725  0.5997 -0.0849
17804SOL     OW54862   7.997   1.861   3.732  0.0677 -0.6346 -0.0137
17804SOL    HW154863   8.023   1.893   3.819 -0.0887  0.6357 -0.4029
17804SOL    HW254864   8.003   1.939   3.676 -1.3511 -1.0643 -0.8067
17805SOL     OW54865   6.215   0.781   3.509 -0.3233 -0.8364  0.3116
17805SOL    HW154866   6.126   0.783   3.545 -1.3388  1.0794 -2.0058
17805SOL    HW254867   6.231   0.688   3.492 -1.3852 -1.3382  1.8775
17806SOL     OW54868   1.487   1.282   3.666  0.3397  0.3266 -0.4802
17806SOL    HW154869   1.523   1.361   3.706 -0.6371 -0.1283  1.4168
17806SOL    HW254870   1.492   1.215   3.735  0.1122 -0.9607 -1.6707
17807SOL     OW54871   1.577   0.047   1.081 -0.0609  0.1464  0.6604
17807SOL    HW154872   1.645  -0.020   1.089 -0.9869 -0.7250  1.5692
17807SOL    HW254873   1.604   0.115   1.143  0.1465 -0.0471  0.7854
17808SOL     OW54874   2.585   6.361   3.050  0.1655  0.7591  0.0840
17808SOL    HW154875   2.659   6.300   3.049 -0.6904 -0.3917  1.8698
17808SOL    HW254876   2.510   6.309   3.021 -0.4693  1.0855  1.0872
17809SOL     OW54877   4.684   7.736   4.018 -0.3597  0.2578  0.8193
17809SOL    HW154878   4.646   7.651   4.041  0.6791 -0.7117 -0.8072
17809SOL    HW254879   4.750   7.751   4.086  0.4827 -1.0138  0.3360
17810SOL     OW54880   1.187   1.338   6.749 -0.1529 -0.0167 -0.4533
17810SOL    HW154881   1.147   1.422   6.769 -2.1240 -0.8885 -0.5862
17810SOL    HW254882   1.274   1.343   6.791 -0.2278  2.0341 -0.4378
17811SOL     OW54883   6.737   0.395   4.115  0.1855 -0.0988 -0.0367
17811SOL    HW154884   6.832   0.388   4.104  0.0381  0.3241 -2.1197
17811SOL    HW254885   6.722   0.487   4.139  0.3974 -0.6107  2.2116
17812SOL     OW54886   7.104   4.027   3.831 -0.3199  0.9128  1.0015
17812SOL    HW154887   7.139   4.116   3.831 -0.9235  1.1557  1.4574
17812SOL    HW254888   7.023   4.033   3.781 -0.4311  0.6442  1.1451
17813SOL     OW54889   4.505   9.083   7.842 -0.1236  0.4943 -0.2602
17813SOL    HW154890   4.472   9.003   7.802  0.1801 -0.3423  1.0956
17813SOL    HW254891   4.597   9.087   7.815  0.0141  0.0704  0.1358
17814SOL     OW54892   2.112   0.934   1.154  0.2648  0.6673  0.3552
17814SOL    HW154893   2.194   0.957   1.112 -1.1238  2.8782 -1.3859
17814SOL    HW254894   2.100   0.841   1.135  2.8295 -0.0419  1.6793
17815SOL     OW54895   8.425   2.655   4.453  0.2746  0.6326 -0.1304
17815SOL    HW154896   8.450   2.574   4.409  1.9992 -0.0640  1.9223
17815SOL    HW254897   8.472   2.724   4.406 -0.3253  0.3378 -1.2017
17816SOL     OW54898   1.322   6.638   2.635  0.1026  0.5054 -0.0009
17816SOL    HW154899   1.367   6.553   2.637 -0.0692  0.3356 -1.6612
17816SOL    HW254900   1.266   6.633   2.558 -1.5114  1.3570  1.0739
17817SOL     OW54901   5.742   4.851   3.391  0.1071  0.3298 -0.0170
17817SOL    HW154902   5.728   4.941   3.362  0.8913  0.8067  0.9993
17817SOL    HW254903   5.740   4.857   3.487  1.8953 -0.4318  0.0933
17818SOL     OW54904   3.507   4.095   8.916  0.3218  0.0050  0.2867
17818SOL    HW154905   3.553   4.171   8.952  1.8423 -0.6494 -0.1938
17818SOL    HW254906   3.576   4.031   8.901 -0.8649 -1.2790  0.1694
17819SOL     OW54907   8.255   1.684   8.192  0.0247  0.1236  0.4023
17819SOL    HW154908   8.237   1.614   8.129 -0.2456 -0.1716  0.8001
17819SOL    HW254909   8.285   1.638   8.271 -1.3507  0.3533  1.0890
17820SOL     OW54910   4.913   9.089   0.074 -0.2833  0.4101  0.1000
17820SOL    HW154911   4.969   9.057   0.145 -0.1017  0.6574  0.0724
17820SOL    HW254912   4.895   9.011   0.021  1.1811  0.5362 -0.6677
17821SOL     OW54913   6.535   4.379   3.506  0.4273  0.3686  0.4183
17821SOL    HW154914   6.538   4.292   3.466  0.3952  0.5377  0.0465
17821SOL    HW254915   6.575   4.436   3.440  2.1809  0.3492  1.3991
17822SOL     OW54916   6.377   0.030   6.143  0.1591 -0.5953  0.3097
17822SOL    HW154917   6.453  -0.025   6.126 -1.2985 -2.0041 -2.2519
17822SOL    HW254918   6.329   0.031   6.061 -1.6494  1.8151  1.2634
17823SOL     OW54919   3.623   1.121   4.187 -0.1014 -0.5651  0.0786
17823SOL    HW154920   3.649   1.086   4.102  1.6391 -0.4105  0.5148
17823SOL    HW254921   3.639   1.215   4.180  0.1140 -0.5600  0.5849
17824SOL     OW54922   1.312   3.972   3.951 -0.3892 -0.3171  0.2115
17824SOL    HW154923   1.324   3.934   3.864 -0.3452 -0.7291  0.3964
17824SOL    HW254924   1.386   4.031   3.962 -1.2155  0.9389 -0.6582
17825SOL     OW54925   0.170   6.610   4.248 -0.9068 -0.3115 -0.3049
17825SOL    HW154926   0.209   6.536   4.296 -0.0072  0.0396 -0.4630
17825SOL    HW254927   0.158   6.576   4.159  0.3783 -0.0109 -0.6219
17826SOL     OW54928   6.903   3.972   8.876  0.5377 -0.6829 -0.0122
17826SOL    HW154929   6.950   3.891   8.860  0.2621 -0.5797 -1.5090
17826SOL    HW254930   6.811   3.946   8.879  0.5959 -0.8757  2.8309
17827SOL     OW54931   4.575   8.970   8.239 -0.0058  0.1192 -0.2270
17827SOL    HW154932   4.524   8.897   8.203 -0.5387  1.0047 -1.3211
17827SOL    HW254933   4.530   8.991   8.321 -1.6568  1.0853 -1.3197
17828SOL     OW54934   3.198   0.108   1.639 -0.5698  0.3446  0.1682
17828SOL    HW154935   3.136   0.067   1.699  0.3657 -1.0384  0.2461
17828SOL    HW254936   3.157   0.098   1.553 -0.4159 -0.6676  0.2022
17829SOL     OW54937   3.240   3.147   6.675 -0.1569  0.7793 -0.2999
17829SOL    HW154938   3.299   3.217   6.701  1.2817 -0.9504  1.4073
17829SOL    HW254939   3.296   3.084   6.629 -0.5936 -0.9005  1.3356
17830SOL     OW54940   1.522   6.504   7.012  0.1436 -0.0584  0.1727
17830SOL    HW154941   1.433   6.473   6.993 -1.0266  2.2588  1.3342
17830SOL    HW254942   1.538   6.572   6.946 -0.0375  1.3006  1.4640
17831SOL     OW54943   3.781   1.409   7.166 -0.6822  0.5594  0.3383
17831SOL    HW154944   3.743   1.420   7.078  1.4220  2.4633 -0.4314
17831SOL    HW254945   3.875   1.400   7.151 -0.4031 -0.4684  2.3601
17832SOL     OW54946   3.945   1.167   7.586  0.0358 -0.2022 -0.1555
17832SOL    HW154947   3.965   1.076   7.565 -0.9255 -0.4753  0.0766
17832SOL    HW254948   3.879   1.193   7.521 -0.2842  0.0802  0.2763
17833SOL     OW54949   3.153   7.857   2.662 -0.1944 -0.5776  0.1580
17833SOL    HW154950   3.200   7.897   2.588  0.1048 -0.8370  0.2031
17833SOL    HW254951   3.139   7.930   2.723 -0.9069 -0.2550 -0.3817
17834SOL     OW54952   8.970   3.530   7.838 -0.1679 -0.0732  0.5832
17834SOL    HW154953   8.990   3.437   7.852 -0.5312 -0.3900 -0.8663
17834SOL    HW254954   8.962   3.539   7.743 -0.9306  1.2876  0.7497
17835SOL     OW54955   9.019   5.932   7.548 -0.3232 -0.3008 -0.5045
17835SOL    HW154956   8.992   5.853   7.500  1.6511 -1.2225 -0.2279
17835SOL    HW254957   9.042   5.900   7.635  0.0062  0.6667 -0.2274
17836SOL     OW54958   2.929   3.506   0.073 -0.5650  0.0167 -0.0498
17836SOL    HW154959   2.972   3.434   0.119 -0.0867 -0.0711 -0.6240
17836SOL    HW254960   2.998   3.546   0.019 -0.7880  0.9894  0.3551
17837SOL     OW54961   6.440   3.051   9.275 -0.5167 -0.3316  0.4004
17837SOL    HW154962   6.402   3.122   9.222 -3.7311 -2.4410 -0.3974
17837SOL    HW254963   6.408   3.068   9.363  0.7967  0.5153  0.7365
17838SOL     OW54964   0.609   3.489   6.593  0.2949 -0.0443 -0.1379
17838SOL    HW154965   0.619   3.530   6.508  0.1819 -1.0506 -0.6585
17838SOL    HW254966   0.697   3.494   6.632  0.4046  0.2105 -0.4141
17839SOL     OW54967   6.107   6.718   2.496  0.1056  0.0873  0.5145
17839SOL    HW154968   6.136   6.633   2.529 -0.4519 -0.6547 -0.8302
17839SOL    HW254969   6.036   6.744   2.554  1.0857  0.2349  1.6789
17840SOL     OW54970   0.727   5.599   6.432  0.5855  0.0023 -0.6393
17840SOL    HW154971   0.680   5.566   6.355 -0.6805  0.4810 -0.0980
17840SOL    HW254972   0.673   5.672   6.463  2.1665  1.1611 -0.5020
17841SOL     OW54973   5.454   2.341   7.134  0.1730  0.1237 -0.0410
17841SOL    HW154974   5.469   2.427   7.093  0.0457  0.0157 -0.3215
17841SOL    HW254975   5.533   2.291   7.115  0.2287  0.1644  0.0840
17842SOL     OW54976   4.685   4.737   5.025  0.3489  0.0600 -0.1599
17842SOL    HW154977   4.745   4.721   4.952  1.9849  0.6267  1.0118
17842SOL    HW254978   4.727   4.695   5.100  0.0057  1.6714  0.9817
17843SOL     OW54979   4.445   7.614   8.533 -0.5110 -0.0953 -0.0284
17843SOL    HW154980   4.361   7.588   8.495 -0.6967 -0.6462  0.7440
17843SOL    HW254981   4.462   7.700   8.495 -0.9631 -0.3798 -0.9172
17844SOL     OW54982   7.426   0.699   5.035  0.0141  0.0001 -0.1952
17844SOL    HW154983   7.331   0.693   5.026  0.1854 -0.3877 -2.2760
17844SOL    HW254984   7.443   0.792   5.048 -0.5787  0.2272 -1.0061
17845SOL     OW54985   2.882   5.808   8.740  0.0826 -0.0009  0.0152
17845SOL    HW154986   2.861   5.833   8.650 -1.1830  0.0149  0.2879
17845SOL    HW254987   2.924   5.885   8.777 -0.2335  0.3330 -0.3024
17846SOL     OW54988   0.006   7.364   2.391 -0.1569  0.2659 -0.1134
17846SOL    HW154989  -0.036   7.324   2.467 -1.4424  0.1634 -0.8549
17846SOL    HW254990  -0.054   7.347   2.318  0.5662  1.2225 -0.9648
17847SOL     OW54991   4.435   2.436   4.701  0.4137 -0.7334  0.2457
17847SOL    HW154992   4.342   2.422   4.722  0.3787 -0.7144  0.1034
17847SOL    HW254993   4.439   2.528   4.674  1.1227  0.5271  3.9728
17848SOL     OW54994   0.025   8.108   2.082 -0.1440  0.0701 -0.2177
17848SOL    HW154995   0.072   8.170   2.027 -0.3882  0.1367 -0.3550
17848SOL    HW254996  -0.016   8.047   2.020  0.7298 -0.6986 -0.0624
17849SOL     OW54997   8.302   8.512   7.820 -0.0266  0.3698  0.0444
17849SOL    HW154998   8.386   8.554   7.801  0.8454 -0.8924  0.9998
17849SOL    HW254999   8.323   8.440   7.879 -1.5788 -0.9636 -0.9437
17850SOL     OW55000   4.481   0.380   8.052  0.1549  0.1068 -0.4999
17850SOL    HW155001   4.532   0.461   8.050 -0.2940  0.3922 -0.7614
17850SOL    HW255002   4.410   0.395   7.990 -1.1046  0.3107  0.9226
17851SOL     OW55003   6.100   3.547   6.110  0.1995  0.3203 -0.0863
17851SOL    HW155004   6.121   3.562   6.202  0.9197  2.5271 -0.5572
17851SOL    HW255005   6.054   3.463   6.110  1.8719 -0.7033  2.0159
17852SOL     OW55006   8.590   2.943   5.574 -0.2063  0.0223  0.1224
17852SOL    HW155007   8.518   2.905   5.523  0.0939  0.5689 -0.7392
17852SOL    HW255008   8.636   2.868   5.611 -0.8368 -0.3590  0.1381
17853SOL     OW55009   2.221   0.061   5.813 -0.0277 -0.6434 -0.2334
17853SOL    HW155010   2.153   0.000   5.785  1.0712 -1.8219 -0.4597
17853SOL    HW255011   2.291   0.050   5.749  1.7073 -1.8848  1.7025
17854SOL     OW55012   2.591   6.413   7.879  0.3260 -0.4387  0.1930
17854SOL    HW155013   2.554   6.421   7.791  0.9831  1.0143  0.0299
17854SOL    HW255014   2.661   6.348   7.870  0.1493 -0.5691 -0.2604
17855SOL     OW55015   5.281   1.789   7.792 -0.7324 -0.4485 -0.2402
17855SOL    HW155016   5.219   1.723   7.824 -1.2520  0.5332  0.8354
17855SOL    HW255017   5.360   1.775   7.844 -0.9077 -0.1180  0.1225
17856SOL     OW55018   1.668   1.932   7.563 -0.4980 -0.1509 -0.3904
17856SOL    HW155019   1.686   2.002   7.625 -2.6089 -0.2233  0.4020
17856SOL    HW255020   1.690   1.969   7.478  0.5510  0.6548  0.2082
17857SOL     OW55021   4.550   1.727   6.059  0.2179 -0.6206  0.1698
17857SOL    HW155022   4.645   1.720   6.053  0.2079  0.1150 -1.0075
17857SOL    HW255023   4.519   1.636   6.053  0.7936 -0.7709 -0.6721
17858SOL     OW55024   3.227   7.939   8.105 -0.2344 -0.3908 -0.4996
17858SOL    HW155025   3.258   7.869   8.047 -0.3105 -2.2199  1.5091
17858SOL    HW255026   3.132   7.930   8.105 -0.4338  1.2222 -1.9201
17859SOL     OW55027   1.132   4.939   3.026  0.4963 -0.3156  0.0193
17859SOL    HW155028   1.068   4.965   2.960  0.6753  2.0830  0.6756
17859SOL    HW255029   1.093   4.968   3.109  1.3669 -1.0186  0.6924
17860SOL     OW55030   2.477   1.768   8.788 -0.0470 -0.3321  0.2280
17860SOL    HW155031   2.518   1.736   8.708  0.5692 -0.1435  0.4647
17860SOL    HW255032   2.497   1.701   8.854  2.2282  1.0026  1.0130
17861SOL     OW55033   3.183   7.167   0.104  0.2282  0.3777  0.0710
17861SOL    HW155034   3.257   7.135   0.156  1.6200  0.0388 -2.0273
17861SOL    HW255035   3.127   7.211   0.168  1.0642 -1.3355  2.1152
17862SOL     OW55036   7.040   5.947   0.728 -0.4791  0.6233  0.0418
17862SOL    HW155037   7.017   5.854   0.730 -1.5150  0.7586 -2.2926
17862SOL    HW255038   7.121   5.953   0.779  0.7577 -1.9102 -1.4469
17863SOL     OW55039   7.558   1.852   7.022  0.0465 -0.2997  0.6809
17863SOL    HW155040   7.510   1.921   6.976 -0.0009  0.0952  1.3034
17863SOL    HW255041   7.491   1.805   7.072  0.1764 -0.3465  0.8132
17864SOL     OW55042   8.774   7.902   5.063  0.6092  0.3974 -0.6572
17864SOL    HW155043   8.810   7.891   4.975  2.3660  0.3445  0.0236
17864SOL    HW255044   8.682   7.877   5.055  1.1716 -1.4082 -2.0818
17865SOL     OW55045   8.892   7.111   8.214 -0.0038  0.3351 -0.3475
17865SOL    HW155046   8.943   7.093   8.136  1.1879  1.9686  0.0120
17865SOL    HW255047   8.818   7.163   8.184  0.6460  1.2666 -0.3560
17866SOL     OW55048   8.190   7.842   6.389 -0.2520  0.7168  0.8235
17866SOL    HW155049   8.184   7.812   6.298 -0.9961  0.7401  0.8559
17866SOL    HW255050   8.245   7.920   6.385  0.7060  0.0371  0.5686
17867SOL     OW55051   7.043   1.195   3.894  0.0111 -0.0055  0.8553
17867SOL    HW155052   7.057   1.181   3.800 -0.5224  2.2389  0.4066
17867SOL    HW255053   6.992   1.119   3.922 -0.5023 -0.3107 -0.8251
17868SOL     OW55054   3.034   0.327   3.404 -0.2322 -0.5918  0.2077
17868SOL    HW155055   3.039   0.390   3.476 -1.0583 -0.0846 -0.1526
17868SOL    HW255056   3.048   0.242   3.445 -1.0581 -0.3467  1.0323
17869SOL     OW55057   2.147   1.253   6.013 -0.0471  0.3549  0.2734
17869SOL    HW155058   2.197   1.321   5.967 -1.5607  1.2588 -0.1426
17869SOL    HW255059   2.181   1.171   5.979 -0.0279  0.9810 -1.3051
17870SOL     OW55060   4.829   2.773   6.447  0.4992 -0.5998 -0.2129
17870SOL    HW155061   4.755   2.824   6.413  0.0223 -1.3837 -0.3674
17870SOL    HW255062   4.852   2.816   6.530  0.2627  0.0074 -0.4585
17871SOL     OW55063   0.586   5.069   5.161 -0.4519  0.3124 -0.0161
17871SOL    HW155064   0.575   5.088   5.254  0.8756 -0.9172  0.4321
17871SOL    HW255065   0.681   5.071   5.148 -0.5827 -0.4635 -1.1371
17872SOL     OW55066   7.421   1.151   0.780 -0.3822 -0.1973  0.0004
17872SOL    HW155067   7.369   1.119   0.707  0.0076 -1.4877  0.2585
17872SOL    HW255068   7.362   1.208   0.829 -0.7684  0.3498 -1.0762
17873SOL     OW55069   5.616   0.075   7.310  0.3785 -0.3841 -0.5202
17873SOL    HW155070   5.658  -0.011   7.313  1.2866  0.0170 -1.2243
17873SOL    HW255071   5.688   0.136   7.292 -0.0979  0.6365  0.8647
17874SOL     OW55072   8.221   2.721   2.562  0.3010 -0.6421 -0.5031
17874SOL    HW155073   8.149   2.672   2.601  0.4330 -0.4937 -0.0786
17874SOL    HW255074   8.289   2.721   2.629 -0.0715  1.0228 -0.0863
17875SOL     OW55075   3.563   3.578   0.762 -0.8239 -0.3133  0.0524
17875SOL    HW155076   3.646   3.547   0.797 -0.9978 -0.0858  0.6848
17875SOL    HW255077   3.497   3.537   0.819 -1.1917 -1.1459 -0.9290
17876SOL     OW55078   7.182   6.951   8.462 -0.1647 -0.4109  0.1105
17876SOL    HW155079   7.196   6.885   8.394  1.0766 -1.7054  1.5456
17876SOL    HW255080   7.112   7.007   8.428 -0.3191 -1.6543 -1.7316
17877SOL     OW55081   4.111   0.736   3.424 -0.2448  0.1063 -0.5894
17877SOL    HW155082   4.157   0.766   3.346  0.6967 -0.2031 -0.1757
17877SOL    HW255083   4.044   0.677   3.391  0.0158  0.1280 -1.1768
17878SOL     OW55084   2.451   0.737   7.393 -0.1220  0.3354  0.6606
17878SOL    HW155085   2.370   0.687   7.392  0.1037 -0.0334  0.1851
17878SOL    HW255086   2.466   0.760   7.301  1.3858 -1.3834  0.4093
17879SOL     OW55087   6.820   7.942   8.551 -0.1578 -0.3813  0.0600
17879SOL    HW155088   6.901   7.898   8.575 -0.0151 -0.9362 -1.3891
17879SOL    HW255089   6.757   7.913   8.617  1.1082  1.2057  2.0981
17880SOL     OW55090   6.452   7.776   0.138 -0.1805  0.5492 -0.3237
17880SOL    HW155091   6.448   7.680   0.132  0.0707  0.5817 -1.3495
17880SOL    HW255092   6.485   7.794   0.225 -1.7225 -0.2560  0.4668
17881SOL     OW55093   5.923   6.151   3.434 -0.2789  0.3303 -0.5158
17881SOL    HW155094   5.830   6.171   3.440 -0.3190 -0.1065  0.4251
17881SOL    HW255095   5.952   6.196   3.355 -1.4351 -0.0940 -1.2110
17882SOL     OW55096   2.059   8.817   2.650  0.1801  0.3637 -0.0513
17882SOL    HW155097   2.023   8.892   2.603 -0.3493 -0.4075 -0.9201
17882SOL    HW255098   1.991   8.793   2.712  0.0093  0.1112 -0.3342
17883SOL     OW55099   2.531   4.087   9.081  0.0916 -0.5405  0.7319
17883SOL    HW155100   2.471   4.013   9.087  0.6746 -1.0315  0.5688
17883SOL    HW255101   2.561   4.086   8.990 -2.3066  1.8171 -0.2210
17884SOL     OW55102   8.126   1.214   8.432  0.6212 -0.1784 -0.5930
17884SOL    HW155103   8.207   1.199   8.480  0.5740  1.8973  0.2228
17884SOL    HW255104   8.148   1.193   8.341  2.6188  1.8653 -0.6785
17885SOL     OW55105   2.494   8.582   0.639  0.0184 -0.6409 -0.3798
17885SOL    HW155106   2.500   8.675   0.619  0.6324 -0.3873  0.9057
17885SOL    HW255107   2.463   8.542   0.558  0.5277  0.5749 -1.2017
17886SOL     OW55108   2.017   4.639   7.715  0.2167 -0.1890 -0.4698
17886SOL    HW155109   1.966   4.714   7.746 -0.3456 -0.4918 -0.6530
17886SOL    HW255110   2.106   4.656   7.748 -0.4915 -0.8916  1.9955
17887SOL     OW55111   3.119   9.233   5.114 -0.3030  0.1753 -0.7994
17887SOL    HW155112   3.102   9.143   5.143 -1.6627  0.1108 -1.7253
17887SOL    HW255113   3.200   9.227   5.063  1.6040  0.1158  1.9755
17888SOL     OW55114   0.555   6.435   3.240  0.3085 -0.7706  0.3687
17888SOL    HW155115   0.605   6.495   3.184 -0.9221 -0.4329 -0.3936
17888SOL    HW255116   0.621   6.399   3.300  0.8576  2.5984  2.0293
17889SOL     OW55117   4.085   7.237   0.757  0.2087 -0.1455  0.4359
17889SOL    HW155118   4.143   7.258   0.684  0.4253  1.3142  1.0019
17889SOL    HW255119   4.107   7.301   0.824 -0.3713 -1.1191  1.5848
17890SOL     OW55120   2.303   0.014   6.388 -0.4591 -0.2232  0.0587
17890SOL    HW155121   2.331  -0.052   6.326 -1.2530  0.1231 -0.6888
17890SOL    HW255122   2.377   0.075   6.394 -0.8836  0.5100 -1.6367
17891SOL     OW55123   1.568   0.096   6.179 -0.7008  0.1385  0.0476
17891SOL    HW155124   1.555   0.123   6.088 -1.8835  2.4414  0.8217
17891SOL    HW255125   1.661   0.107   6.195 -0.4799 -0.3145 -0.8645
17892SOL     OW55126   7.497   3.773   1.811 -0.0087  0.4844 -0.1307
17892SOL    HW155127   7.524   3.686   1.840 -0.3266  0.3031 -0.3701
17892SOL    HW255128   7.579   3.819   1.794  0.1615  0.2716  0.1184
17893SOL     OW55129   5.738   0.465   7.388  0.4919 -0.3333 -0.1401
17893SOL    HW155130   5.766   0.374   7.378  0.7860 -0.3850  1.0357
17893SOL    HW255131   5.661   0.461   7.444  0.3084  0.1235 -0.3503
17894SOL     OW55132   6.855   4.818   5.943  0.2258 -0.0580 -0.0112
17894SOL    HW155133   6.799   4.890   5.973  1.4194  1.6886 -1.6930
17894SOL    HW255134   6.939   4.833   5.986  0.3420 -0.7463  0.0107
17895SOL     OW55135   5.600   2.217   8.416  0.5905 -0.4059 -0.0279
17895SOL    HW155136   5.639   2.256   8.494  2.8922 -0.7194 -0.9548
17895SOL    HW255137   5.506   2.218   8.434  1.0308 -0.6472  2.8290
17896SOL     OW55138   5.833   8.978   8.896  0.5949  0.0063  0.1421
17896SOL    HW155139   5.781   9.057   8.887  3.2367  1.7210 -1.0597
17896SOL    HW255140   5.807   8.923   8.822  1.7948  1.6907 -1.6205
17897SOL     OW55141   3.955   0.889   8.048 -0.9706 -0.0653  0.1504
17897SOL    HW155142   4.033   0.860   7.999 -1.3425 -0.1857 -0.3841
17897SOL    HW255143   3.956   0.836   8.127 -0.4276  0.0376  0.2181
17898SOL     OW55144   6.620   1.954   3.843 -0.1365  0.2442  0.3917
17898SOL    HW155145   6.700   1.913   3.812  0.3225 -1.1677  3.1230
17898SOL    HW255146   6.550   1.901   3.807  0.3213 -0.6601  0.7953
17899SOL     OW55147   7.621   0.020   8.781 -0.1866 -0.8843 -0.3305
17899SOL    HW155148   7.687   0.076   8.739 -1.0747 -0.4792 -1.2280
17899SOL    HW255149   7.625  -0.062   8.732  1.0582 -1.6082  0.9334
17900SOL     OW55150   8.895   0.621   9.213 -0.0300  0.1726  0.0222
17900SOL    HW155151   8.911   0.710   9.180 -0.7465 -0.0646 -1.0299
17900SOL    HW255152   8.948   0.615   9.292 -0.2225  1.6433  0.2924
17901SOL     OW55153   0.327   3.978   0.702  0.3815  0.6694  0.1270
17901SOL    HW155154   0.251   4.007   0.752  0.0620 -0.6908  0.4702
17901SOL    HW255155   0.292   3.961   0.614  0.4257  0.6642  0.1106
17902SOL     OW55156   7.700   1.532   3.069  0.9278 -0.0615  0.3153
17902SOL    HW155157   7.789   1.530   3.105  1.7387  0.4113 -1.5431
17902SOL    HW255158   7.711   1.510   2.977 -0.9485 -0.3403  0.1199
17903SOL     OW55159   4.921   4.223   2.693 -0.2702 -0.6322  0.4992
17903SOL    HW155160   4.839   4.187   2.726 -1.0797  1.1666  0.5578
17903SOL    HW255161   4.900   4.256   2.606  0.5201 -0.5629  0.3197
17904SOL     OW55162   6.189   2.768   5.797 -0.0587  0.0667  0.0096
17904SOL    HW155163   6.183   2.861   5.775  0.0487 -0.2112 -1.2382
17904SOL    HW255164   6.107   2.749   5.844  0.2456  0.9407  0.9411
17905SOL     OW55165   4.889   5.693   7.472  0.1203 -0.1997 -0.7552
17905SOL    HW155166   4.930   5.675   7.387  0.7094  0.4589 -0.6120
17905SOL    HW255167   4.817   5.753   7.451  0.3166  0.0269 -0.7753
17906SOL     OW55168   2.515   1.435   2.424  0.0506  0.0474  0.8485
17906SOL    HW155169   2.588   1.388   2.465 -0.8158 -2.5766 -0.3980
17906SOL    HW255170   2.551   1.469   2.343  0.0117 -0.9503  0.3975
17907SOL     OW55171   0.371   0.132   3.958 -0.5286  0.2257 -0.2404
17907SOL    HW155172   0.314   0.165   3.889  0.1248 -0.1354 -0.9588
17907SOL    HW255173   0.414   0.055   3.920 -1.3624 -0.9550  1.1105
17908SOL     OW55174   5.227   3.639   7.959  0.1940  0.2175  0.2603
17908SOL    HW155175   5.173   3.658   8.036 -0.5405  0.7453 -0.3726
17908SOL    HW255176   5.245   3.724   7.920  2.1763  0.1390  0.8747
17909SOL     OW55177   6.620   5.842   4.188  0.0036 -0.2195  0.0873
17909SOL    HW155178   6.528   5.850   4.215  0.4484 -1.3489  2.1818
17909SOL    HW255179   6.617   5.786   4.111 -1.0438 -0.7286  0.4707
17910SOL     OW55180   2.660   2.133   7.891  0.2934 -0.6418  0.4196
17910SOL    HW155181   2.609   2.205   7.926  3.0942  2.1416 -0.7724
17910SOL    HW255182   2.625   2.119   7.803 -0.4243 -0.9695  0.7482
17911SOL     OW55183   2.808   0.470   8.578  0.6901 -0.7304 -0.4853
17911SOL    HW155184   2.806   0.564   8.598 -1.9182 -1.0723  1.5167
17911SOL    HW255185   2.867   0.432   8.643 -0.2410 -0.7266  0.3842
17912SOL     OW55186   6.815   5.436   2.293 -0.1472 -0.1535 -0.1861
17912SOL    HW155187   6.727   5.463   2.268 -0.2729  1.1793  1.5223
17912SOL    HW255188   6.802   5.366   2.357 -0.0099  0.5317  0.6075
17913SOL     OW55189   4.896   2.424   2.749 -0.3420 -0.3945  0.2485
17913SOL    HW155190   4.969   2.364   2.729 -0.4136 -0.4047  0.0166
17913SOL    HW255191   4.933   2.511   2.738 -0.7303 -0.3974 -1.2294
17914SOL     OW55192   0.953   0.478   0.118 -0.0439 -0.0492 -0.4133
17914SOL    HW155193   0.933   0.428   0.039 -4.3899 -0.0899  0.5026
17914SOL    HW255194   0.896   0.440   0.185 -0.5092  3.4342  1.3428
17915SOL     OW55195   2.613   5.446   3.746  0.4869 -0.1258 -0.6339
17915SOL    HW155196   2.576   5.358   3.756  1.0377 -0.4843 -1.6165
17915SOL    HW255197   2.550   5.491   3.690  0.7153 -0.2278 -0.9776
17916SOL     OW55198   4.332   6.227   7.983  0.3313  0.0610 -0.1729
17916SOL    HW155199   4.425   6.229   7.961  0.8217  2.1933  1.6853
17916SOL    HW255200   4.328   6.185   8.069 -0.7015 -1.6780 -0.9989
17917SOL     OW55201   4.571   7.203   7.473  0.0929 -0.1884  0.1677
17917SOL    HW155202   4.579   7.292   7.510 -1.1651 -0.1796  0.4854
17917SOL    HW255203   4.643   7.196   7.411  0.0011  1.2008 -0.1313
17918SOL     OW55204   1.468   4.160   4.954 -0.5809 -0.4157 -0.7501
17918SOL    HW155205   1.445   4.124   4.869  0.6929 -1.9972 -0.4762
17918SOL    HW255206   1.416   4.109   5.016 -1.9277  1.1081 -0.5813
17919SOL     OW55207   3.364   7.196   1.495 -0.1748  0.0587 -0.1342
17919SOL    HW155208   3.373   7.275   1.442  0.1411  0.1273  0.0218
17919SOL    HW255209   3.414   7.129   1.447  0.3808  0.2011  0.2385
17920SOL     OW55210   5.335   9.072   0.954 -0.4143  0.0406 -0.2787
17920SOL    HW155211   5.426   9.095   0.938 -0.2231  0.3550  1.1144
17920SOL    HW255212   5.287   9.114   0.882  0.3809  1.2025 -0.1549
17921SOL     OW55213   3.455   6.318   7.919 -0.2208  0.1501  0.6974
17921SOL    HW155214   3.372   6.348   7.883 -0.2066 -0.0110  0.5296
17921SOL    HW255215   3.505   6.398   7.934 -1.1693  0.4258  2.7007
17922SOL     OW55216   1.312   4.299   0.372  0.0736  0.2628 -0.0051
17922SOL    HW155217   1.290   4.385   0.337 -1.5919 -1.5977 -4.2028
17922SOL    HW255218   1.232   4.248   0.361  1.8133 -2.5648 -0.3375
17923SOL     OW55219   0.951   7.611   5.093  0.3230  0.1516 -0.1651
17923SOL    HW155220   1.025   7.584   5.040 -0.9711 -1.9728 -1.0054
17923SOL    HW255221   0.892   7.655   5.032  1.0143  2.2283  0.5798
17924SOL     OW55222   8.156   6.188   8.671 -0.0274 -0.0324  0.1013
17924SOL    HW155223   8.217   6.121   8.640  0.7435  0.8177 -0.2533
17924SOL    HW255224   8.072   6.143   8.677  0.2595 -0.7633 -1.1490
17925SOL     OW55225   8.668   6.120   6.323  0.4296 -0.4813 -0.5130
17925SOL    HW155226   8.690   6.053   6.259 -2.0156 -1.4590 -0.4446
17925SOL    HW255227   8.711   6.090   6.404 -0.4213 -1.8764 -0.5409
17926SOL     OW55228   3.669   5.796   1.071  0.1286 -0.7196  0.1676
17926SOL    HW155229   3.703   5.881   1.041 -2.2149  0.1025 -0.4113
17926SOL    HW255230   3.722   5.731   1.024  0.2409  0.4748 -1.4358
17927SOL     OW55231   4.652   6.001   7.765 -0.3505  0.2781 -0.3043
17927SOL    HW155232   4.696   5.998   7.850 -0.9170  1.4137  0.0551
17927SOL    HW255233   4.599   5.922   7.764  0.2446 -0.1355  0.0709
17928SOL     OW55234   3.281   7.709   4.312 -1.0357 -0.1181 -0.1816
17928SOL    HW155235   3.235   7.634   4.274  1.5187 -2.3005  0.7404
17928SOL    HW255236   3.339   7.739   4.242 -2.7554  1.7548 -0.8892
17929SOL     OW55237   1.251   2.259   1.860  0.1768 -0.0145 -0.1763
17929SOL    HW155238   1.208   2.315   1.924 -0.5008  0.8722 -1.3600
17929SOL    HW255239   1.342   2.287   1.860  0.2598 -0.2846  0.6690
17930SOL     OW55240   1.670   4.445   3.193  0.1628  0.0574 -0.4736
17930SOL    HW155241   1.578   4.454   3.218  0.0145 -2.0524 -0.0368
17930SOL    HW255242   1.667   4.401   3.108  0.7621 -1.2372  0.1560
17931SOL     OW55243   0.206   7.051   7.363 -0.1495  0.0622 -0.3028
17931SOL    HW155244   0.166   6.984   7.420 -0.7521 -0.2591 -1.0852
17931SOL    HW255245   0.162   7.132   7.388 -0.0074  0.0266  0.0771
17932SOL     OW55246   1.967   3.985   9.224 -0.0877 -0.1257 -0.3422
17932SOL    HW155247   2.025   4.052   9.188 -0.3308  0.1107 -0.2932
17932SOL    HW255248   1.911   4.032   9.285 -1.0479 -0.1548 -1.1689
17933SOL     OW55249   6.641   6.880   8.451 -0.2325 -0.0863 -0.2234
17933SOL    HW155250   6.631   6.880   8.546  0.1671  0.6079 -0.1756
17933SOL    HW255251   6.734   6.866   8.436  0.0488  1.7257 -0.4402
17934SOL     OW55252   7.605   5.595   8.947 -0.1507  0.4224  0.0465
17934SOL    HW155253   7.542   5.529   8.976 -0.1572  1.2273  1.9918
17934SOL    HW255254   7.627   5.568   8.858 -1.3311 -1.3027  0.2095
17935SOL     OW55255   0.747   1.481   6.307 -0.5235 -0.7977  0.6811
17935SOL    HW155256   0.751   1.506   6.399 -2.5364  0.1685  0.5541
17935SOL    HW255257   0.745   1.563   6.259 -1.6118 -1.2378 -0.0803
17936SOL     OW55258   2.734   8.719   0.381 -0.1956 -0.0533  0.8583
17936SOL    HW155259   2.692   8.637   0.355  0.1873  0.4414 -1.6674
17936SOL    HW255260   2.808   8.693   0.435  0.2736 -1.4663 -0.3819
17937SOL     OW55261   5.830   8.912   2.121 -0.1066 -0.7804 -0.1908
17937SOL    HW155262   5.846   8.969   2.046  0.1699  0.0941  0.5019
17937SOL    HW255263   5.737   8.926   2.142 -0.3274 -1.4419 -0.6886
17938SOL     OW55264   0.126   3.102   3.247  0.0163 -0.0637 -0.5242
17938SOL    HW155265   0.114   3.194   3.224 -0.6469  0.1661  0.6050
17938SOL    HW255266   0.190   3.069   3.185  0.3587  1.1956 -0.8705
17939SOL     OW55267   2.403   3.125   3.574  0.3963  0.3422 -0.5921
17939SOL    HW155268   2.425   3.206   3.620  0.9672 -0.2637  0.2234
17939SOL    HW255269   2.488   3.089   3.547  0.0748  0.7622 -2.2863
17940SOL     OW55270   3.603   5.646   5.975  0.8154  0.0526 -1.3487
17940SOL    HW155271   3.602   5.731   6.019 -0.5728 -0.9095  0.6389
17940SOL    HW255272   3.620   5.667   5.883  2.0498  2.3246 -0.6932
17941SOL     OW55273   4.662   6.444   3.733  0.3673  0.5124  0.4791
17941SOL    HW155274   4.649   6.388   3.655  1.9169  1.2991 -0.3871
17941SOL    HW255275   4.682   6.530   3.697 -1.6251  1.6090  1.7961
17942SOL     OW55276   8.296   2.598   2.011 -0.5191 -0.0201 -0.1122
17942SOL    HW155277   8.324   2.664   2.074  0.3279 -0.4766  0.0003
17942SOL    HW255278   8.265   2.648   1.936  1.6557  0.5361 -0.7128
17943SOL     OW55279   7.886   6.365   7.221  0.0437 -0.0195  0.3251
17943SOL    HW155280   7.871   6.457   7.241  0.5480  0.2299 -0.4028
17943SOL    HW255281   7.866   6.319   7.303  0.0691  0.7606  0.7787
17944SOL     OW55282   3.771   5.167   7.575 -0.1781  0.2719 -0.1371
17944SOL    HW155283   3.791   5.260   7.580  1.2247 -0.0116  0.0240
17944SOL    HW255284   3.683   5.159   7.612 -0.1685  1.4810  0.1902
17945SOL     OW55285   3.126   2.897   5.367 -0.4475 -0.3116  0.0180
17945SOL    HW155286   3.199   2.847   5.403 -0.5730 -0.8899 -0.5179
17945SOL    HW255287   3.161   2.985   5.353 -0.4043 -0.0365  1.5798
17946SOL     OW55288   3.093   7.135   8.079 -0.2542  0.7691  0.4012
17946SOL    HW155289   3.118   7.157   7.989 -0.2626 -1.5795 -0.2298
17946SOL    HW255290   3.001   7.109   8.073  0.2077 -1.0890  0.7243
17947SOL     OW55291   5.670   5.385   3.109 -0.0906 -0.3459  0.1752
17947SOL    HW155292   5.680   5.480   3.095 -0.9219 -0.0508  1.3896
17947SOL    HW255293   5.735   5.345   3.052 -0.0422  0.9435 -0.7135
17948SOL     OW55294   0.801   1.069   7.043  0.1884 -0.1404  0.1089
17948SOL    HW155295   0.773   1.015   6.969  0.4962  0.3376 -0.3622
17948SOL    HW255296   0.720   1.094   7.087 -0.0442  0.1368 -0.4693
17949SOL     OW55297   1.049   6.334   0.473  0.1288 -0.3648  0.0945
17949SOL    HW155298   1.117   6.303   0.533  0.6261 -0.2024 -0.3676
17949SOL    HW255299   0.968   6.331   0.523  0.6161  0.2648  0.9264
17950SOL     OW55300   7.308   5.379   2.507  0.0527  0.1098 -0.1135
17950SOL    HW155301   7.264   5.384   2.592  0.0457 -1.5485  0.0054
17950SOL    HW255302   7.359   5.460   2.502  0.3221  0.0848  1.6145
17951SOL     OW55303   3.091   6.000   9.113 -0.7089  0.3687 -0.4180
17951SOL    HW155304   3.039   6.076   9.139  0.0480  0.7529  0.0204
17951SOL    HW255305   3.147   6.033   9.042 -0.1084  0.3435  0.0279
17952SOL     OW55306   1.941   5.643   5.786  0.3038  0.0265  0.3705
17952SOL    HW155307   1.942   5.549   5.804 -1.6932 -0.1213 -0.1457
17952SOL    HW255308   2.023   5.658   5.737 -0.3655 -1.8743 -1.5109
17953SOL     OW55309   5.018   5.119   6.822  0.2376  0.7402  0.1852
17953SOL    HW155310   5.039   5.130   6.915 -1.3815  0.1143  0.6566
17953SOL    HW255311   4.925   5.142   6.816 -0.5603 -2.3289 -0.6552
17954SOL     OW55312   7.576   1.420   6.217  0.3525  0.6141 -0.6808
17954SOL    HW155313   7.597   1.340   6.266  2.0494  1.5763  0.2730
17954SOL    HW255314   7.634   1.417   6.141  0.3118  0.8588 -0.7210
17955SOL     OW55315   6.276   3.829   9.013  0.1387  0.2060 -0.4217
17955SOL    HW155316   6.262   3.906   9.069 -0.2514 -0.8178  0.9595
17955SOL    HW255317   6.371   3.826   9.001  0.3509 -0.0753  1.0379
17956SOL     OW55318   3.537   1.341   2.136 -0.1537  0.1559  0.0782
17956SOL    HW155319   3.489   1.274   2.184  2.3450 -1.5653  0.3381
17956SOL    HW255320   3.596   1.380   2.201 -1.5309  2.6780 -0.0635
17957SOL     OW55321   3.549   3.554   8.592 -0.1824 -0.1335 -0.4797
17957SOL    HW155322   3.610   3.519   8.528  1.0357  0.0117  0.5828
17957SOL    HW255323   3.594   3.549   8.675 -1.2541  0.8491  0.2019
17958SOL     OW55324   6.770   8.063   3.795  0.1228 -0.0847 -0.0036
17958SOL    HW155325   6.749   7.974   3.825 -3.4018  0.7451  0.4313
17958SOL    HW255326   6.840   8.092   3.854 -0.8357 -1.4830  1.9388
17959SOL     OW55327   3.671   7.627   2.720 -0.1280  0.4308  0.0570
17959SOL    HW155328   3.766   7.629   2.721  0.0344 -2.2165  2.7166
17959SOL    HW255329   3.648   7.554   2.663 -0.7121  1.9419 -1.7472
17960SOL     OW55330   9.094   7.378   1.157 -0.4276 -0.1042  0.1536
17960SOL    HW155331   9.159   7.369   1.227 -0.6032 -0.3627  0.2866
17960SOL    HW255332   9.140   7.423   1.087 -1.0217  2.8540  1.5004
17961SOL     OW55333   0.235   7.169   7.939 -0.1898 -0.0667  0.3422
17961SOL    HW155334   0.200   7.147   7.853  0.4588  2.8503 -0.7662
17961SOL    HW255335   0.250   7.084   7.980 -0.4466 -1.5846 -2.4293
17962SOL     OW55336   3.461   0.454   0.636  0.2164  0.1574 -0.3347
17962SOL    HW155337   3.369   0.479   0.651  0.0622 -0.0355 -0.9250
17962SOL    HW255338   3.509   0.497   0.707 -0.3235  0.3065 -0.0505
17963SOL     OW55339   2.167   0.013   7.975  0.1583 -0.4197 -0.2757
17963SOL    HW155340   2.131  -0.003   8.062  0.2884  0.0737 -0.1287
17963SOL    HW255341   2.165  -0.072   7.932  0.6665 -0.7892  0.4249
17964SOL     OW55342   9.166   1.730   5.173  0.4080  0.0542 -0.1081
17964SOL    HW155343   9.128   1.775   5.097  1.5184  0.9565 -0.1559
17964SOL    HW255344   9.091   1.714   5.231 -0.2773  0.4027 -0.8690
17965SOL     OW55345   9.059   8.174   2.400  0.3720  0.2037 -0.8861
17965SOL    HW155346   9.111   8.112   2.451 -1.1336 -0.5325 -0.1823
17965SOL    HW255347   9.035   8.243   2.463 -1.1550 -0.5024 -0.6442
17966SOL     OW55348   4.121   3.041   1.739  0.0109 -0.1141 -0.8711
17966SOL    HW155349   4.215   3.055   1.734  0.2363 -0.9926  0.4574
17966SOL    HW255350   4.110   2.966   1.797 -1.5789  1.3256  0.8639
17967SOL     OW55351   8.780   3.646   2.573  0.0584  0.4728 -0.2440
17967SOL    HW155352   8.769   3.590   2.496  0.0661 -1.3835  1.0405
17967SOL    HW255353   8.865   3.688   2.559  0.3864 -0.3832 -0.9114
17968SOL     OW55354   3.517   2.013   1.641 -0.1514  0.1621  0.4599
17968SOL    HW155355   3.474   2.010   1.556 -0.4387  1.1505  0.5589
17968SOL    HW255356   3.610   1.999   1.621 -0.1504  0.8938 -0.0820
17969SOL     OW55357   5.276   5.548   9.168  0.0787  0.3186 -0.5510
17969SOL    HW155358   5.247   5.604   9.240  1.2256  0.8176 -0.4539
17969SOL    HW255359   5.273   5.606   9.091  0.9365  0.4154 -0.5129
17970SOL     OW55360   8.179   6.286   3.471  0.1276 -0.0546 -0.2341
17970SOL    HW155361   8.102   6.231   3.488 -1.6699  1.4420 -2.8175
17970SOL    HW255362   8.169   6.360   3.531 -0.0641 -0.1924 -0.0943
17971SOL     OW55363   0.841   6.556   0.327 -0.0296 -0.3473 -0.2317
17971SOL    HW155364   0.799   6.471   0.315 -1.9985  0.2299  1.8292
17971SOL    HW255365   0.807   6.610   0.255  1.3244 -1.2541 -1.6228
17972SOL     OW55366   0.341   2.544   7.300 -0.1236 -0.0168 -0.1559
17972SOL    HW155367   0.353   2.472   7.362  1.7924 -0.0338 -0.4944
17972SOL    HW255368   0.246   2.551   7.290 -0.4026 -1.4204  1.1202
17973SOL     OW55369   1.394   4.537   2.954 -0.0913  0.3701  0.3708
17973SOL    HW155370   1.316   4.481   2.951  0.1771 -0.0768  1.2982
17973SOL    HW255371   1.368   4.617   2.908 -1.0134  0.1139  0.4314
17974SOL     OW55372   8.150   4.604   5.832  0.2610 -0.0519  0.0315
17974SOL    HW155373   8.085   4.565   5.891  0.2532  0.1828  0.1785
17974SOL    HW255374   8.107   4.608   5.747  0.1010  0.0573  0.1180
17975SOL     OW55375   2.116   9.121   6.495 -0.3553 -0.1859 -0.2171
17975SOL    HW155376   2.050   9.180   6.532  0.2905 -0.0875  0.8376
17975SOL    HW255377   2.199   9.161   6.520  0.1232 -2.0263  1.4337
17976SOL     OW55378   7.826   8.272   7.442  0.2498  0.0126 -0.1897
17976SOL    HW155379   7.819   8.181   7.470 -1.2210  0.1138 -0.1331
17976SOL    HW255380   7.793   8.272   7.352  1.0817  0.3520 -0.5022
17977SOL     OW55381   8.675   5.439   4.223  0.3473  0.4824 -0.3895
17977SOL    HW155382   8.684   5.345   4.232  0.5544  0.6748  2.2476
17977SOL    HW255383   8.760   5.469   4.189 -0.3713 -0.3765 -3.2240
17978SOL     OW55384   7.418   7.839   8.800 -0.0665 -0.1021 -0.0295
17978SOL    HW155385   7.358   7.829   8.874  0.9406  0.5226  0.9052
17978SOL    HW255386   7.371   7.897   8.739  0.6675  2.9309  2.0378
17979SOL     OW55387   0.391   6.355   7.522 -0.3036  0.1172  0.4752
17979SOL    HW155388   0.323   6.294   7.551  1.3089 -2.2849 -0.4874
17979SOL    HW255389   0.361   6.386   7.437 -0.4167 -0.5548  0.2675
17980SOL     OW55390   2.422   8.926   1.452  0.6310  0.0238 -0.1220
17980SOL    HW155391   2.486   8.994   1.430 -0.5519  1.4868  0.7357
17980SOL    HW255392   2.430   8.862   1.382  0.8719  1.7345 -1.7607
17981SOL     OW55393   1.941   3.515   2.199  0.2102  0.7280 -0.1838
17981SOL    HW155394   2.027   3.475   2.188 -0.5545 -1.6078  1.6553
17981SOL    HW255395   1.959   3.600   2.238  1.6976  0.5849 -0.4950
17982SOL     OW55396   3.444   8.156   4.203 -0.4097  0.4143  0.4817
17982SOL    HW155397   3.405   8.186   4.121  0.9589  1.2763  0.1196
17982SOL    HW255398   3.537   8.146   4.183 -0.2368 -0.4302  1.6392
17983SOL     OW55399   0.447   0.635   2.026 -0.3909  0.0471 -0.0067
17983SOL    HW155400   0.487   0.721   2.028 -0.0755  0.1011 -3.3784
17983SOL    HW255401   0.521   0.574   2.020 -0.6025 -0.5606  2.4393
17984SOL     OW55402   0.193   1.227   5.795  0.3154 -0.2565 -0.2919
17984SOL    HW155403   0.162   1.149   5.748  0.2846  0.7949 -2.1288
17984SOL    HW255404   0.159   1.300   5.743  1.4856  0.9661  0.6182
17985SOL     OW55405   6.400   0.765   4.954 -0.2258  0.3608 -0.1761
17985SOL    HW155406   6.339   0.699   4.921 -1.1482  0.8162  0.5568
17985SOL    HW255407   6.381   0.771   5.048 -0.4963  1.9729 -0.2986
17986SOL     OW55408   8.942   0.971   2.161 -0.3251 -0.0136 -0.2922
17986SOL    HW155409   8.900   0.934   2.084  0.2750 -0.2316 -0.5221
17986SOL    HW255410   9.021   1.014   2.127  1.4033 -2.3550  0.4297
17987SOL     OW55411   3.366   2.730   4.426 -0.3191  0.1611 -0.1779
17987SOL    HW155412   3.329   2.655   4.379  2.2864 -2.3610  1.3845
17987SOL    HW255413   3.333   2.720   4.515  0.2394  0.7174  0.0959
17988SOL     OW55414   3.071   6.470   4.938  0.2552 -0.4416  0.4002
17988SOL    HW155415   3.024   6.489   4.857  0.3616 -0.1669  0.4013
17988SOL    HW255416   3.142   6.412   4.912  0.4322 -0.1621  0.2572
17989SOL     OW55417   1.276   5.029   0.236  0.0473 -0.4686 -0.3939
17989SOL    HW155418   1.213   4.964   0.205 -0.4666 -1.4429  2.3519
17989SOL    HW255419   1.343   4.978   0.281  0.7471  0.7705  0.0310
17990SOL     OW55420   3.802   3.857   5.761  0.1280 -0.3225 -0.5286
17990SOL    HW155421   3.803   3.883   5.852 -0.4747  1.0809 -0.9018
17990SOL    HW255422   3.728   3.904   5.723  0.6183 -0.5558 -1.8400
17991SOL     OW55423   5.627   2.087   4.353  0.5825  0.2597  0.2961
17991SOL    HW155424   5.603   2.167   4.307  0.0215  0.5388  1.0584
17991SOL    HW255425   5.544   2.050   4.382  0.9288  0.0630  1.0443
17992SOL     OW55426   6.105   3.131   3.439 -0.4961  0.4397 -0.0569
17992SOL    HW155427   6.033   3.147   3.378 -0.8547 -2.3214 -0.5013
17992SOL    HW255428   6.183   3.134   3.384 -0.8516 -2.5048 -0.9213
17993SOL     OW55429   2.471   5.528   0.994  0.4191  0.0967  0.2639
17993SOL    HW155430   2.471   5.624   1.002  1.3034  0.1208  0.0979
17993SOL    HW255431   2.448   5.512   0.902 -1.0468  0.0938  0.6067
17994SOL     OW55432   6.291   3.510   3.341  0.4478 -0.0536  0.1910
17994SOL    HW155433   6.261   3.591   3.298  0.1696 -1.1460 -1.8058
17994SOL    HW255434   6.382   3.501   3.314  0.4187 -0.4914  0.2323
17995SOL     OW55435   7.692   2.201   1.578  0.3676  0.0991  0.1461
17995SOL    HW155436   7.633   2.276   1.587  0.9918  0.8784 -1.7444
17995SOL    HW255437   7.757   2.213   1.647 -1.2234 -0.3795  1.7921
17996SOL     OW55438   8.940   4.402   6.603 -0.0790  0.3583  0.3250
17996SOL    HW155439   9.009   4.355   6.555 -0.4480 -2.5553  2.3592
17996SOL    HW255440   8.988   4.460   6.663  0.6994 -1.3587  1.4577
17997SOL     OW55441   4.122   0.255   4.005 -0.2677 -0.0309 -0.0413
17997SOL    HW155442   4.068   0.334   4.008 -0.4069  0.0802 -3.0227
17997SOL    HW255443   4.077   0.194   4.063 -3.0319  0.4347 -1.5191
17998SOL     OW55444   5.490   3.010   2.167  0.4924 -0.0431  0.5147
17998SOL    HW155445   5.476   3.104   2.156  1.8828  0.1844  0.5215
17998SOL    HW255446   5.403   2.975   2.184 -0.0404  1.2507  0.5744
17999SOL     OW55447   8.656   3.970   3.029 -0.8089  0.8493  0.1793
17999SOL    HW155448   8.622   3.988   2.941  0.6665  0.7732 -0.4209
17999SOL    HW255449   8.578   3.948   3.079 -1.5286 -0.6147 -1.4798
18000SOL     OW55450   4.003   0.522   8.502 -0.5232 -0.0880  0.1603
18000SOL    HW155451   3.935   0.586   8.523 -0.2444  0.0928  0.5236
18000SOL    HW255452   4.044   0.503   8.586  0.2388  0.2248 -0.1314
18001SOL     OW55453   5.243   2.890   1.663  0.2534  0.6621  0.1983
18001SOL    HW155454   5.283   2.831   1.726  2.0518  0.4134 -1.0818
18001SOL    HW255455   5.281   2.976   1.683  0.9539  0.5542 -0.5877
18002SOL     OW55456   2.285   1.715   3.802 -0.0913 -0.3550  0.4594
18002SOL    HW155457   2.255   1.633   3.842 -1.8516  0.1852  0.3610
18002SOL    HW255458   2.331   1.761   3.872 -3.6920  0.8941  2.2849
18003SOL     OW55459   4.848   4.780   6.322 -0.4242  0.2252 -0.0344
18003SOL    HW155460   4.944   4.787   6.320 -0.3110 -1.1337 -0.1287
18003SOL    HW255461   4.823   4.814   6.408  0.3246 -1.1998  0.7776
18004SOL     OW55462   1.332   2.608   5.230  0.3705  0.2825  0.1883
18004SOL    HW155463   1.315   2.530   5.177 -0.1360 -1.3493  2.5812
18004SOL    HW255464   1.401   2.654   5.183  1.7727 -2.4144 -0.6016
18005SOL     OW55465   7.380   8.161   4.344  0.5412 -0.3937 -0.0937
18005SOL    HW155466   7.348   8.153   4.434  0.9776 -1.7271 -0.0247
18005SOL    HW255467   7.391   8.255   4.330  0.5268 -0.1689  1.2719
18006SOL     OW55468   5.626   0.549   0.403  0.3437 -0.2399  0.3197
18006SOL    HW155469   5.690   0.527   0.335 -0.1501  0.2741 -0.3277
18006SOL    HW255470   5.643   0.486   0.473 -0.4132 -2.0909 -1.0783
18007SOL     OW55471   7.109   8.499   6.340  0.4685  0.6352 -0.6822
18007SOL    HW155472   7.036   8.548   6.376 -0.5070 -0.6688 -0.8009
18007SOL    HW255473   7.139   8.551   6.265 -0.0137  1.4262 -0.3280
18008SOL     OW55474   6.937   0.437   2.269 -0.7153 -0.0391  0.0154
18008SOL    HW155475   6.878   0.384   2.215  0.6136  0.8406 -2.5001
18008SOL    HW255476   6.951   0.516   2.218  1.7805  0.2378  0.9756
18009SOL     OW55477   8.354   4.448   5.769  0.0410 -0.0357 -0.4237
18009SOL    HW155478   8.282   4.501   5.804 -0.6257  0.4783 -2.4639
18009SOL    HW255479   8.327   4.357   5.784 -0.4478  0.1658 -0.0638
18010SOL     OW55480   3.045   8.858   0.199  0.3074  0.0019 -0.3304
18010SOL    HW155481   3.078   8.919   0.133  0.8941 -0.7666 -0.7694
18010SOL    HW255482   3.070   8.772   0.166 -0.6159 -0.4860  0.2142
18011SOL     OW55483   3.007   5.205   3.960 -0.0811  0.2441 -0.2768
18011SOL    HW155484   3.098   5.234   3.964  1.6653 -4.5409  2.4119
18011SOL    HW255485   2.992   5.187   3.867  2.6019 -0.9715 -0.5598
18012SOL     OW55486   2.189   4.082   7.964 -0.1769 -0.1686 -0.3593
18012SOL    HW155487   2.248   4.132   8.021 -0.0457 -0.1824 -0.4802
18012SOL    HW255488   2.135   4.031   8.024 -1.0696  0.9428 -0.1941
18013SOL     OW55489   5.900   0.911   0.212 -0.4720 -0.7144  0.0356
18013SOL    HW155490   5.940   0.863   0.285  0.1218 -0.0773  0.1440
18013SOL    HW255491   5.972   0.964   0.176 -1.1320  0.1709 -0.0075
18014SOL     OW55492   4.244   1.965   6.747 -0.0733  0.3459  0.0145
18014SOL    HW155493   4.254   2.060   6.746 -2.7232  0.7009 -1.8594
18014SOL    HW255494   4.152   1.950   6.766  0.2434 -1.8684  0.0954
18015SOL     OW55495   6.943   0.770   8.766  0.7510 -0.0535  0.5295
18015SOL    HW155496   6.873   0.820   8.725 -0.7946 -1.1695  1.6395
18015SOL    HW255497   6.937   0.792   8.859  1.4199 -0.6716  0.7317
18016SOL     OW55498   2.387   4.084   6.192  0.7453  0.1408 -0.0031
18016SOL    HW155499   2.458   4.137   6.229  0.7597 -0.2508  0.5317
18016SOL    HW255500   2.331   4.148   6.147  0.9781  0.5607  0.2932
18017SOL     OW55501   1.920   1.394   5.953 -0.2457 -0.2817  0.5514
18017SOL    HW155502   1.844   1.339   5.967  0.0073 -1.4345 -1.9898
18017SOL    HW255503   1.995   1.339   5.976 -0.0973  0.1321  1.0766
18018SOL     OW55504   0.190   7.415   7.923  0.0177 -0.1384 -0.3436
18018SOL    HW155505   0.199   7.445   7.832  1.2107  0.1989 -0.1313
18018SOL    HW255506   0.220   7.324   7.921 -2.0989 -0.8881 -0.6849
18019SOL     OW55507   1.641   9.097   0.495  0.0307  0.3034 -0.5387
18019SOL    HW155508   1.568   9.158   0.494 -0.1490  0.1265  0.3165
18019SOL    HW255509   1.712   9.146   0.536 -0.7577 -0.6800  2.2867
18020SOL     OW55510   1.871   3.884   2.515  0.1332  0.3745  0.7320
18020SOL    HW155511   1.827   3.913   2.435  0.8678  1.8046  0.8184
18020SOL    HW255512   1.891   3.965   2.562  1.8023 -0.3014  1.2606
18021SOL     OW55513   0.388   3.672   0.455 -0.1139 -0.1579 -0.4349
18021SOL    HW155514   0.369   3.625   0.536 -1.4200  0.5600 -0.2882
18021SOL    HW255515   0.328   3.746   0.456 -1.4157 -1.0539 -2.8631
18022SOL     OW55516   5.985   2.212   4.316  0.1241 -0.0689  0.6865
18022SOL    HW155517   5.991   2.306   4.336 -0.3730  0.6524 -2.1156
18022SOL    HW255518   6.064   2.192   4.267 -0.3061 -0.8385  0.2867
18023SOL     OW55519   3.284   2.614   3.855 -0.3331  0.2272  0.3868
18023SOL    HW155520   3.204   2.593   3.903 -0.9728  2.4872  0.4272
18023SOL    HW255521   3.328   2.680   3.909  0.4636  0.6153 -0.6852
18024SOL     OW55522   5.996   7.635   2.825  0.1969  0.4350 -0.9509
18024SOL    HW155523   5.992   7.652   2.730 -0.6831 -0.5492 -1.1109
18024SOL    HW255524   6.038   7.549   2.831 -0.5749  0.0795 -0.5123
18025SOL     OW55525   6.229   4.265   4.506 -0.2273  0.4053 -0.3862
18025SOL    HW155526   6.281   4.332   4.550  0.5169 -0.3860 -0.0285
18025SOL    HW255527   6.140   4.279   4.539 -0.3486  2.0242 -1.3174
18026SOL     OW55528   3.723   1.464   1.815  0.6948  0.5039  0.1197
18026SOL    HW155529   3.737   1.553   1.783 -0.0923  0.3508 -0.6778
18026SOL    HW255530   3.773   1.408   1.757  0.8400  0.3852  0.3556
18027SOL     OW55531   7.227   1.222   0.027  0.2438 -0.2190 -0.5110
18027SOL    HW155532   7.271   1.169   0.093 -0.3628  0.8011  0.7611
18027SOL    HW255533   7.240   1.312   0.055 -0.5466  0.2200 -1.4634
18028SOL     OW55534   1.139   0.087   5.070 -0.3007 -0.8545 -0.7082
18028SOL    HW155535   1.203   0.067   5.001  1.5087  0.1375  0.5972
18028SOL    HW255536   1.143   0.013   5.130  0.7690 -0.1420  0.1423
18029SOL     OW55537   3.961   0.288   1.780  0.0935 -0.7587  0.3896
18029SOL    HW155538   3.911   0.360   1.820 -1.8043 -0.3587 -2.4191
18029SOL    HW255539   4.041   0.329   1.748  0.3652 -0.5334  1.3284
18030SOL     OW55540   8.790   7.712   4.530  0.1038 -0.3133  0.4673
18030SOL    HW155541   8.882   7.689   4.524  0.6696  1.2160  2.2311
18030SOL    HW255542   8.782   7.793   4.481 -0.4422 -0.7505 -0.1774
18031SOL     OW55543   3.362   4.843   6.735 -0.0957  0.2387 -0.5018
18031SOL    HW155544   3.370   4.752   6.706 -0.0141  0.5155 -1.3743
18031SOL    HW255545   3.367   4.838   6.831 -0.9075 -0.7578 -0.4914
18032SOL     OW55546   5.142   3.073   7.747 -0.1306 -0.5925 -0.0375
18032SOL    HW155547   5.182   3.089   7.833  1.4691 -0.7604 -0.7214
18032SOL    HW255548   5.063   3.023   7.767  0.4732 -1.0626  1.3091
18033SOL     OW55549   6.895   5.713   7.805 -0.2053 -0.1675  0.3309
18033SOL    HW155550   6.979   5.738   7.766 -0.0559  1.0035  1.3386
18033SOL    HW255551   6.830   5.744   7.743  0.0616  0.8099  0.5204
18034SOL     OW55552   8.713   5.437   0.982 -0.3519 -0.1344 -0.7133
18034SOL    HW155553   8.701   5.349   0.947 -0.3898  0.2608 -1.7342
18034SOL    HW255554   8.806   5.442   1.002  0.0738  0.2671 -2.6214
18035SOL     OW55555   7.555   3.721   3.229 -0.1957 -0.4946 -0.4072
18035SOL    HW155556   7.590   3.699   3.315  0.8474 -2.3773 -1.2289
18035SOL    HW255557   7.460   3.717   3.240 -0.0720 -1.1244  0.5731
18036SOL     OW55558   0.101   5.127   2.915 -0.1996 -0.1803 -0.7774
18036SOL    HW155559   0.150   5.208   2.924 -1.2408  0.3088  0.9896
18036SOL    HW255560   0.010   5.152   2.931 -0.7787 -1.3953 -1.9868
18037SOL     OW55561   3.794   3.632   3.797  0.0537 -0.0950  0.7582
18037SOL    HW155562   3.847   3.625   3.877  0.5368 -2.8947  0.2976
18037SOL    HW255563   3.712   3.672   3.826  0.2018 -1.0735  2.6948
18038SOL     OW55564   2.070   6.592   3.818 -0.5197  0.0709  0.2401
18038SOL    HW155565   2.110   6.542   3.890  1.0652 -0.1116 -0.7118
18038SOL    HW255566   2.006   6.532   3.780  1.3014 -1.3117 -0.8338
18039SOL     OW55567   3.667   1.803   8.205  0.2906 -0.4623  0.2315
18039SOL    HW155568   3.696   1.731   8.261  1.3073  0.3016  0.7344
18039SOL    HW255569   3.572   1.802   8.211  0.3604 -0.8075  1.4480
18040SOL     OW55570   4.029   4.264   2.721  0.4726  0.4877 -0.8680
18040SOL    HW155571   4.083   4.312   2.784  0.7029  1.3841 -1.7367
18040SOL    HW255572   3.969   4.212   2.776  0.1181  1.8583  0.1040
18041SOL     OW55573   4.750   8.413   6.619  0.2874 -0.1423  0.2614
18041SOL    HW155574   4.768   8.328   6.580  1.3799  0.1604  0.0729
18041SOL    HW255575   4.656   8.428   6.603  0.5087 -0.4394 -1.4403
18042SOL     OW55576   6.013   9.214   7.862  0.1472  0.1662  0.1073
18042SOL    HW155577   6.090   9.165   7.833  0.5175  0.6361  0.2703
18042SOL    HW255578   6.048   9.300   7.886 -0.5799  0.7147 -0.7598
18043SOL     OW55579   2.540   2.769   8.356 -0.3832  0.4708  0.7772
18043SOL    HW155580   2.452   2.750   8.390 -0.0291 -1.1314  0.8893
18043SOL    HW255581   2.529   2.773   8.261 -1.0094  2.8987  0.8971
18044SOL     OW55582   7.204   0.887   7.099 -0.0214 -0.2683 -0.0706
18044SOL    HW155583   7.245   0.974   7.104 -0.1629 -0.1749 -0.4705
18044SOL    HW255584   7.111   0.906   7.096 -0.0058 -0.2953 -2.5242
18045SOL     OW55585   5.427   6.110   0.743  0.2209  0.1481 -0.3300
18045SOL    HW155586   5.392   6.199   0.753  1.9173  0.9606 -1.2529
18045SOL    HW255587   5.381   6.059   0.810 -1.2856  1.5611 -0.2359
18046SOL     OW55588   2.238   6.151   5.370  0.3515  0.1040 -0.2039
18046SOL    HW155589   2.162   6.199   5.402 -0.7155 -0.5423 -1.6511
18046SOL    HW255590   2.266   6.199   5.292  0.7980 -0.2470 -0.2700
18047SOL     OW55591   3.495   4.985   4.803 -0.2321  0.3185 -1.0458
18047SOL    HW155592   3.408   4.990   4.842  0.0357 -0.6727 -0.2849
18047SOL    HW255593   3.532   4.903   4.835  0.1096 -0.4464 -3.1981
18048SOL     OW55594   6.321   3.508   1.028 -0.4067 -0.7603 -0.1858
18048SOL    HW155595   6.248   3.538   1.083  1.9714  2.4920  1.6013
18048SOL    HW255596   6.344   3.585   0.976  1.7299 -1.6319 -0.6336
18049SOL     OW55597   1.111   0.997   3.097  0.3275  0.0355  0.2406
18049SOL    HW155598   1.157   0.981   3.015 -0.3585  1.3284 -0.4103
18049SOL    HW255599   1.086   0.909   3.127 -1.6816 -0.3455 -2.2482
18050SOL     OW55600   2.940   5.491   7.136  0.0336  0.4248 -0.2974
18050SOL    HW155601   2.872   5.444   7.184  1.4172 -0.4936  0.8616
18050SOL    HW255602   2.951   5.441   7.055 -0.8269  0.7169 -0.5956
18051SOL     OW55603   0.897   4.509   4.875  0.0071 -0.1306  0.1383
18051SOL    HW155604   0.812   4.495   4.833 -0.5546  0.9148  0.8839
18051SOL    HW255605   0.899   4.603   4.895  1.9631  0.1721 -1.1963
18052SOL     OW55606   4.516   1.260   3.874 -0.2182  0.1461 -0.0599
18052SOL    HW155607   4.501   1.349   3.905 -0.0606 -0.2483  1.1963
18052SOL    HW255608   4.600   1.235   3.913 -1.0539 -1.1405  1.0243
18053SOL     OW55609   5.084   4.113   1.629 -0.0080  0.2570  0.0574
18053SOL    HW155610   5.057   4.116   1.538 -0.7319  1.1376  0.2827
18053SOL    HW255611   5.099   4.204   1.653 -1.3630  0.2089  1.2378
18054SOL     OW55612   1.401   6.883   4.593  0.0719  0.0240 -0.0189
18054SOL    HW155613   1.452   6.804   4.607  1.0212  0.7464  0.6580
18054SOL    HW255614   1.332   6.856   4.532 -0.1446 -1.5269  0.8698
18055SOL     OW55615   2.455   9.274   8.926  0.1624 -0.7066 -0.4086
18055SOL    HW155616   2.409   9.221   8.991  0.6688 -1.2846 -0.5119
18055SOL    HW255617   2.388   9.298   8.862 -0.2514 -0.4907  0.0974
18056SOL     OW55618   7.860   6.745   4.858  0.5439 -0.0622 -0.4277
18056SOL    HW155619   7.949   6.726   4.829 -0.0183 -0.4918 -1.9488
18056SOL    HW255620   7.819   6.659   4.866  0.6666  0.0228  1.7557
18057SOL     OW55621   1.845   3.375   6.915 -0.4739 -0.1336 -0.0789
18057SOL    HW155622   1.805   3.291   6.938  0.3935 -0.4765  0.2209
18057SOL    HW255623   1.932   3.352   6.883 -0.3806  0.6280 -0.3900
18058SOL     OW55624   3.960   7.304   3.474 -0.0605 -0.2021 -0.5160
18058SOL    HW155625   4.012   7.376   3.438  1.0365 -0.6843  0.0360
18058SOL    HW255626   3.986   7.301   3.567 -0.8771 -0.6385 -0.2950
18059SOL     OW55627   7.223   1.427   1.793 -0.2912 -0.1402  0.5271
18059SOL    HW155628   7.163   1.396   1.860 -0.5748 -0.7240  0.0133
18059SOL    HW255629   7.175   1.497   1.748 -0.1093  0.2364  0.9045
18060SOL     OW55630   0.959   7.768   6.105 -0.4881 -0.1456  0.2169
18060SOL    HW155631   0.910   7.800   6.181 -0.9647 -0.6108  0.1131
18060SOL    HW255632   0.925   7.820   6.032  0.2878  0.6124  0.3850
18061SOL     OW55633   8.460   7.886   5.427  0.0701  0.2983  0.0558
18061SOL    HW155634   8.398   7.911   5.358  1.1116  2.1257 -0.2797
18061SOL    HW255635   8.408   7.831   5.486 -1.7731  1.4034 -0.4271
18062SOL     OW55636   6.306   7.074   8.517 -0.3992  0.3972  0.3812
18062SOL    HW155637   6.335   7.164   8.522 -0.9193  0.6823 -1.1261
18062SOL    HW255638   6.243   7.065   8.589 -0.4169  1.2674  0.4848
18063SOL     OW55639   2.802   0.717   8.312 -0.2054 -0.2475  0.2615
18063SOL    HW155640   2.816   0.786   8.247  0.9354  0.6389  1.3890
18063SOL    HW255641   2.876   0.726   8.372 -0.8274 -1.5224  1.2659
18064SOL     OW55642   4.379   6.750   6.415 -0.5915 -0.4474 -0.5542
18064SOL    HW155643   4.304   6.694   6.434 -0.5628 -2.0478 -4.2252
18064SOL    HW255644   4.340   6.830   6.378 -0.5321 -0.0255  0.2876
18065SOL     OW55645   5.237   0.814   7.174 -0.5384  0.2779 -0.4266
18065SOL    HW155646   5.330   0.819   7.151 -0.6113 -1.1697 -1.1733
18065SOL    HW255647   5.195   0.882   7.120 -0.3235 -1.2450 -2.6711
18066SOL     OW55648   0.524   7.451   0.546 -0.1950 -0.3428  0.2563
18066SOL    HW155649   0.599   7.509   0.531  0.3840 -0.9761  0.6687
18066SOL    HW255650   0.539   7.376   0.489  0.7332 -1.5922  2.0574
18067SOL     OW55651   1.511   2.186   0.742  0.3832  0.0996  0.3707
18067SOL    HW155652   1.506   2.090   0.738 -0.0768  0.1363 -0.1228
18067SOL    HW255653   1.566   2.210   0.667 -1.3958  0.3323 -0.9387
18068SOL     OW55654   6.779   8.568   6.497 -0.1657 -0.4482 -0.1976
18068SOL    HW155655   6.861   8.617   6.500 -0.1484 -0.5195  1.3045
18068SOL    HW255656   6.728   8.610   6.428  0.8345  0.0779 -0.6381
18069SOL     OW55657   8.116   2.073   5.505  0.1534 -0.0412 -0.8843
18069SOL    HW155658   8.026   2.105   5.504  0.0947 -0.2028 -1.9540
18069SOL    HW255659   8.131   2.047   5.596 -0.6811  0.5341 -0.5689
18070SOL     OW55660   7.462   7.840   1.394  0.0605  0.5937  0.0429
18070SOL    HW155661   7.459   7.903   1.322  0.6621  0.9621  0.3323
18070SOL    HW255662   7.439   7.891   1.472  1.0077  0.5687  0.3479
18071SOL     OW55663   7.277   5.522   1.403  0.3911 -0.0003  0.5472
18071SOL    HW155664   7.328   5.472   1.340  0.7459  1.8624 -0.7142
18071SOL    HW255665   7.187   5.520   1.369  0.4637  0.4709  0.3241
18072SOL     OW55666   6.689   3.191   4.038 -0.1701 -0.7421 -0.3300
18072SOL    HW155667   6.771   3.194   4.087 -0.3750  0.7843 -0.0509
18072SOL    HW255668   6.710   3.138   3.960  1.2689  0.1559 -0.5976
18073SOL     OW55669   2.747   1.771   5.291 -0.1382 -0.2257 -0.0368
18073SOL    HW155670   2.728   1.821   5.212 -0.7670 -0.7746 -0.2423
18073SOL    HW255671   2.671   1.785   5.347  0.6170  0.7269  0.7732
18074SOL     OW55672   5.843   2.700   7.461 -0.0966 -0.0002 -0.2628
18074SOL    HW155673   5.814   2.755   7.389  1.9527  2.4082  0.5821
18074SOL    HW255674   5.939   2.700   7.454  0.0375 -1.7747  0.9886
18075SOL     OW55675   1.039   4.462   1.259  0.3712 -0.3486  0.2555
18075SOL    HW155676   1.049   4.445   1.165 -0.5373 -0.3942  0.1603
18075SOL    HW255677   1.071   4.383   1.302  0.2671 -0.5501 -0.0368
18076SOL     OW55678   5.410   6.327   8.041  0.3006 -0.4497  0.4794
18076SOL    HW155679   5.420   6.386   7.966  0.6708 -0.1261  0.7789
18076SOL    HW255680   5.384   6.384   8.113  0.5640 -0.6710  0.7493
18077SOL     OW55681   5.118   5.099   8.559 -0.1423 -0.3270 -0.3801
18077SOL    HW155682   5.121   5.190   8.587  1.7395 -0.5165  0.1366
18077SOL    HW255683   5.024   5.080   8.547 -0.5733  1.5497 -0.1714
18078SOL     OW55684   4.767   2.995   1.052 -0.1553  0.2044 -0.1591
18078SOL    HW155685   4.741   3.076   1.008  0.1344 -0.6059 -1.9110
18078SOL    HW255686   4.862   2.990   1.039 -0.0310  0.0281  0.7441
18079SOL     OW55687   7.056   0.422   2.835  0.4590 -0.5544  0.2066
18079SOL    HW155688   6.978   0.378   2.868 -0.3760  0.2665 -0.6122
18079SOL    HW255689   7.046   0.420   2.740  1.5506 -0.6290  0.0810
18080SOL     OW55690   4.087   7.399   4.723  0.0271 -0.1415  0.1969
18080SOL    HW155691   4.145   7.347   4.668  0.2234 -0.7448  0.9615
18080SOL    HW255692   4.000   7.387   4.683  0.1966 -0.3990 -0.1037
18081SOL     OW55693   6.566   0.041   6.409  0.3090  0.1218 -0.5890
18081SOL    HW155694   6.523   0.121   6.380  1.5266  1.4039  0.9930
18081SOL    HW255695   6.636   0.027   6.346 -2.0006 -1.7818 -2.9736
18082SOL     OW55696   5.718   1.201   2.999 -0.4484 -0.7072  0.0836
18082SOL    HW155697   5.746   1.137   2.934  0.7352  0.4742 -0.6091
18082SOL    HW255698   5.757   1.284   2.971 -1.9153  0.3460  0.9552
18083SOL     OW55699   1.190   5.045   1.133 -0.2102  0.8809  0.2925
18083SOL    HW155700   1.223   5.095   1.059 -0.2174  0.1227 -0.2339
18083SOL    HW255701   1.096   5.036   1.117  0.0294 -0.5802 -0.4083
18084SOL     OW55702   7.468   6.024   5.538  0.7260 -0.2731  0.4279
18084SOL    HW155703   7.506   5.938   5.519 -1.1486 -0.8579 -1.0364
18084SOL    HW255704   7.399   6.005   5.601  0.2087  0.1145 -0.0144
18085SOL     OW55705   6.109   4.863   2.386  0.2248  0.3698  0.0420
18085SOL    HW155706   6.121   4.958   2.395  0.3439  0.2116  1.9906
18085SOL    HW255707   6.014   4.851   2.382  0.1492  0.4811  1.3027
18086SOL     OW55708   3.718   8.852   9.262  0.2427 -0.3566  0.0381
18086SOL    HW155709   3.742   8.937   9.224 -0.4381 -0.8765 -1.6591
18086SOL    HW255710   3.724   8.791   9.188 -2.2722 -1.2188  0.4660
18087SOL     OW55711   1.400   2.861   6.858  0.0822  0.5146 -0.1077
18087SOL    HW155712   1.484   2.823   6.833 -1.2303 -1.5165 -1.6852
18087SOL    HW255713   1.363   2.895   6.777 -0.7308  1.1865  0.5217
18088SOL     OW55714   2.917   7.489   5.577  0.2134  0.3017  0.4825
18088SOL    HW155715   2.830   7.509   5.609  0.3330  2.5440 -0.4069
18088SOL    HW255716   2.913   7.397   5.553 -1.4989  0.0227  1.6421
18089SOL     OW55717   1.995   6.546   7.285 -1.2596  0.3841 -0.0512
18089SOL    HW155718   2.038   6.571   7.366 -2.0238  0.2559  0.4041
18089SOL    HW255719   1.942   6.622   7.261  0.3453  1.1328 -1.4279
18090SOL     OW55720   8.353   5.424   4.376 -0.4245  0.0442 -0.2174
18090SOL    HW155721   8.399   5.340   4.367 -1.0186 -0.2722 -0.3925
18090SOL    HW255722   8.378   5.474   4.298  0.6884  0.4155  0.3590
18091SOL     OW55723   7.010   5.377   0.891 -0.6190  0.4655  0.0052
18091SOL    HW155724   7.005   5.393   0.985  1.4766  0.0510  0.2174
18091SOL    HW255725   6.919   5.357   0.866 -1.1408  0.1288  1.9988
18092SOL     OW55726   3.184   4.035   5.367  0.2564 -0.4482 -0.1081
18092SOL    HW155727   3.187   3.940   5.353 -0.1265 -0.5886  0.6841
18092SOL    HW255728   3.262   4.053   5.420  0.4397 -0.2860 -0.4306
18093SOL     OW55729   3.538   9.036   4.675 -0.1384 -0.9603  0.3289
18093SOL    HW155730   3.461   8.981   4.689 -1.4485  1.0421  1.3449
18093SOL    HW255731   3.561   9.068   4.762 -0.5284  1.4831 -0.3934
18094SOL     OW55732   6.530   5.414   2.615  0.3604  0.2152 -0.7154
18094SOL    HW155733   6.620   5.408   2.646 -0.0496 -1.3331  0.2863
18094SOL    HW255734   6.497   5.495   2.653  1.1695  0.5212 -0.6497
18095SOL     OW55735   3.077   1.791   1.273  0.0881 -0.1799 -0.4117
18095SOL    HW155736   3.154   1.848   1.275 -0.7347  1.0084 -1.4320
18095SOL    HW255737   3.071   1.758   1.363 -0.0019  2.1937  0.5440
18096SOL     OW55738   4.958   3.197   9.230  0.3784 -0.8886 -0.0334
18096SOL    HW155739   4.920   3.277   9.193  0.9133 -0.6892 -0.1586
18096SOL    HW255740   4.910   3.184   9.312 -1.2401 -1.6661 -1.0586
18097SOL     OW55741   5.806   3.490   7.034  0.3023  0.1913 -0.0156
18097SOL    HW155742   5.866   3.495   7.108  0.3808  1.1917 -0.1341
18097SOL    HW255743   5.720   3.475   7.074  0.4653 -0.1229  0.2199
18098SOL     OW55744   3.837   7.693   8.275 -0.6181 -0.3972  0.4646
18098SOL    HW155745   3.915   7.707   8.221 -0.3193 -0.9557  0.7392
18098SOL    HW255746   3.817   7.600   8.262 -0.4323 -0.5832  1.4618
18099SOL     OW55747   3.067   3.128   0.215 -0.2635 -0.3464  0.3304
18099SOL    HW155748   3.084   3.058   0.153 -0.1946  1.0959 -1.3641
18099SOL    HW255749   3.127   3.111   0.288  1.9178 -0.4205 -1.3819
18100SOL     OW55750   7.375   8.718   6.575 -0.2537 -0.0223  0.0546
18100SOL    HW155751   7.342   8.750   6.659 -0.9527 -0.8884  0.1155
18100SOL    HW255752   7.371   8.623   6.581 -0.0595 -0.1022 -0.8667
18101SOL     OW55753   8.721   6.726   4.399 -0.0372 -0.6648 -0.3675
18101SOL    HW155754   8.707   6.729   4.494  1.5384  0.6519 -0.1383
18101SOL    HW255755   8.812   6.699   4.389  0.4590  1.2579 -1.4134
18102SOL     OW55756   2.173   1.034   4.132  0.1244 -0.0683 -0.4031
18102SOL    HW155757   2.153   1.004   4.043 -1.4358 -0.1375 -0.0476
18102SOL    HW255758   2.254   1.084   4.122 -0.9034  1.3544 -2.1604
18103SOL     OW55759   8.335   4.169   5.455 -0.5122 -0.0621  0.3457
18103SOL    HW155760   8.371   4.084   5.428  1.3376  0.7326  0.1363
18103SOL    HW255761   8.338   4.167   5.550 -0.5940 -0.2862  0.3437
18104SOL     OW55762   1.816   4.685   2.565 -0.8759  0.4917 -0.4318
18104SOL    HW155763   1.758   4.749   2.523 -2.2669 -0.1749  0.3755
18104SOL    HW255764   1.803   4.699   2.658 -0.2602 -0.1479 -0.2401
18105SOL     OW55765   3.624   9.047   4.942  0.2355  0.2839  0.2157
18105SOL    HW155766   3.703   9.087   4.905 -0.6312 -0.1821 -2.3375
18105SOL    HW255767   3.657   8.973   4.992  1.4639  0.2423 -0.5931
18106SOL     OW55768   6.501   2.212   2.795  0.2987 -0.2927  0.0677
18106SOL    HW155769   6.508   2.290   2.851  0.7060 -1.6335  1.9912
18106SOL    HW255770   6.408   2.190   2.796  0.1927  0.1097 -0.4261
18107SOL     OW55771   7.459   7.646   3.206  0.3055 -0.4859  0.1953
18107SOL    HW155772   7.516   7.577   3.241  0.6363 -0.8361 -0.9802
18107SOL    HW255773   7.387   7.598   3.165  0.5236 -0.1313 -0.6029
18108SOL     OW55774   4.975   5.600   3.812 -0.4669 -0.4131  0.3771
18108SOL    HW155775   5.070   5.613   3.815 -0.5781  0.3645  0.8418
18108SOL    HW255776   4.964   5.505   3.816  0.2660 -0.4793  1.3721
18109SOL     OW55777   4.072   9.224   3.038 -0.2110  0.3208 -0.1851
18109SOL    HW155778   4.057   9.305   2.989 -0.0541  0.4005 -0.1007
18109SOL    HW255779   3.987   9.179   3.036 -0.5395  0.8868  0.5152
18110SOL     OW55780   5.068   3.778   1.360  0.4211  0.6976  0.2162
18110SOL    HW155781   5.136   3.808   1.300  1.5534 -0.5527  0.8310
18110SOL    HW255782   5.056   3.686   1.339  0.1867  0.4665  1.3078
18111SOL     OW55783   3.910   0.300   7.239 -0.1476  0.1215 -0.6613
18111SOL    HW155784   3.860   0.355   7.178 -0.2938 -0.1545 -0.7949
18111SOL    HW255785   3.870   0.213   7.231  0.9101 -0.3154 -1.4167
18112SOL     OW55786   2.767   2.122   2.943  0.2895  0.3861  0.1021
18112SOL    HW155787   2.758   2.171   2.862  0.5742 -0.5476 -0.5185
18112SOL    HW255788   2.686   2.138   2.991 -0.7244 -0.5714 -1.2361
18113SOL     OW55789   5.801   2.912   1.188 -0.6138  0.0439  1.1014
18113SOL    HW155790   5.737   2.917   1.259  0.1678  0.2263  1.8005
18113SOL    HW255791   5.782   2.827   1.146 -1.9176  0.5048  0.6957
18114SOL     OW55792   3.574   5.540   6.861 -0.0239 -0.8512  0.0698
18114SOL    HW155793   3.655   5.489   6.857  0.5846  0.1342 -1.8973
18114SOL    HW255794   3.595   5.614   6.919  0.2719 -0.9636  0.1085
18115SOL     OW55795   8.337   0.205   8.782  0.1705 -0.3816 -0.4298
18115SOL    HW155796   8.328   0.243   8.695 -0.2620 -2.5631 -1.4258
18115SOL    HW255797   8.404   0.137   8.772  2.0168  0.9785  1.6068
18116SOL     OW55798   6.332   1.932   1.643 -0.0915  0.1510 -0.1709
18116SOL    HW155799   6.409   1.939   1.587 -0.3795  0.3884 -0.5435
18116SOL    HW255800   6.347   1.853   1.695  0.0304 -0.2561 -0.8131
18117SOL     OW55801   3.286   2.175   6.934  0.4154 -0.0954 -0.0812
18117SOL    HW155802   3.327   2.149   7.016 -1.4749  0.0046  0.9403
18117SOL    HW255803   3.194   2.151   6.944  0.0944  0.1615 -2.0717
18118SOL     OW55804   0.316   2.467   2.402 -0.0515  0.0800  0.4828
18118SOL    HW155805   0.331   2.490   2.310  1.6271 -0.3492  0.6255
18118SOL    HW255806   0.221   2.462   2.409 -0.2206  0.0276 -1.2519
18119SOL     OW55807   2.053   9.057   6.811 -0.1079 -0.0742 -0.2951
18119SOL    HW155808   2.039   8.970   6.772  1.1209 -0.2774 -0.3180
18119SOL    HW255809   2.102   9.039   6.891  0.6225  0.6399 -0.5769
18120SOL     OW55810   4.769   1.878   9.255  0.0485 -0.0066  0.0756
18120SOL    HW155811   4.712   1.946   9.220  2.5959  1.9485 -0.5982
18120SOL    HW255812   4.786   1.905   9.345  0.6795 -0.0030 -0.0405
18121SOL     OW55813   7.286   6.670   5.204  0.2904 -0.0476 -0.9844
18121SOL    HW155814   7.209   6.650   5.258  0.2493  1.2977 -0.5146
18121SOL    HW255815   7.341   6.592   5.212  0.4571  0.2315  1.3286
18122SOL     OW55816   8.648   3.039   7.829 -0.1566  0.2523 -0.4590
18122SOL    HW155817   8.613   2.967   7.881  1.3493  0.4909  0.9777
18122SOL    HW255818   8.723   3.002   7.783  0.1897  0.7181 -0.2777
18123SOL     OW55819   6.143   5.614   2.450 -0.0040  0.3188 -0.3462
18123SOL    HW155820   6.142   5.520   2.469  1.5371  0.5634  1.1508
18123SOL    HW255821   6.080   5.624   2.378 -0.5823 -1.7691 -0.2084
18124SOL     OW55822   3.488   1.370   3.490  0.2733  0.0947  0.2265
18124SOL    HW155823   3.422   1.335   3.549  0.4916 -0.4759  0.1462
18124SOL    HW255824   3.559   1.306   3.493  1.6476  1.5911  1.7193
18125SOL     OW55825   6.591   8.728   8.479 -0.0244 -0.6776 -0.0388
18125SOL    HW155826   6.683   8.755   8.483 -0.0176 -0.5389 -0.9170
18125SOL    HW255827   6.570   8.699   8.567 -0.0845  2.4239  1.1005
18126SOL     OW55828   6.222   9.014   4.666  0.2463 -0.4281  0.5052
18126SOL    HW155829   6.279   8.946   4.629  0.3807  0.1553 -0.3674
18126SOL    HW255830   6.185   9.059   4.591 -0.4637 -0.0291  1.0754
18127SOL     OW55831   0.403   3.619   3.752 -0.3075 -0.0992  0.5902
18127SOL    HW155832   0.497   3.610   3.735 -0.2153  2.5672 -0.7303
18127SOL    HW255833   0.361   3.590   3.671 -0.6011 -0.3625  0.8326
18128SOL     OW55834   2.355   3.066   8.202  0.1664  0.0290 -0.8737
18128SOL    HW155835   2.327   2.977   8.180  0.8117  0.2155 -2.6346
18128SOL    HW255836   2.440   3.076   8.159  1.5811  0.5139  1.8239
18129SOL     OW55837   9.071   7.560   3.694  0.1637  0.7248  0.0401
18129SOL    HW155838   9.008   7.557   3.622 -0.8586  3.0762  0.7519
18129SOL    HW255839   9.044   7.636   3.746  2.1748  0.3682  1.6988
18130SOL     OW55840   0.663   1.698   0.220 -0.0166 -0.1513 -0.2499
18130SOL    HW155841   0.618   1.615   0.206 -1.6753  0.4726  1.1028
18130SOL    HW255842   0.678   1.702   0.314  0.8145  0.7032 -0.4060
18131SOL     OW55843   6.623   1.517   3.619  0.0314 -0.3027  0.7023
18131SOL    HW155844   6.573   1.552   3.692 -0.0862 -0.1746  0.5619
18131SOL    HW255845   6.715   1.526   3.645 -0.0297 -1.0046  1.1758
18132SOL     OW55846   1.711   7.028   7.142  0.3123 -0.8188 -0.6346
18132SOL    HW155847   1.757   7.078   7.209 -0.0527 -0.6537 -0.5024
18132SOL    HW255848   1.742   7.063   7.059  0.1871 -0.4928 -0.5439
18133SOL     OW55849   3.018   1.557   9.009  0.2176 -0.0513  0.4307
18133SOL    HW155850   3.096   1.507   9.033  1.0308 -0.4547 -2.6516
18133SOL    HW255851   3.052   1.642   8.980 -0.6482  0.3395  0.5352
18134SOL     OW55852   2.134   2.518   4.059 -0.1939 -0.0843 -0.0931
18134SOL    HW155853   2.136   2.576   4.135 -1.2186 -0.9992  0.6581
18134SOL    HW255854   2.224   2.487   4.050  0.0813  0.5807  0.2973
18135SOL     OW55855   8.295   4.440   0.820 -0.2974  0.2647 -0.5706
18135SOL    HW155856   8.232   4.380   0.779 -0.9780  0.3551  0.3046
18135SOL    HW255857   8.339   4.387   0.886  0.1415  0.3591 -0.7814
18136SOL     OW55858   1.921   7.638   4.665 -0.1458  0.0395 -0.1644
18136SOL    HW155859   1.905   7.712   4.723  1.6079 -1.4365  2.4078
18136SOL    HW255860   1.900   7.671   4.578  2.0448  4.0591  0.5871
18137SOL     OW55861   7.645   6.604   8.349 -0.1250  0.3216 -0.3661
18137SOL    HW155862   7.680   6.651   8.425  2.2244  1.0331 -1.7923
18137SOL    HW255863   7.720   6.557   8.314 -1.1848 -0.1071 -2.1663
18138SOL     OW55864   6.350   3.877   5.300 -0.3888 -0.0090 -0.1416
18138SOL    HW155865   6.317   3.847   5.216  0.1430  0.2094 -0.4323
18138SOL    HW255866   6.340   3.801   5.358  1.4975 -1.0100 -1.0175
18139SOL     OW55867   9.153   2.221   7.437 -0.5699  0.2766  0.9781
18139SOL    HW155868   9.067   2.184   7.458 -0.3307 -0.3290  0.9046
18139SOL    HW255869   9.200   2.150   7.394  0.8847 -0.2468  3.2653
18140SOL     OW55870   1.935   8.452   6.179  0.6006 -0.5007  0.1680
18140SOL    HW155871   1.970   8.458   6.268  0.2493  0.6327  0.2505
18140SOL    HW255872   1.968   8.369   6.146 -1.2820 -2.2362  2.2259
18141SOL     OW55873   3.443   4.239   6.043 -0.6102  0.0952  0.0727
18141SOL    HW155874   3.437   4.291   6.124 -0.5713 -1.0350  0.8286
18141SOL    HW255875   3.353   4.230   6.013 -0.6274  0.5086 -0.0008
18142SOL     OW55876   7.553   2.524   4.421  0.4348  0.0813 -0.0971
18142SOL    HW155877   7.633   2.475   4.403 -0.5046 -1.8111  0.6150
18142SOL    HW255878   7.523   2.491   4.506 -1.4160  0.2801 -0.6282
18143SOL     OW55879   6.324   0.154   2.606  0.2353  0.4037 -0.3687
18143SOL    HW155880   6.326   0.199   2.690 -2.8652 -0.7091  0.4287
18143SOL    HW255881   6.367   0.215   2.545  0.4980  2.2291  1.5523
18144SOL     OW55882   9.011   6.468   6.681  0.1244  0.4647  0.1843
18144SOL    HW155883   9.102   6.492   6.664 -0.1765  1.1052 -0.5983
18144SOL    HW255884   8.996   6.392   6.624  1.1985 -1.9950  2.9559
18145SOL     OW55885   2.182   9.156   1.185 -0.1525 -0.0874  0.4404
18145SOL    HW155886   2.127   9.215   1.133  0.5130  0.1730  0.0213
18145SOL    HW255887   2.142   9.156   1.272 -1.3009 -0.5560 -0.0680
18146SOL     OW55888   0.046   7.149   4.020  0.7335  0.0170  0.2998
18146SOL    HW155889   0.079   7.169   3.932 -0.7795 -0.9737 -0.5466
18146SOL    HW255890   0.052   7.054   4.026  2.1780  0.1674  1.8820
18147SOL     OW55891   7.672   2.188   5.382 -0.5942  0.2800 -0.3367
18147SOL    HW155892   7.739   2.172   5.449 -0.7393 -0.1839 -0.3003
18147SOL    HW255893   7.643   2.278   5.399 -2.7338 -0.7407  2.1188
18148SOL     OW55894   6.621   8.238   2.601 -0.1192 -0.0002  0.0084
18148SOL    HW155895   6.527   8.254   2.588 -0.4927  0.2033  2.4969
18148SOL    HW255896   6.658   8.241   2.512 -2.4457 -0.1444 -1.0484
18149SOL     OW55897   7.799   8.873   6.601 -0.4804 -0.0716  0.5697
18149SOL    HW155898   7.866   8.917   6.549  0.0446 -0.7942  0.6265
18149SOL    HW255899   7.716   8.909   6.568 -0.1098  0.1937 -0.0963
18150SOL     OW55900   1.163   8.993   4.371  0.8518  0.4765  0.2781
18150SOL    HW155901   1.171   9.047   4.292 -0.2908  1.6143  0.8958
18150SOL    HW255902   1.084   9.026   4.414 -0.2141 -2.0380  0.4460
18151SOL     OW55903   2.002   3.586   1.052  0.3613  0.3055 -0.7207
18151SOL    HW155904   1.998   3.550   0.964  0.7627  1.5755 -1.2939
18151SOL    HW255905   1.912   3.581   1.085  0.3023 -0.6245 -1.0027
18152SOL     OW55906   4.727   7.147   9.160  0.2686 -0.1693 -0.3955
18152SOL    HW155907   4.812   7.186   9.180  0.2350  0.3034 -1.1315
18152SOL    HW255908   4.688   7.128   9.245  1.5761 -1.4351 -0.0458
18153SOL     OW55909   4.218   8.327   8.984  0.0260  0.8340 -0.3673
18153SOL    HW155910   4.246   8.288   8.901  1.5556  2.3330 -0.6174
18153SOL    HW255911   4.155   8.394   8.958  0.1388  0.9728 -0.2861
18154SOL     OW55912   5.946   0.953   8.889  0.4057  0.0710 -0.5032
18154SOL    HW155913   5.862   0.945   8.844 -0.8190 -1.1367  1.8004
18154SOL    HW255914   5.965   1.046   8.887 -1.2132  0.4377 -0.7457
18155SOL     OW55915   7.834   0.336   4.620 -0.3879 -0.0862 -0.4253
18155SOL    HW155916   7.916   0.342   4.668  0.1629 -0.2636 -1.3095
18155SOL    HW255917   7.766   0.335   4.687  0.3978 -1.2818  0.3957
18156SOL     OW55918   3.398   2.516   6.657  0.3171 -0.5012 -0.0606
18156SOL    HW155919   3.316   2.471   6.679  0.6233 -0.2886  1.6915
18156SOL    HW255920   3.432   2.545   6.742  2.0745 -0.3379 -0.7919
18157SOL     OW55921   0.528   3.814   6.663 -0.2898 -0.5067  0.2120
18157SOL    HW155922   0.577   3.881   6.711  0.0016 -0.1164 -0.5953
18157SOL    HW255923   0.558   3.731   6.699 -1.3349 -0.1991  1.8766
18158SOL     OW55924   3.771   9.205   6.295 -0.4418  0.7582  0.1353
18158SOL    HW155925   3.799   9.114   6.303 -0.0289  1.0013  2.3977
18158SOL    HW255926   3.692   9.211   6.350 -0.3845  1.7778  0.1361
18159SOL     OW55927   0.153   5.700   6.962 -0.0896  0.2219  0.3891
18159SOL    HW155928   0.213   5.775   6.966 -0.4666  0.5128  0.5937
18159SOL    HW255929   0.206   5.630   6.923  0.6132  0.2456  1.2654
18160SOL     OW55930   4.063   3.498   6.269 -0.3467 -0.2855  0.4528
18160SOL    HW155931   4.016   3.418   6.244 -0.5542 -0.3654  1.0819
18160SOL    HW255932   4.086   3.539   6.185 -0.1057 -1.0766  0.1227
18161SOL     OW55933   2.402   0.364   7.934 -0.4801 -0.3722  0.1266
18161SOL    HW155934   2.423   0.359   7.841 -0.0170 -0.7667  0.2476
18161SOL    HW255935   2.397   0.458   7.952  0.7815 -0.2590 -0.0127
18162SOL     OW55936   5.811   7.365   4.970  0.1563  0.0803 -0.2180
18162SOL    HW155937   5.792   7.456   4.949  0.3563  0.0271 -0.6419
18162SOL    HW255938   5.899   7.350   4.936 -0.1710 -0.4869 -0.8654
18163SOL     OW55939   8.874   3.577   5.225  0.6869 -0.6527  0.1213
18163SOL    HW155940   8.899   3.669   5.231 -1.7782  0.2328 -1.3936
18163SOL    HW255941   8.849   3.565   5.134 -1.1023 -2.2211  0.7520
18164SOL     OW55942   6.729   4.526   8.962  0.1297  0.3650 -0.3631
18164SOL    HW155943   6.780   4.511   9.041 -0.1359  0.9215 -0.0829
18164SOL    HW255944   6.668   4.452   8.958  0.9195 -0.2907 -0.6846
18165SOL     OW55945   4.986   1.271   5.726 -0.1576  0.2378 -0.0036
18165SOL    HW155946   5.070   1.228   5.738  0.3390  1.1709 -0.0623
18165SOL    HW255947   4.927   1.225   5.786  0.7203  0.4443  1.0630
18166SOL     OW55948   2.104   6.490   6.036 -0.0073 -0.1118  0.0456
18166SOL    HW155949   2.175   6.539   6.078 -0.3569 -0.2186  0.7918
18166SOL    HW255950   2.024   6.527   6.073 -0.2724 -2.4015  2.0788
18167SOL     OW55951   1.498   3.553   2.008  0.2317 -0.0480  0.2843
18167SOL    HW155952   1.593   3.556   2.019  0.2710 -0.4642  0.0746
18167SOL    HW255953   1.463   3.600   2.084  0.6450  1.2507 -0.3029
18168SOL     OW55954   2.396   8.014   8.419  0.7422  0.2360  0.3478
18168SOL    HW155955   2.416   8.088   8.360  1.2123 -0.4734 -0.4068
18168SOL    HW255956   2.481   7.976   8.439  0.5117 -0.0143  0.8663
18169SOL     OW55957   7.832   1.002   5.107 -0.1269 -0.1320 -0.3955
18169SOL    HW155958   7.837   0.981   5.201  0.1411  0.6608 -0.2238
18169SOL    HW255959   7.909   1.055   5.090 -0.1281 -0.3400 -1.0946
18170SOL     OW55960   0.392   0.263   8.178  0.2666 -0.3305 -0.6674
18170SOL    HW155961   0.409   0.286   8.269 -0.1261 -0.3842 -0.5781
18170SOL    HW255962   0.457   0.313   8.128  1.4118 -1.3612 -0.2732
18171SOL     OW55963   8.910   7.523   7.261 -0.0926  0.1721 -0.4752
18171SOL    HW155964   8.988   7.479   7.229  0.0283 -0.3278  0.4647
18171SOL    HW255965   8.926   7.535   7.355 -1.3971 -0.5229 -0.1355
18172SOL     OW55966   2.806   1.344   7.570  0.0693 -1.0497 -0.6040
18172SOL    HW155967   2.843   1.284   7.505  1.3250 -2.1745  1.0158
18172SOL    HW255968   2.876   1.408   7.585  0.2795 -1.4937  0.4244
18173SOL     OW55969   1.491   8.498   7.073  0.2677  0.2645  0.2224
18173SOL    HW155970   1.418   8.552   7.100  2.5608  2.9016  1.5735
18173SOL    HW255971   1.491   8.424   7.134 -0.5596  0.8373  0.9212
18174SOL     OW55972   4.204   1.094   2.578 -0.7905  0.0690  0.3329
18174SOL    HW155973   4.165   1.057   2.657  1.0769 -1.8029  0.4688
18174SOL    HW255974   4.242   1.177   2.606  1.3213 -1.3353  1.8868
18175SOL     OW55975   3.180   6.043   0.601 -0.3157  0.5051  0.7340
18175SOL    HW155976   3.210   5.955   0.624  2.1451  1.9745  3.9134
18175SOL    HW255977   3.243   6.074   0.536 -0.4184  0.3862  0.5768
18176SOL     OW55978   9.068   0.511   5.333  0.0952  0.2356  0.1613
18176SOL    HW155979   9.108   0.481   5.414 -0.6326  1.4812  1.0108
18176SOL    HW255980   9.076   0.436   5.273  3.4647  0.3254  0.3112
18177SOL     OW55981   1.845   0.777   2.650  0.0498  0.1679 -0.2538
18177SOL    HW155982   1.931   0.771   2.608 -0.4166 -0.5369 -1.1482
18177SOL    HW255983   1.785   0.797   2.578 -0.5853  0.2917  0.3027
18178SOL     OW55984   4.966   5.375   8.681  0.0410  0.3651  0.4693
18178SOL    HW155985   4.926   5.454   8.717 -0.4561 -0.3884  1.6249
18178SOL    HW255986   4.941   5.375   8.589 -1.3561  0.6930  0.8266
18179SOL     OW55987   4.555   3.062   9.097 -0.1882 -0.6452  0.9762
18179SOL    HW155988   4.598   3.115   9.164 -0.2612  0.8282 -0.1027
18179SOL    HW255989   4.467   3.048   9.131 -0.5517  0.9593  0.7730
18180SOL     OW55990   1.527   2.589   7.661  0.2560  0.7163  0.3844
18180SOL    HW155991   1.553   2.597   7.569  1.5137 -1.8912  0.4133
18180SOL    HW255992   1.432   2.587   7.659  0.2398  1.3186 -0.7688
18181SOL     OW55993   0.381   6.954   5.343 -0.0042 -0.2565 -0.1951
18181SOL    HW155994   0.367   6.860   5.357 -0.2827 -0.4094 -1.4119
18181SOL    HW255995   0.475   6.966   5.349 -0.0291 -0.4541  0.8248
18182SOL     OW55996   1.187   4.582   7.015 -0.5892  0.0570  0.0323
18182SOL    HW155997   1.210   4.500   7.057  0.2344 -0.9820 -2.3337
18182SOL    HW255998   1.269   4.631   7.010 -0.6716  0.1448 -0.4534
18183SOL     OW55999   0.911   5.343   8.006 -1.0515 -1.4626 -0.1923
18183SOL    HW156000   0.881   5.280   7.940 -1.3447  0.0583 -1.5862
18183SOL    HW256001   0.832   5.392   8.029 -0.8804 -1.7553  1.0621
18184SOL     OW56002   6.905   7.502   5.097  0.9092 -0.4758 -0.0140
18184SOL    HW156003   6.968   7.493   5.168  1.0482 -1.4866 -0.2558
18184SOL    HW256004   6.933   7.439   5.031  0.1500 -0.3181 -0.5026
18185SOL     OW56005   8.910   7.714   1.622 -0.3966  0.4880  0.0460
18185SOL    HW156006   8.985   7.722   1.681 -0.6561  0.7499  0.3445
18185SOL    HW256007   8.852   7.651   1.665 -0.2016  0.0414 -0.3408
18186SOL     OW56008   0.727   6.723   1.626 -0.3025  0.3568 -0.0373
18186SOL    HW156009   0.766   6.652   1.678  0.3890  1.1998  0.6334
18186SOL    HW256010   0.738   6.801   1.681  0.0839  1.2061 -1.2889
18187SOL     OW56011   1.547   3.646   1.496 -0.8258  0.1460  0.1363
18187SOL    HW156012   1.542   3.563   1.447 -2.8484 -1.0388  2.1708
18187SOL    HW256013   1.622   3.635   1.555 -1.0877 -0.2372  0.3994
18188SOL     OW56014   0.926   7.008   7.191 -0.9745 -0.1825 -0.0959
18188SOL    HW156015   0.879   7.051   7.262 -0.9164 -1.1410  0.5341
18188SOL    HW256016   1.018   7.012   7.217 -1.0032 -1.0374  0.1689
18189SOL     OW56017   0.634   5.865   4.873 -0.5947  0.1183  0.3542
18189SOL    HW156018   0.580   5.905   4.805 -1.2177 -1.3957 -0.0645
18189SOL    HW256019   0.572   5.815   4.926  0.1823 -0.4010  0.7903
18190SOL     OW56020   4.024   2.288   6.336  0.3166 -0.5017  0.0917
18190SOL    HW156021   4.015   2.253   6.424  0.5133 -2.7696 -0.7389
18190SOL    HW256022   4.081   2.226   6.291  0.8476  1.0183 -1.4356
18191SOL     OW56023   7.921   5.541   6.332  0.0471 -0.3296  0.3971
18191SOL    HW156024   7.939   5.570   6.242  0.5247  2.5709  1.3205
18191SOL    HW256025   8.006   5.547   6.376 -0.3800 -0.7561  1.2922
18192SOL     OW56026   2.845   5.224   0.968  0.2262  0.3996  0.0801
18192SOL    HW156027   2.783   5.288   1.003  0.7745  0.5058  0.8704
18192SOL    HW256028   2.821   5.142   1.010 -1.4782 -0.3135 -2.0793
18193SOL     OW56029   3.344   7.743   5.620 -0.1467  0.3576 -0.2993
18193SOL    HW156030   3.337   7.648   5.612  2.6219  0.1013 -0.7286
18193SOL    HW256031   3.260   7.771   5.655 -0.9247 -2.2785  0.1093
18194SOL     OW56032   1.131   4.435   0.666  0.7376 -0.2900 -0.1065
18194SOL    HW156033   1.184   4.504   0.627  0.0743  0.4932  0.3266
18194SOL    HW256034   1.056   4.425   0.607 -0.5606  1.2974  1.1745
18195SOL     OW56035   2.180   3.771   3.592 -0.0571 -0.1540 -0.4527
18195SOL    HW156036   2.176   3.832   3.518 -0.4924 -2.6381 -2.6109
18195SOL    HW256037   2.154   3.687   3.555  3.0091 -2.2593  1.7480
18196SOL     OW56038   8.269   4.872   7.970  0.8714 -0.1665 -0.2527
18196SOL    HW156039   8.246   4.961   7.942  1.9950 -0.2729 -1.5718
18196SOL    HW256040   8.187   4.838   8.007 -0.2409  0.5835 -1.8913
18197SOL     OW56041   7.747   2.613   6.233 -0.1675  0.2802 -0.2601
18197SOL    HW156042   7.840   2.627   6.216 -0.2829  0.3727 -0.8206
18197SOL    HW256043   7.706   2.698   6.219 -0.5701 -0.1222 -1.6615
18198SOL     OW56044   5.852   8.888   7.214  0.4313 -0.2709  0.0974
18198SOL    HW156045   5.917   8.817   7.216  1.5276  0.6546 -1.1410
18198SOL    HW256046   5.814   8.882   7.127 -0.0745  0.1348  0.2910
18199SOL     OW56047   3.157   8.434   2.059 -0.1633  0.2004  0.2072
18199SOL    HW156048   3.252   8.422   2.066 -0.1630 -1.2508 -1.5845
18199SOL    HW256049   3.127   8.434   2.150  1.4808  0.0018  0.7874
18200SOL     OW56050   2.267   4.248   7.682 -0.3914 -0.3000  0.7496
18200SOL    HW156051   2.282   4.339   7.656 -0.8529 -0.4025  0.0992
18200SOL    HW256052   2.215   4.254   7.761 -1.8225  0.0022 -0.1775
18201SOL     OW56053   4.723   0.095   6.252  0.1936 -0.2089  0.1677
18201SOL    HW156054   4.672   0.174   6.240  0.5793  0.0241  0.0583
18201SOL    HW256055   4.809   0.126   6.281  0.2282 -0.6027  0.4979
18202SOL     OW56056   5.440   2.755   0.934 -0.1345 -0.5279  0.3232
18202SOL    HW156057   5.381   2.828   0.914  0.8028  0.1747  0.0629
18202SOL    HW256058   5.510   2.763   0.869  1.0291 -0.4441  1.5563
18203SOL     OW56059   5.565   5.586   6.199 -0.1482 -0.8000  0.4071
18203SOL    HW156060   5.554   5.496   6.230 -1.3036 -0.2687  1.5949
18203SOL    HW256061   5.478   5.613   6.172 -0.2924  0.7174  2.2097
18204SOL     OW56062   4.019   8.802   8.628 -0.5916  0.0739 -0.3481
18204SOL    HW156063   4.108   8.820   8.657  0.6065 -2.5486 -2.0771
18204SOL    HW256064   4.006   8.709   8.646 -2.2048 -0.0863 -2.0668
18205SOL     OW56065   0.304   4.180   2.214  0.0809  0.0969 -0.1027
18205SOL    HW156066   0.249   4.193   2.137 -0.9443 -1.1040  0.3828
18205SOL    HW256067   0.350   4.098   2.196 -1.0616 -0.8270  1.0315
18206SOL     OW56068   1.994   4.299   1.865 -0.2156  0.0075 -0.0491
18206SOL    HW156069   1.964   4.213   1.896  0.6687 -0.0066  0.8264
18206SOL    HW256070   1.941   4.362   1.914  1.2550 -0.0118  1.7187
18207SOL     OW56071   3.625   3.130   7.330 -0.6512 -0.0630 -0.4292
18207SOL    HW156072   3.613   3.176   7.413 -0.1530  1.4660 -1.1744
18207SOL    HW256073   3.615   3.037   7.352 -0.2173  0.2954  1.3822
18208SOL     OW56074   2.539   3.936   5.251 -0.4803  0.7101 -0.1380
18208SOL    HW156075   2.546   3.946   5.157 -2.7056 -0.0624 -0.4550
18208SOL    HW256076   2.494   4.015   5.281 -0.3892  0.6509  0.1632
18209SOL     OW56077   5.574   6.305   9.229 -0.2566 -0.0754  0.0794
18209SOL    HW156078   5.504   6.252   9.266 -1.3660  0.4837 -1.1427
18209SOL    HW256079   5.652   6.282   9.280 -1.8540  1.4177  3.5013
18210SOL     OW56080   0.931   3.985   0.554  0.3582 -0.4250  0.1583
18210SOL    HW156081   0.992   3.995   0.627 -0.3213  0.3835  0.6283
18210SOL    HW256082   0.914   3.891   0.549  0.4891 -0.4937  0.9718
18211SOL     OW56083   0.660   4.159   0.313 -0.1332 -0.0699 -0.0353
18211SOL    HW156084   0.706   4.090   0.266  0.4518  1.8148 -2.4457
18211SOL    HW256085   0.725   4.228   0.324 -1.4614  1.3245 -0.5339
18212SOL     OW56086   2.811   5.451   4.290 -0.4507 -0.4213 -0.7145
18212SOL    HW156087   2.797   5.382   4.225  2.3211  0.2663 -2.1889
18212SOL    HW256088   2.734   5.508   4.282 -1.5449 -1.9106 -1.2669
18213SOL     OW56089   6.616   4.725   4.181  0.1014  0.2139  0.1771
18213SOL    HW156090   6.533   4.730   4.230  0.6274  2.1315  0.9493
18213SOL    HW256091   6.614   4.802   4.124  0.3896 -0.9399 -1.4388
18214SOL     OW56092   2.156   7.565   6.390 -0.6407  0.4801  0.8656
18214SOL    HW156093   2.176   7.528   6.303 -0.0224  0.3157  1.0782
18214SOL    HW256094   2.127   7.654   6.371 -1.0032  0.2842  0.4473
18215SOL     OW56095   2.292   3.635   0.124  0.3704 -0.1041  0.3286
18215SOL    HW156096   2.237   3.615   0.199  0.6662 -2.0509  0.0800
18215SOL    HW256097   2.363   3.571   0.128  0.2513 -0.4491 -1.7296
18216SOL     OW56098   3.539   8.080   7.508 -0.1323  0.8420  0.5751
18216SOL    HW156099   3.558   8.011   7.446  0.8141  0.8713  0.8120
18216SOL    HW256100   3.518   8.034   7.590  1.0474  0.8251  0.8841
18217SOL     OW56101   5.873   8.698   5.198  0.1202 -0.0945  0.1874
18217SOL    HW156102   5.866   8.621   5.255 -0.3782  0.6350  1.1325
18217SOL    HW256103   5.866   8.773   5.257 -1.1711  0.7000 -0.9188
18218SOL     OW56104   8.969   1.201   9.250 -0.4440  0.4619 -0.4335
18218SOL    HW156105   8.987   1.231   9.339 -0.7257 -3.0966  0.9938
18218SOL    HW256106   8.879   1.231   9.233 -1.5132 -1.1974  1.7444
18219SOL     OW56107   7.372   6.273   6.516 -0.2156  0.6524  0.3901
18219SOL    HW156108   7.324   6.249   6.436 -1.7643  1.1249  1.1248
18219SOL    HW256109   7.394   6.189   6.556  0.6170  0.4124 -0.5501
18220SOL     OW56110   7.525   3.318   5.379  0.1713  0.5336  0.2686
18220SOL    HW156111   7.535   3.364   5.296  0.9557  1.1981  0.7140
18220SOL    HW256112   7.472   3.241   5.358  0.5819  0.5495 -0.8875
18221SOL     OW56113   1.867   0.659   4.183  0.1492 -0.2843  0.0096
18221SOL    HW156114   1.807   0.706   4.126  0.0429 -0.6118 -0.1541
18221SOL    HW256115   1.885   0.577   4.137  1.2747  0.0996 -0.2852
18222SOL     OW56116   8.692   1.537   8.678  0.0185 -0.5122 -0.1750
18222SOL    HW156117   8.743   1.554   8.599 -0.6309 -3.8589 -1.5054
18222SOL    HW256118   8.601   1.549   8.651 -0.2787 -2.7629 -0.3897
18223SOL     OW56119   6.574   2.459   4.325  0.0503 -0.0529  1.0926
18223SOL    HW156120   6.563   2.554   4.329  0.2864  0.0119  0.4199
18223SOL    HW256121   6.669   2.446   4.329  0.0131 -0.2645  1.2820
18224SOL     OW56122   7.010   2.859   5.444  0.2211  0.3034 -0.0507
18224SOL    HW156123   7.054   2.936   5.408 -0.5941  0.7170 -0.1923
18224SOL    HW256124   6.946   2.894   5.505 -0.1470 -0.2602 -0.0985
18225SOL     OW56125   6.202   3.869   5.678 -0.1991 -0.0112 -0.2997
18225SOL    HW156126   6.266   3.847   5.746  1.0325 -0.9524 -1.6853
18225SOL    HW256127   6.215   3.801   5.611 -1.2635  0.9541 -1.5233
18226SOL     OW56128   3.137   5.719   5.632 -0.2083  0.7279  0.1517
18226SOL    HW156129   3.208   5.655   5.637  0.3817  1.4138  0.9665
18226SOL    HW256130   3.115   5.724   5.539 -1.4304 -1.8631  0.2068
18227SOL     OW56131   5.020   8.034   1.271 -0.0907  0.3831 -0.1491
18227SOL    HW156132   5.096   8.043   1.213 -1.5343  1.7423 -1.9898
18227SOL    HW256133   5.040   8.090   1.346  1.1766 -0.1856 -0.0400
18228SOL     OW56134   6.308   4.273   6.147 -0.4705 -0.1808  0.2038
18228SOL    HW156135   6.368   4.199   6.143  1.0578  1.0394 -0.7501
18228SOL    HW256136   6.364   4.350   6.146 -1.9550  1.0358  2.2954
18229SOL     OW56137   7.079   2.565   1.500 -0.1157 -0.2851 -0.6776
18229SOL    HW156138   7.119   2.620   1.432 -0.0330 -0.3487 -0.6808
18229SOL    HW256139   7.001   2.613   1.527  0.5462  0.4054  0.1157
18230SOL     OW56140   6.056   6.742   3.090 -0.2081 -0.2466 -0.0138
18230SOL    HW156141   5.994   6.682   3.051 -0.1786  0.1886 -0.7560
18230SOL    HW256142   6.014   6.771   3.171 -1.7491  1.3151 -1.2896
18231SOL     OW56143   7.385   6.493   4.264  0.3591 -0.1494 -0.3151
18231SOL    HW156144   7.367   6.587   4.264  0.8862 -0.0355  0.5627
18231SOL    HW256145   7.479   6.486   4.246  0.8078 -0.3600  1.8135
18232SOL     OW56146   0.027   1.974   4.588  0.3083 -0.4835  0.2274
18232SOL    HW156147   0.096   1.908   4.592 -0.3791 -1.2928 -0.6713
18232SOL    HW256148  -0.054   1.923   4.594 -0.2182  0.4160  0.9037
18233SOL     OW56149   6.174   0.929   1.607 -0.4880  0.4954 -0.0123
18233SOL    HW156150   6.249   0.869   1.605 -2.5334 -2.2856  0.6992
18233SOL    HW256151   6.177   0.968   1.695 -0.1312  0.0585  0.1716
18234SOL     OW56152   4.593   8.029   8.993 -0.0094 -0.9657  0.2768
18234SOL    HW156153   4.540   8.021   8.914 -2.1375 -0.2448  1.5315
18234SOL    HW256154   4.620   7.939   9.013 -1.2571 -1.4482 -0.1160
18235SOL     OW56155   3.043   0.127   2.234 -0.1292  0.4796 -0.2300
18235SOL    HW156156   3.055   0.042   2.192 -1.0430  0.1062  0.2260
18235SOL    HW256157   3.115   0.132   2.297 -0.4972 -0.3210  0.2851
18236SOL     OW56158   6.873   6.178   7.302  0.0577  0.4119  0.1820
18236SOL    HW156159   6.837   6.106   7.354 -0.0727  0.0266 -0.4324
18236SOL    HW256160   6.967   6.179   7.324  0.1520 -0.2575 -0.1562
18237SOL     OW56161   1.821   4.431   5.831  0.3977 -0.4881 -0.2310
18237SOL    HW156162   1.805   4.455   5.740 -1.1811  0.5145  0.2615
18237SOL    HW256163   1.758   4.483   5.881  0.0986 -2.1936  1.3059
18238SOL     OW56164   3.261   7.100   6.383 -0.3261 -0.4188 -0.1449
18238SOL    HW156165   3.179   7.056   6.359 -1.4205  1.0536  0.7555
18238SOL    HW256166   3.253   7.115   6.477  1.6547 -1.5531  0.2404
18239SOL     OW56167   4.410   5.479   5.479  0.1501  0.0775 -0.0369
18239SOL    HW156168   4.477   5.507   5.541  1.3723 -0.2421 -1.1527
18239SOL    HW256169   4.422   5.536   5.403 -0.7171 -0.1222 -0.3416
18240SOL     OW56170   3.083   1.765   6.405  0.0066 -0.9841 -0.0978
18240SOL    HW156171   3.097   1.796   6.316 -2.4053  1.5202  0.2553
18240SOL    HW256172   2.988   1.753   6.412 -0.3715  2.1489  2.9615
18241SOL     OW56173   7.662   5.869   8.231  0.1075  0.2008 -0.2399
18241SOL    HW156174   7.653   5.918   8.149 -0.0742  0.6652  0.0576
18241SOL    HW256175   7.572   5.852   8.259  0.1464 -1.2162 -0.8705
18242SOL     OW56176   0.555   2.913   2.096  0.2201 -0.2555 -0.6382
18242SOL    HW156177   0.629   2.935   2.039  0.0442  0.4100 -0.6139
18242SOL    HW256178   0.563   2.819   2.110  0.8899 -0.2391 -0.8830
18243SOL     OW56179   7.099   0.516   7.714 -0.2525  0.0867 -0.0483
18243SOL    HW156180   7.180   0.538   7.759  0.7273  0.4425 -1.8831
18243SOL    HW256181   7.125   0.452   7.648 -1.3148  0.7534 -1.1652
18244SOL     OW56182   7.416   5.423   3.359  0.3316 -0.5160 -0.0580
18244SOL    HW156183   7.467   5.439   3.279  2.0113 -1.7930  0.6919
18244SOL    HW256184   7.472   5.457   3.430 -0.5688 -0.5355  0.6746
18245SOL     OW56185   2.698   8.374   8.030 -0.1705 -0.1406 -0.3291
18245SOL    HW156186   2.774   8.431   8.037 -0.4167  0.0437  1.0689
18245SOL    HW256187   2.626   8.425   8.068 -0.7358 -0.7775 -0.5220
18246SOL     OW56188   6.713   4.775   9.142 -0.2105  0.1258  0.5220
18246SOL    HW156189   6.739   4.706   9.081 -1.2484 -0.5027  0.7746
18246SOL    HW256190   6.740   4.742   9.228 -1.4478 -0.3640  0.7420
18247SOL     OW56191   7.833   5.397   6.904  0.5635  0.8027  0.2103
18247SOL    HW156192   7.846   5.484   6.866  1.5129  0.6363  0.1418
18247SOL    HW256193   7.872   5.401   6.990  1.5094  0.1576 -0.1741
18248SOL     OW56194   3.462   8.629   1.906  0.1988 -0.6439  0.3597
18248SOL    HW156195   3.555   8.641   1.887  0.1241  2.0883  1.2307
18248SOL    HW256196   3.437   8.551   1.856  2.6542 -0.7431 -0.8746
18249SOL     OW56197   8.442   7.054   0.912 -0.6019 -0.2582  0.1594
18249SOL    HW156198   8.426   7.052   1.006  0.6565  0.9772  0.4201
18249SOL    HW256199   8.387   7.125   0.880  0.3875  0.5722  0.2674
18250SOL     OW56200   4.649   9.042   6.477 -0.0538 -0.2454 -0.9466
18250SOL    HW156201   4.595   8.966   6.494  0.2181 -0.3442 -0.5207
18250SOL    HW256202   4.604   9.088   6.405 -1.0559  0.0295 -0.1632
18251SOL     OW56203   3.879   0.735   9.268  0.3774 -0.3494 -0.1227
18251SOL    HW156204   3.818   0.746   9.195  0.4796  1.1856 -0.0097
18251SOL    HW256205   3.905   0.643   9.264 -1.0961 -0.7623 -0.8357
18252SOL     OW56206   8.026   5.090   4.418  0.0396 -0.6375  0.0354
18252SOL    HW156207   8.020   5.063   4.326  1.7063  0.3912 -0.4269
18252SOL    HW256208   8.065   5.178   4.414 -2.6076  0.7289  1.5886
18253SOL     OW56209   5.540   7.028   5.067 -0.2554 -0.3093 -0.2820
18253SOL    HW156210   5.463   7.052   5.015 -0.2534  1.5507  0.4894
18253SOL    HW256211   5.506   7.019   5.156  0.6049  2.1494  0.3796
18254SOL     OW56212   8.932   1.279   2.142 -0.0773 -0.3565  0.2219
18254SOL    HW156213   8.842   1.262   2.170  0.2554  0.0659  1.6121
18254SOL    HW256214   8.984   1.269   2.222  1.0919 -0.4401 -0.5329
18255SOL     OW56215   3.313   8.057   1.269  0.7084  0.1079 -0.7273
18255SOL    HW156216   3.251   8.003   1.221 -1.1180 -1.5382  3.0261
18255SOL    HW256217   3.365   7.994   1.320  2.2647  1.6782 -0.2877
18256SOL     OW56218   4.162   0.446   5.581  0.5148  0.0972 -0.2473
18256SOL    HW156219   4.252   0.412   5.572  0.4100 -0.0058 -0.9358
18256SOL    HW256220   4.137   0.423   5.670  1.4960  0.9126  0.2590
18257SOL     OW56221   1.719   3.023   7.206  0.3955  0.1885  0.1645
18257SOL    HW156222   1.714   2.954   7.272 -0.4218  0.7777  0.7386
18257SOL    HW256223   1.789   3.080   7.237 -0.0670  0.5286  0.5924
18258SOL     OW56224   5.298   2.412   8.730 -0.2158 -0.1596  0.2951
18258SOL    HW156225   5.390   2.408   8.704 -0.3040 -0.8687  0.0797
18258SOL    HW256226   5.290   2.495   8.777  1.1008 -1.1496  2.4355
18259SOL     OW56227   7.505   6.816   3.244  0.4130  0.0890  0.5050
18259SOL    HW156228   7.417   6.842   3.218  1.1012 -0.2175 -2.4687
18259SOL    HW256229   7.494   6.773   3.329 -2.4041 -0.5359 -0.0941
18260SOL     OW56230   4.424   5.086   0.192  0.1408 -0.6508 -0.0000
18260SOL    HW156231   4.449   4.994   0.187 -0.2695 -0.9403  2.2554
18260SOL    HW256232   4.355   5.089   0.258  1.2624  1.4704  1.2045
18261SOL     OW56233   2.772   7.867   0.587  0.0312  0.3355 -0.7117
18261SOL    HW156234   2.779   7.783   0.540 -2.2285  0.1032 -0.7542
18261SOL    HW256235   2.788   7.933   0.520  1.9098 -0.0136 -0.6649
18262SOL     OW56236   7.167   8.306   5.552 -0.1849  0.5347  0.0180
18262SOL    HW156237   7.208   8.382   5.512  0.3539  0.4536  0.4136
18262SOL    HW256238   7.187   8.234   5.492 -0.5066  0.6536 -0.2408
18263SOL     OW56239   3.706   6.508   9.258 -0.2773  0.1898  0.4303
18263SOL    HW156240   3.661   6.538   9.178 -0.9634  2.4136  1.5478
18263SOL    HW256241   3.663   6.426   9.281 -0.9814  0.2057 -0.7481
18264SOL     OW56242   4.873   5.047   8.449  0.3973 -0.3806 -0.6530
18264SOL    HW156243   4.847   5.041   8.541  1.2902 -1.4766 -0.4535
18264SOL    HW256244   4.809   5.106   8.410 -0.6323 -0.7285  0.4464
18265SOL     OW56245   5.903   5.587   7.907  0.4980 -0.0010 -0.0542
18265SOL    HW156246   5.860   5.635   7.836  0.4557 -0.6182 -0.4621
18265SOL    HW256247   5.911   5.650   7.978  0.8536  0.7350 -0.7296
18266SOL     OW56248   3.617   1.544   5.258 -0.2310 -0.4011 -0.2527
18266SOL    HW156249   3.652   1.588   5.335 -1.0219  0.3049 -0.2744
18266SOL    HW256250   3.619   1.451   5.280 -1.9565 -0.1400  1.3092
18267SOL     OW56251   0.339   8.293   5.991 -0.4522  0.1953 -0.2017
18267SOL    HW156252   0.250   8.259   5.994  0.0542 -1.1139  0.8151
18267SOL    HW256253   0.385   8.235   5.930  0.3868 -0.9695  1.4475
18268SOL     OW56254   2.378   8.377   3.667  0.6118  0.0038  0.1551
18268SOL    HW156255   2.463   8.415   3.646  0.3854  1.1436  1.1755
18268SOL    HW256256   2.341   8.436   3.733 -1.4039  0.1038 -0.9928
18269SOL     OW56257   2.689   8.772   4.147 -0.2756 -0.1638  0.1398
18269SOL    HW156258   2.622   8.833   4.117 -0.3835 -0.6130 -0.5783
18269SOL    HW256259   2.719   8.807   4.230 -2.4363 -0.7176  1.2310
18270SOL     OW56260   2.491   6.255   6.877 -0.1092 -0.6635 -0.1531
18270SOL    HW156261   2.556   6.255   6.808 -0.9464  0.5098 -0.9854
18270SOL    HW256262   2.498   6.169   6.918  3.2463  0.0596  1.0628
18271SOL     OW56263   5.413   0.550   8.752 -0.5320  0.4563  0.3433
18271SOL    HW156264   5.478   0.586   8.812 -0.9301  2.5340 -0.3727
18271SOL    HW256265   5.367   0.484   8.803  0.2335  0.9761  1.7743
18272SOL     OW56266   8.129   8.961   5.476 -0.0296 -0.5687  0.6384
18272SOL    HW156267   8.205   8.991   5.427 -1.1990  2.2296  0.3668
18272SOL    HW256268   8.163   8.946   5.565  0.6872  2.0107  0.9027
18273SOL     OW56269   5.947   8.294   8.195 -0.7546  0.5086 -0.4864
18273SOL    HW156270   5.964   8.202   8.178 -1.8896  0.2070 -0.1350
18273SOL    HW256271   5.929   8.332   8.109 -1.5166  0.1066 -0.5171
18274SOL     OW56272   6.988   7.774   1.164  0.5000 -0.0819 -0.1741
18274SOL    HW156273   6.988   7.862   1.203  0.3805  0.7412 -1.9410
18274SOL    HW256274   7.078   7.743   1.176 -0.2106 -1.2643  3.5767
18275SOL     OW56275   8.059   6.007   8.914  0.0113 -0.1804 -0.1559
18275SOL    HW156276   8.022   5.937   8.968  0.3776  0.1611  0.5711
18275SOL    HW256277   8.115   5.962   8.851  0.6755 -0.5268  0.6577
18276SOL     OW56278   1.573   5.832   4.833 -0.2689 -0.1157 -0.0376
18276SOL    HW156279   1.523   5.766   4.785 -0.6577 -1.0476  1.5424
18276SOL    HW256280   1.614   5.886   4.766 -2.4819 -0.0148 -1.3934
18277SOL     OW56281   7.650   6.252   1.936 -0.0669  0.0743  0.4762
18277SOL    HW156282   7.595   6.215   2.005  0.4468  0.8998  1.3471
18277SOL    HW256283   7.589   6.300   1.880 -0.5962 -1.2192 -0.1186
18278SOL     OW56284   8.414   8.173   4.423 -0.0588  0.2159  0.0819
18278SOL    HW156285   8.421   8.267   4.406  0.8036  0.3321  0.9967
18278SOL    HW256286   8.407   8.167   4.518  0.8763 -0.6852  0.1076
18279SOL     OW56287   8.262   5.637   0.329 -0.4734 -0.0163  0.0550
18279SOL    HW156288   8.279   5.562   0.272 -0.1229 -0.4161  0.6823
18279SOL    HW256289   8.201   5.691   0.278 -0.5063 -0.5762 -0.5238
18280SOL     OW56290   5.143   5.852   1.465 -0.1329  0.8786  0.0022
18280SOL    HW156291   5.181   5.927   1.509 -1.0392  1.2006  0.2544
18280SOL    HW256292   5.218   5.801   1.436  0.4871  1.5816  0.3355
18281SOL     OW56293   0.637   7.679   0.182  0.1406  0.0014  0.0753
18281SOL    HW156294   0.549   7.658   0.211  0.7595 -1.8261  0.7945
18281SOL    HW256295   0.660   7.759   0.229 -1.0697  0.4330 -0.0324
18282SOL     OW56296   7.099   6.497   8.386  0.1395 -0.2545  0.1306
18282SOL    HW156297   7.114   6.538   8.471  2.5261  0.3277 -0.5081
18282SOL    HW256298   7.005   6.480   8.384 -0.1761  0.9029  2.3364
18283SOL     OW56299   3.418   7.349   7.605 -0.7822  0.8217  0.1339
18283SOL    HW156300   3.475   7.293   7.553  0.1225  0.1901  1.7230
18283SOL    HW256301   3.343   7.367   7.549  0.0767  0.0638 -1.3043
18284SOL     OW56302   1.921   2.465   4.655  0.0411 -0.5228  0.3966
18284SOL    HW156303   1.908   2.559   4.654 -0.7963 -0.5766  2.4345
18284SOL    HW256304   2.004   2.451   4.610 -0.3240  1.0705 -0.8408
18285SOL     OW56305   6.503   0.972   1.110  0.2905  0.2017  0.3078
18285SOL    HW156306   6.468   0.966   1.199 -0.7203  1.9114  0.0608
18285SOL    HW256307   6.480   1.060   1.080  2.4221  0.4172 -0.9190
18286SOL     OW56308   5.304   2.145   0.866  0.2468  0.0737 -0.0963
18286SOL    HW156309   5.358   2.074   0.833 -0.4920 -1.0040  0.9276
18286SOL    HW256310   5.344   2.170   0.950 -0.2190 -0.0160  0.1594
18287SOL     OW56311   8.263   3.454   5.594 -0.0402  0.9037  0.5364
18287SOL    HW156312   8.192   3.466   5.656 -0.1302  1.4843  0.3201
18287SOL    HW256313   8.272   3.359   5.586 -1.6628  0.7912 -0.4252
18288SOL     OW56314   6.408   5.616   2.041 -0.2227  0.7719  0.7419
18288SOL    HW156315   6.369   5.652   2.121 -1.2186  0.1397  0.5573
18288SOL    HW256316   6.336   5.614   1.978  0.0589 -0.5458  0.4323
18289SOL     OW56317   7.723   7.800   3.553 -0.7567 -0.3108 -0.6689
18289SOL    HW156318   7.768   7.723   3.517 -0.3724  0.6029 -2.2522
18289SOL    HW256319   7.674   7.836   3.479 -0.4406  1.3041 -0.1413
18290SOL     OW56320   7.467   2.857   8.962  0.3850 -0.2694  0.0181
18290SOL    HW156321   7.448   2.787   8.899 -0.8654  0.6832 -0.7089
18290SOL    HW256322   7.422   2.829   9.042  1.3388 -1.1117  0.2830
18291SOL     OW56323   0.191   6.331   3.541  0.9442  0.0995 -0.0901
18291SOL    HW156324   0.279   6.315   3.507  1.4613  0.7585  0.8939
18291SOL    HW256325   0.137   6.263   3.501  0.9963  2.0812 -4.0530
18292SOL     OW56326   1.184   8.830   5.475  0.0764  0.0597  0.1850
18292SOL    HW156327   1.214   8.892   5.542  2.6161 -0.8327 -0.0179
18292SOL    HW256328   1.089   8.834   5.480  0.1690  2.3789  1.6342
18293SOL     OW56329   9.069   6.787   2.056 -0.2176  0.2601 -0.1262
18293SOL    HW156330   8.980   6.758   2.034  0.4541 -0.2730 -2.4157
18293SOL    HW256331   9.126   6.728   2.007  1.3968  0.9779  0.8230
18294SOL     OW56332   3.964   7.218   6.581  0.0117  0.1378  0.0229
18294SOL    HW156333   4.014   7.253   6.507  0.3949  0.3178  0.3642
18294SOL    HW256334   3.938   7.130   6.553 -0.3464  0.4184 -0.5565
18295SOL     OW56335   7.359   6.302   1.219  0.2338  0.2272  0.1882
18295SOL    HW156336   7.408   6.225   1.193 -1.2409 -0.2051 -1.4790
18295SOL    HW256337   7.328   6.340   1.137 -0.5559  1.5949  1.0772
18296SOL     OW56338   5.424   5.906   2.122 -0.0137 -0.1411 -0.4695
18296SOL    HW156339   5.389   5.931   2.036  1.4999 -0.5720 -1.2488
18296SOL    HW256340   5.347   5.906   2.180 -1.2091 -0.5505 -1.9691
18297SOL     OW56341   0.371   4.501   1.612  0.5989  0.4272 -0.1953
18297SOL    HW156342   0.317   4.501   1.691 -0.1249 -1.0625 -0.6430
18297SOL    HW256343   0.318   4.546   1.546 -0.1407 -0.9770 -0.6166
18298SOL     OW56344   1.772   3.987   6.779  0.1969 -0.2106 -0.2933
18298SOL    HW156345   1.724   3.937   6.713 -1.7456  1.1972 -0.0333
18298SOL    HW256346   1.829   4.045   6.729 -0.9980  0.5881 -0.7655
18299SOL     OW56347   5.566   5.784   1.789 -0.5885  0.3362  0.6762
18299SOL    HW156348   5.596   5.818   1.705 -0.2062 -1.2803  0.1239
18299SOL    HW256349   5.623   5.826   1.853  0.6014 -0.0896 -0.0720
18300SOL     OW56350   5.505   1.867   9.014 -0.2996 -0.8418  0.3028
18300SOL    HW156351   5.585   1.880   9.066 -0.0720 -2.8989  0.5308
18300SOL    HW256352   5.515   1.927   8.940  0.0031  1.1653  1.8707
18301SOL     OW56353   5.727   5.956   7.060 -0.5078  0.1863 -0.4696
18301SOL    HW156354   5.714   5.986   7.150 -0.3021 -0.3126 -0.2691
18301SOL    HW256355   5.660   5.889   7.047  0.7274 -1.2181  0.0192
18302SOL     OW56356   6.415   8.201   2.932 -0.4369 -0.3735  0.5144
18302SOL    HW156357   6.326   8.202   2.895  0.5762 -1.3985 -2.1972
18302SOL    HW256358   6.452   8.118   2.903  1.0463 -0.5348  2.6477
18303SOL     OW56359   9.107   4.324   8.524  0.3782 -0.6053  0.1145
18303SOL    HW156360   9.078   4.242   8.565  2.9495 -0.1860  3.1764
18303SOL    HW256361   9.192   4.302   8.485 -0.3035 -0.0290 -1.8366
18304SOL     OW56362   1.765   3.602   2.018 -0.0367 -0.5475  0.2342
18304SOL    HW156363   1.820   3.562   2.086  1.3838 -0.9750 -1.1026
18304SOL    HW256364   1.809   3.684   1.996  0.0064 -0.8209 -0.7512
18305SOL     OW56365   7.065   4.791   0.435 -0.6545 -0.7255 -0.2859
18305SOL    HW156366   7.099   4.705   0.459  0.4067 -0.4269 -0.6622
18305SOL    HW256367   7.129   4.853   0.469 -1.4323 -0.0681  0.0202
18306SOL     OW56368   1.509   2.209   8.440  0.2220  0.6321 -0.6007
18306SOL    HW156369   1.434   2.247   8.487  1.2390  1.7114  0.2160
18306SOL    HW256370   1.491   2.115   8.438 -1.1580  0.8665 -0.4307
18307SOL     OW56371   6.588   2.124   8.045 -0.0899  0.0750  0.4378
18307SOL    HW156372   6.562   2.103   8.134  0.5297 -1.1783  0.3436
18307SOL    HW256373   6.606   2.218   8.047 -2.0270  0.4757  1.1177
18308SOL     OW56374   4.224   2.087   8.168  0.4524 -0.0549 -0.0524
18308SOL    HW156375   4.241   2.047   8.253  0.6376  0.8671  0.3516
18308SOL    HW256376   4.177   2.019   8.118 -0.6404 -0.2204  1.1562
18309SOL     OW56377   3.993   9.201   0.635  0.3645 -0.2557 -0.4140
18309SOL    HW156378   3.898   9.213   0.641  0.5427  0.6852  0.9935
18309SOL    HW256379   4.018   9.247   0.554 -0.5178 -1.6568 -1.5268
18310SOL     OW56380   8.094   2.395   3.179  0.5617 -0.0796 -0.1904
18310SOL    HW156381   8.148   2.322   3.210  0.4647 -0.6965 -1.4369
18310SOL    HW256382   8.157   2.465   3.161  0.8237 -0.3861 -0.4852
18311SOL     OW56383   3.905   7.922   2.468  0.0602  0.2858 -0.1897
18311SOL    HW156384   3.885   7.967   2.551 -0.7803  0.3188 -0.4004
18311SOL    HW256385   3.899   7.991   2.402 -0.4604  0.0188 -0.4208
18312SOL     OW56386   9.018   6.410   4.131 -0.1332 -0.1204  0.2439
18312SOL    HW156387   9.015   6.316   4.112 -0.9046 -0.2616  0.9654
18312SOL    HW256388   9.074   6.417   4.208  0.5078  0.0975 -0.2380
18313SOL     OW56389   6.750   5.082   1.554 -0.3019 -0.8356 -0.1784
18313SOL    HW156390   6.670   5.033   1.536  1.3046 -2.9918 -1.9688
18313SOL    HW256391   6.806   5.020   1.601  0.6666  0.3411  0.2883
18314SOL     OW56392   7.453   7.706   3.649  0.6145 -0.0777  0.1026
18314SOL    HW156393   7.506   7.728   3.572  2.4772  0.5477  1.4817
18314SOL    HW256394   7.404   7.786   3.667  1.2741  0.2764  0.3808
18315SOL     OW56395   0.573   3.223   6.166 -0.1271  0.5442  0.8981
18315SOL    HW156396   0.515   3.190   6.235 -0.9948 -1.4537 -0.6480
18315SOL    HW256397   0.513   3.260   6.101  0.6640  2.3242  1.1318
18316SOL     OW56398   4.531   2.192   6.486 -0.3470 -0.0477 -0.5621
18316SOL    HW156399   4.438   2.210   6.472 -0.7787 -1.1558  0.6932
18316SOL    HW256400   4.536   2.097   6.492  0.6895  0.0583  0.5556
18317SOL     OW56401   4.123   6.077   0.523 -0.5657 -0.0458  0.5385
18317SOL    HW156402   4.055   6.144   0.529 -0.2480  0.3424 -0.1073
18317SOL    HW256403   4.117   6.044   0.433  1.1918  1.1955 -0.0954
18318SOL     OW56404   5.008   1.902   3.385  0.3388 -0.6035  0.7357
18318SOL    HW156405   4.979   1.853   3.309  0.7186  0.8571 -0.4027
18318SOL    HW256406   4.966   1.859   3.459 -0.0524 -2.0519 -0.2839
18319SOL     OW56407   6.666   4.524   3.309  0.1168  0.1926 -0.3646
18319SOL    HW156408   6.675   4.456   3.242  0.0519  1.0331 -1.2577
18319SOL    HW256409   6.725   4.594   3.280  1.6874 -0.2496  1.5845
18320SOL     OW56410   3.417   0.745   4.785  0.3822 -0.1518 -0.7717
18320SOL    HW156411   3.414   0.706   4.697  1.6147  2.4248 -2.0810
18320SOL    HW256412   3.508   0.737   4.811  0.5644  1.3772 -0.8826
18321SOL     OW56413   0.089   5.075   5.000 -0.6595  0.4084 -0.4273
18321SOL    HW156414   0.155   5.057   4.934 -0.6816  0.0153 -0.3415
18321SOL    HW256415   0.039   5.149   4.963  0.9992  2.0004  0.3493
18322SOL     OW56416   5.055   4.683   9.261 -0.1081 -0.6789  0.1023
18322SOL    HW156417   5.010   4.639   9.333  1.7873 -0.5719  1.4109
18322SOL    HW256418   5.107   4.614   9.219 -0.6579 -0.5953 -0.7374
18323SOL     OW56419   7.423   5.878   3.832  0.8375 -0.1959 -0.4689
18323SOL    HW156420   7.462   5.895   3.918  1.0068 -1.8426 -0.1803
18323SOL    HW256421   7.356   5.811   3.849  1.5757 -1.3157 -1.7489
18324SOL     OW56422   2.146   2.043   5.308 -0.0162 -0.3338 -0.4487
18324SOL    HW156423   2.147   1.951   5.281 -1.7462  0.1596 -2.4882
18324SOL    HW256424   2.177   2.042   5.399  2.3989 -2.6045 -1.1766
18325SOL     OW56425   1.517   5.867   0.446  0.2501 -0.1183 -0.1753
18325SOL    HW156426   1.511   5.818   0.528  0.6005 -0.0034 -0.0815
18325SOL    HW256427   1.522   5.799   0.378  1.4401 -0.2260  0.0012
18326SOL     OW56428   2.156   1.699   4.813  0.3956 -0.8528 -0.4611
18326SOL    HW156429   2.118   1.643   4.746 -0.3762 -1.9433  0.8372
18326SOL    HW256430   2.089   1.765   4.830 -0.1438 -1.6088  0.4360
18327SOL     OW56431   8.717   0.619   0.870  0.3998 -0.7352  0.2655
18327SOL    HW156432   8.730   0.598   0.963  0.7867 -0.7374  0.2094
18327SOL    HW256433   8.692   0.711   0.869  1.9518 -0.2868  0.2543
18328SOL     OW56434   4.613   8.334   8.356 -0.1590 -0.4429  0.5198
18328SOL    HW156435   4.532   8.382   8.375  0.4692  0.7548  0.2822
18328SOL    HW256436   4.636   8.290   8.438 -0.5357 -0.0130  0.8564
18329SOL     OW56437   3.409   8.381   2.107 -0.6909 -0.6551 -0.1770
18329SOL    HW156438   3.457   8.450   2.060 -0.6546  0.6394  1.6494
18329SOL    HW256439   3.472   8.348   2.171 -1.6035 -0.3528  0.8975
18330SOL     OW56440   8.494   7.111   1.428 -0.7084 -0.1951  0.0159
18330SOL    HW156441   8.562   7.048   1.452  0.0476  0.6405  0.1018
18330SOL    HW256442   8.413   7.072   1.461 -0.2340 -1.0475  0.2053
18331SOL     OW56443   2.483   3.944   1.055 -0.1819 -0.5083 -0.0731
18331SOL    HW156444   2.561   3.901   1.020  2.6660  1.6875  2.9873
18331SOL    HW256445   2.447   3.881   1.117  0.8518 -0.5227  0.5345
18332SOL     OW56446   7.942   0.622   3.100  0.1953 -0.3372  0.0012
18332SOL    HW156447   7.851   0.621   3.131 -0.2574  0.9687 -1.1708
18332SOL    HW256448   7.983   0.692   3.152 -0.3175  1.1956 -1.5459
18333SOL     OW56449   2.188   2.976   3.681  0.1918 -0.1790  0.4960
18333SOL    HW156450   2.151   2.944   3.599 -1.1353  0.9958  0.5945
18333SOL    HW256451   2.261   3.032   3.654  0.3917 -0.5841  0.1762
18334SOL     OW56452   7.975   0.290   2.735  0.1359  0.3019 -0.4025
18334SOL    HW156453   7.994   0.323   2.823 -1.9318  0.0633  0.1721
18334SOL    HW256454   7.952   0.368   2.685 -0.6236  0.2368 -0.1734
18335SOL     OW56455   9.132   8.974   0.413  0.8166  0.3639 -0.4176
18335SOL    HW156456   9.062   9.030   0.447  0.2315  0.6502 -2.0295
18335SOL    HW256457   9.161   8.925   0.489 -1.4425 -0.0902  0.2325
18336SOL     OW56458   2.859   5.943   3.406 -0.4000  0.2122  0.0639
18336SOL    HW156459   2.800   5.883   3.360 -1.7078  1.2250  0.3848
18336SOL    HW256460   2.924   5.967   3.340 -0.3347 -0.8938 -0.3019
18337SOL     OW56461   4.821   8.929   5.061  0.0905 -0.2834  0.1142
18337SOL    HW156462   4.829   8.974   5.145 -1.3906  1.6114 -0.6599
18337SOL    HW256463   4.770   8.851   5.079 -0.3179  0.1709  0.9716
18338SOL     OW56464   5.272   4.623   5.845 -0.7838 -0.1351  0.5258
18338SOL    HW156465   5.222   4.588   5.771 -1.5306 -0.7745  1.3060
18338SOL    HW256466   5.211   4.681   5.891  0.8898  3.7827 -1.6872
18339SOL     OW56467   0.223   3.129   3.951 -0.3364 -0.2228 -0.2804
18339SOL    HW156468   0.315   3.105   3.938 -0.6526 -2.7213  1.3619
18339SOL    HW256469   0.225   3.203   4.011  0.5924 -0.7749  0.3807
18340SOL     OW56470   7.285   4.090   8.082 -0.3343 -0.2420 -0.2479
18340SOL    HW156471   7.265   3.997   8.072 -0.7611 -0.3686  1.4563
18340SOL    HW256472   7.216   4.124   8.139  0.3999  0.8825  0.0062
18341SOL     OW56473   8.808   7.315   5.365  0.3188  0.1004 -0.0338
18341SOL    HW156474   8.772   7.366   5.437  0.4622 -0.3830  0.3783
18341SOL    HW256475   8.795   7.371   5.288 -0.0002  0.5366  0.3323
18342SOL     OW56476   1.396   5.483   0.029  0.3153 -0.4910 -0.4466
18342SOL    HW156477   1.469   5.435   0.069  0.3974  0.9009  1.1687
18342SOL    HW256478   1.319   5.454   0.077  0.1801  0.0036 -0.3636
18343SOL     OW56479   5.937   1.999   1.887  0.0428  0.5795 -0.3498
18343SOL    HW156480   5.981   1.926   1.932 -1.1283  0.6091  0.8975
18343SOL    HW256481   5.846   1.972   1.881 -0.5912  2.2914  0.9380
18344SOL     OW56482   1.516   3.434   7.099 -0.0905 -0.3299 -0.1874
18344SOL    HW156483   1.572   3.418   7.176 -0.0701  1.1779  0.1346
18344SOL    HW256484   1.427   3.424   7.132 -0.0937  0.7631  0.1506
18345SOL     OW56485   4.914   0.517   3.033  0.2603 -0.7038  0.4008
18345SOL    HW156486   4.878   0.590   2.982  0.8796  0.2657  1.2981
18345SOL    HW256487   4.878   0.529   3.120  0.8127 -1.1444  0.6939
18346SOL     OW56488   2.472   5.594   3.556  0.5902 -0.1275 -0.4992
18346SOL    HW156489   2.385   5.613   3.590 -0.4514 -0.7950 -2.6133
18346SOL    HW256490   2.514   5.680   3.548  0.4215  0.1439  1.1616
18347SOL     OW56491   4.743   5.305   4.508  0.1234 -0.4773 -0.1653
18347SOL    HW156492   4.757   5.247   4.433  1.8422 -1.1568  0.6237
18347SOL    HW256493   4.772   5.391   4.478  1.2467 -0.8400 -0.1755
18348SOL     OW56494   8.999   0.504   3.271 -0.3576  0.0656  0.4174
18348SOL    HW156495   8.947   0.511   3.351  0.4115 -2.0915  1.1864
18348SOL    HW256496   8.936   0.479   3.204 -0.4455 -2.2950  1.2904
18349SOL     OW56497   3.289   1.592   8.421 -0.3532 -0.0422 -0.0161
18349SOL    HW156498   3.259   1.683   8.419 -1.3667 -0.3504  0.3916
18349SOL    HW256499   3.330   1.582   8.507 -0.2111  0.0401 -0.0754
18350SOL     OW56500   2.352   3.635   5.132  0.3818 -0.3201  0.4320
18350SOL    HW156501   2.359   3.687   5.052 -0.2433  0.5064  0.8978
18350SOL    HW256502   2.258   3.622   5.145  0.5368 -2.4727 -0.2199
18351SOL     OW56503   6.551   5.983   0.465 -0.4146  0.1887 -0.0450
18351SOL    HW156504   6.559   6.074   0.494  0.6237 -0.0206  0.3913
18351SOL    HW256505   6.512   5.989   0.378 -1.0647  0.9996  0.2924
18352SOL     OW56506   7.984   4.151   0.983  0.3571  0.1311  0.0369
18352SOL    HW156507   8.057   4.134   1.043  0.3586  0.6578  0.1917
18352SOL    HW256508   7.974   4.247   0.984 -2.1960 -0.0261  2.2866
18353SOL     OW56509   4.407   5.819   6.173  0.1530  0.0605 -0.2189
18353SOL    HW156510   4.468   5.869   6.228  1.0074  1.5013 -2.3445
18353SOL    HW256511   4.320   5.848   6.201  0.4216 -1.0126  1.9252
18354SOL     OW56512   7.620   5.966   8.749 -0.1135  0.6097 -0.2201
18354SOL    HW156513   7.582   5.886   8.785  1.5658  0.3235  1.0827
18354SOL    HW256514   7.650   5.942   8.662  0.6987 -0.3095  0.2933
18355SOL     OW56515   9.237   3.750   2.788 -0.2468 -0.1901  0.5892
18355SOL    HW156516   9.235   3.821   2.724  0.8988  0.2063  0.9721
18355SOL    HW256517   9.155   3.761   2.837 -0.5419  0.2654  0.0127
18356SOL     OW56518   5.170   1.179   7.778  0.5995 -0.2083 -0.0949
18356SOL    HW156519   5.115   1.227   7.716  2.6076  2.1258 -0.2296
18356SOL    HW256520   5.135   1.203   7.864  0.3052 -0.1918 -0.2168
18357SOL     OW56521   7.691   6.602   3.452  0.1642  0.0331  0.1272
18357SOL    HW156522   7.606   6.561   3.440  0.1289  0.0759  0.2302
18357SOL    HW256523   7.671   6.692   3.478  0.1887  0.9381 -2.5908
18358SOL     OW56524   3.097   7.432   2.349  0.6554 -0.4445 -0.4645
18358SOL    HW156525   3.120   7.379   2.425  0.8525 -0.8039 -0.7721
18358SOL    HW256526   3.013   7.398   2.320  0.3634 -0.0052 -0.1346
18359SOL     OW56527   8.521   3.220   5.838  0.1473  0.0900 -0.1558
18359SOL    HW156528   8.477   3.302   5.860 -0.7486  0.2256 -2.1637
18359SOL    HW256529   8.566   3.238   5.756  0.3335 -1.2912 -0.3886
18360SOL     OW56530   3.299   2.872   7.230  0.2466  1.0589 -0.4477
18360SOL    HW156531   3.312   2.961   7.199 -1.0629  1.4583  0.0795
18360SOL    HW256532   3.224   2.840   7.179 -0.4657  0.9239  0.6519
18361SOL     OW56533   6.942   4.080   0.600 -0.0383  0.3601  0.2161
18361SOL    HW156534   7.009   4.023   0.638 -0.6908  1.1434  2.6664
18361SOL    HW256535   6.873   4.019   0.571 -0.2782 -0.2005  1.8694
18362SOL     OW56536   0.951   6.803   4.890  0.3649 -0.1703  0.2200
18362SOL    HW156537   0.922   6.843   4.972  1.2727  0.1974  0.3731
18362SOL    HW256538   1.008   6.869   4.850 -0.5767 -0.0747 -1.0357
18363SOL     OW56539   6.043   0.181   6.906 -0.1956  0.0072 -0.2356
18363SOL    HW156540   6.095   0.111   6.867 -1.0318 -0.4978 -0.4666
18363SOL    HW256541   6.031   0.244   6.834 -0.6552 -0.3087 -0.4399
18364SOL     OW56542   0.134   5.929   0.089  0.3195 -0.5439 -0.4672
18364SOL    HW156543   0.191   5.856   0.115  1.2150  0.8459  1.7301
18364SOL    HW256544   0.094   5.958   0.171 -2.8478 -0.7856 -1.7784
18365SOL     OW56545   6.262   6.898   3.552 -0.6427 -0.1652 -0.4206
18365SOL    HW156546   6.269   6.932   3.642  1.4308 -0.9858 -0.2118
18365SOL    HW256547   6.331   6.832   3.547 -1.0845 -0.5138 -2.4745
18366SOL     OW56548   6.075   9.033   5.776  0.1397 -0.3877  0.0907
18366SOL    HW156549   6.073   9.054   5.870 -0.9557 -1.5853  0.3632
18366SOL    HW256550   6.107   9.113   5.734 -0.2367  0.4799  1.4076
18367SOL     OW56551   0.153   1.800   4.786  0.6899 -0.2324 -0.1216
18367SOL    HW156552   0.213   1.752   4.729 -0.9861 -0.2074 -1.9859
18367SOL    HW256553   0.137   1.740   4.860  0.7109 -1.4386 -1.0693
18368SOL     OW56554   6.474   0.698   6.915 -0.0238 -0.7674 -0.1464
18368SOL    HW156555   6.506   0.712   6.826  0.2239 -0.1081  0.0388
18368SOL    HW256556   6.392   0.651   6.904 -2.0740  2.6350 -0.9774
18369SOL     OW56557   3.634   8.072   8.877  0.0724 -0.5300  0.3324
18369SOL    HW156558   3.713   8.077   8.823 -0.8312  1.3466 -0.9610
18369SOL    HW256559   3.568   8.035   8.819 -0.6562  0.5081  0.4690
18370SOL     OW56560   3.662   3.219   7.077 -0.5904  0.7929 -0.7007
18370SOL    HW156561   3.631   3.143   7.028  1.1984  0.3752 -1.2949
18370SOL    HW256562   3.634   3.204   7.167  1.8379 -1.9280 -0.2383
18371SOL     OW56563   4.478   3.786   6.490  0.3745  0.1118  0.5546
18371SOL    HW156564   4.434   3.709   6.526 -0.1054 -0.0072 -0.2587
18371SOL    HW256565   4.516   3.830   6.567  1.0328 -1.1501  0.9914
18372SOL     OW56566   9.040   4.075   9.042  0.2990  0.3090  0.2340
18372SOL    HW156567   9.021   4.124   8.962 -0.8939  0.0524  0.3478
18372SOL    HW256568   9.136   4.070   9.044  0.3512  0.1575 -1.2689
18373SOL     OW56569   0.393   3.507   8.149  0.0704 -0.0154  0.1241
18373SOL    HW156570   0.450   3.489   8.224  2.2390 -0.1574 -1.4581
18373SOL    HW256571   0.361   3.596   8.163  0.5702  0.0176  1.1218
18374SOL     OW56572   3.516   0.898   5.316 -0.1826 -0.1889  0.3275
18374SOL    HW156573   3.551   0.907   5.404 -2.1940  1.5052  1.0554
18374SOL    HW256574   3.478   0.810   5.313 -2.4649  0.6371  2.1739
18375SOL     OW56575   2.592   0.922   4.465  0.4712 -0.2801 -0.3497
18375SOL    HW156576   2.540   0.938   4.544  0.1565 -1.9475 -0.1738
18375SOL    HW256577   2.528   0.903   4.397  0.7798  0.0505 -0.7378
18376SOL     OW56578   7.555   3.095   8.859 -0.8982 -0.1406 -0.3113
18376SOL    HW156579   7.526   3.016   8.904  0.5409 -0.7421 -0.3868
18376SOL    HW256580   7.494   3.163   8.888  0.7762 -0.1292  3.7594
18377SOL     OW56581   7.632   3.441   0.294 -0.2453 -0.0921 -0.2151
18377SOL    HW156582   7.618   3.449   0.199  1.5119  0.3146 -0.4628
18377SOL    HW256583   7.705   3.380   0.302 -2.5658 -2.9503  1.0569
18378SOL     OW56584   7.942   8.576   7.021 -0.0991  0.2537  0.2369
18378SOL    HW156585   7.921   8.654   6.971  1.3707  1.9190  2.0740
18378SOL    HW256586   7.891   8.585   7.102  0.5920 -0.3354  0.7539
18379SOL     OW56587   7.933   0.179   0.346 -0.7221 -0.3399 -0.5365
18379SOL    HW156588   7.993   0.252   0.356 -0.0475 -1.0553  0.8507
18379SOL    HW256589   7.988   0.101   0.354 -1.6126 -1.0080 -0.7484
18380SOL     OW56590   8.381   2.884   0.183  0.0968 -0.5183  0.3298
18380SOL    HW156591   8.286   2.885   0.196 -0.3041  1.8400 -1.9079
18380SOL    HW256592   8.416   2.919   0.265 -0.9278 -1.4891  1.2183
18381SOL     OW56593   9.209   1.906   2.998 -0.5700  0.1096  0.4626
18381SOL    HW156594   9.242   1.995   3.007  2.3840 -0.9092  0.6244
18381SOL    HW256595   9.210   1.889   2.904  0.3367 -0.2133  0.5171
18382SOL     OW56596   5.928   4.421   4.294  0.3481  0.4788  0.4982
18382SOL    HW156597   5.895   4.490   4.351 -2.1433  0.3164 -0.6108
18382SOL    HW256598   5.851   4.391   4.245  1.4256 -2.7188  0.5154
18383SOL     OW56599   8.431   7.477   2.744 -0.4227 -0.0332  0.2096
18383SOL    HW156600   8.383   7.464   2.662  0.8622  1.8012 -0.9270
18383SOL    HW256601   8.519   7.502   2.716  0.0111  0.7930  2.1496
18384SOL     OW56602   7.941   5.144   6.878 -0.1461 -0.2230 -0.3756
18384SOL    HW156603   7.914   5.234   6.861  2.8740  0.9504  0.4325
18384SOL    HW256604   7.976   5.113   6.794  0.5101  0.0494 -0.2110
18385SOL     OW56605   4.454   6.651   2.497 -0.2338  0.1013 -0.1605
18385SOL    HW156606   4.537   6.605   2.490 -1.2340 -1.8492  0.1434
18385SOL    HW256607   4.396   6.589   2.540 -1.5079  1.8990  0.8511
18386SOL     OW56608   3.172   2.416   7.838  0.3755  0.3426  0.4356
18386SOL    HW156609   3.122   2.485   7.794 -1.1110 -1.3054 -0.5840
18386SOL    HW256610   3.105   2.358   7.875  1.3323 -2.6470 -2.0379
18387SOL     OW56611   5.312   0.331   4.548  0.0906 -0.2140 -0.1844
18387SOL    HW156612   5.365   0.339   4.628 -0.5177 -1.0603  0.3255
18387SOL    HW256613   5.375   0.338   4.477  0.8520 -0.8133  0.4049
18388SOL     OW56614   3.446   5.575   2.817 -0.5857 -0.7128  0.2171
18388SOL    HW156615   3.359   5.542   2.794 -0.7599  0.0977 -0.3332
18388SOL    HW256616   3.494   5.577   2.734 -1.1556  2.0732 -0.1403
18389SOL     OW56617   2.264   8.121   7.666  0.2070 -0.8346 -0.1562
18389SOL    HW156618   2.287   8.178   7.592 -1.3724  0.4374  0.2704
18389SOL    HW256619   2.215   8.049   7.626  1.1317 -1.2519 -0.5628
18390SOL     OW56620   1.525   0.769   7.566  0.4095  0.3281  0.1664
18390SOL    HW156621   1.496   0.792   7.478 -0.4008 -0.4204  0.2265
18390SOL    HW256622   1.614   0.804   7.571  0.5393  0.2200 -1.0152
18391SOL     OW56623   5.820   1.464   4.047 -0.5777 -0.0129 -0.1082
18391SOL    HW156624   5.751   1.512   4.001 -0.7740 -0.4762 -0.3046
18391SOL    HW256625   5.901   1.494   4.006 -0.5378  1.5752  1.0616
18392SOL     OW56626   5.122   7.292   0.233  0.0311  0.3145  0.2407
18392SOL    HW156627   5.146   7.261   0.146  0.2068  1.4112 -0.1170
18392SOL    HW256628   5.107   7.212   0.284  0.5335 -0.3409 -0.6205
18393SOL     OW56629   4.271   8.506   1.783 -0.0117  0.2644  0.3158
18393SOL    HW156630   4.362   8.531   1.796 -0.6107  2.8219  0.1585
18393SOL    HW256631   4.275   8.431   1.724  2.0777 -2.1059  3.1385
18394SOL     OW56632   3.637   8.439   1.666 -0.2459  0.0698 -0.0546
18394SOL    HW156633   3.616   8.486   1.585  0.4332  0.3833 -0.0517
18394SOL    HW256634   3.676   8.505   1.723 -1.6413  0.0954  0.9247
18395SOL     OW56635   5.738   3.858   1.966 -0.4422  0.1082 -0.3247
18395SOL    HW156636   5.689   3.782   1.934  0.0605 -0.7783  0.9401
18395SOL    HW256637   5.682   3.933   1.944 -2.3188 -0.8474  0.9048
18396SOL     OW56638   3.559   5.555   8.191  0.4219 -0.4938 -0.1090
18396SOL    HW156639   3.642   5.507   8.198  0.3939 -0.3061  3.7291
18396SOL    HW256640   3.505   5.501   8.133  2.5465 -1.6457 -1.1294
18397SOL     OW56641   4.945   5.311   6.259 -0.6687 -0.0689  0.6735
18397SOL    HW156642   5.010   5.246   6.283  0.3974  0.4643 -0.6408
18397SOL    HW256643   4.987   5.395   6.273 -1.2059  0.2946  0.1781
18398SOL     OW56644   6.459   8.741   1.531 -0.2693 -0.2030  0.2993
18398SOL    HW156645   6.532   8.783   1.576  1.1267  0.2402 -2.1661
18398SOL    HW256646   6.450   8.656   1.574  0.3078  0.5700  2.0084
18399SOL     OW56647   6.346   7.392   3.004  0.3611 -0.2102 -0.5939
18399SOL    HW156648   6.397   7.470   3.027  0.1772 -0.2192 -0.1458
18399SOL    HW256649   6.377   7.324   3.064 -0.3010 -0.1680 -0.1850
18400SOL     OW56650   1.272   2.419   3.286 -0.0725  0.2183  0.3605
18400SOL    HW156651   1.248   2.327   3.289  0.1416  0.1870  1.6714
18400SOL    HW256652   1.248   2.447   3.198  0.5703 -1.2640 -0.3093
18401SOL     OW56653   6.905   4.364   4.574  0.2952  0.3787 -0.0166
18401SOL    HW156654   6.859   4.383   4.656 -2.5135 -1.2491 -1.0406
18401SOL    HW256655   6.945   4.447   4.549 -0.7894  1.5215  1.8052
18402SOL     OW56656   6.551   4.232   5.398  0.2279 -0.3018  0.3653
18402SOL    HW156657   6.643   4.252   5.381  0.1585 -0.4583 -0.2157
18402SOL    HW256658   6.502   4.293   5.343 -0.0089 -0.4509  0.4088
18403SOL     OW56659   4.391   0.467   8.370  0.3725  0.7050  0.5484
18403SOL    HW156660   4.401   0.448   8.277 -1.1278 -2.6408  0.8974
18403SOL    HW256661   4.320   0.531   8.375 -0.3506  0.0185 -0.5892
18404SOL     OW56662   4.538   2.357   1.960 -0.2309  0.0442  0.3210
18404SOL    HW156663   4.449   2.324   1.974 -0.1746 -0.1092  0.3079
18404SOL    HW256664   4.524   2.445   1.923 -0.3823 -0.3651 -0.6259
18405SOL     OW56665   9.094   6.715   8.392 -0.2330  1.0144 -0.7104
18405SOL    HW156666   9.152   6.781   8.431 -0.4641 -0.9514  3.6061
18405SOL    HW256667   9.153   6.654   8.348  0.3214  2.1130 -1.5382
18406SOL     OW56668   0.217   1.784   1.046  0.1878 -0.0513 -0.0496
18406SOL    HW156669   0.224   1.767   0.952  3.8520 -2.7804  0.4890
18406SOL    HW256670   0.163   1.713   1.080  1.3070 -0.8089  0.1962
18407SOL     OW56671   1.401   1.646   3.694 -0.4039 -0.1883 -0.1151
18407SOL    HW156672   1.338   1.589   3.739  0.1816 -0.3237  0.5500
18407SOL    HW256673   1.485   1.624   3.733 -0.1965  1.3269  0.3674
18408SOL     OW56674   8.185   5.710   5.704 -0.4033 -0.8171 -0.4711
18408SOL    HW156675   8.209   5.799   5.681 -1.2673 -0.6048 -0.5789
18408SOL    HW256676   8.187   5.662   5.621  2.2032 -1.4495 -0.1334
18409SOL     OW56677   7.025   2.841   3.455  0.1089  0.1919 -0.7026
18409SOL    HW156678   6.963   2.804   3.517 -0.5786  2.3185 -0.0259
18409SOL    HW256679   6.994   2.930   3.440  2.5526  1.0832 -0.9646
18410SOL     OW56680   8.212   1.318   1.060  0.0966  0.2416 -0.0624
18410SOL    HW156681   8.144   1.300   0.995  0.3341  2.0714 -0.8543
18410SOL    HW256682   8.282   1.362   1.011  2.0683 -1.8759  0.6398
18411SOL     OW56683   6.634   3.198   4.661  0.6275  0.2335  0.4049
18411SOL    HW156684   6.646   3.107   4.633 -0.2120  0.7741 -1.8881
18411SOL    HW256685   6.545   3.200   4.697  0.9649 -0.0194  1.2764
18412SOL     OW56686   6.392   5.595   2.781  0.0942  0.5465  0.1992
18412SOL    HW156687   6.363   5.619   2.869 -3.0974 -0.9826 -0.3071
18412SOL    HW256688   6.394   5.678   2.732  0.7711  1.2412  1.3602
18413SOL     OW56689   2.559   6.119   4.197 -0.1103 -0.5909  0.1691
18413SOL    HW156690   2.499   6.192   4.186  0.3516  0.3990  3.2971
18413SOL    HW256691   2.524   6.050   4.140 -1.9987  1.1790 -0.9364
18414SOL     OW56692   3.688   7.803   1.329 -0.1398 -0.4610  0.3793
18414SOL    HW156693   3.657   7.891   1.349  1.4686  0.0014  0.9184
18414SOL    HW256694   3.777   7.814   1.296 -0.6961 -1.7134 -1.7195
18415SOL     OW56695   5.937   0.397   0.255 -0.6245 -0.0349  0.0344
18415SOL    HW156696   5.873   0.355   0.197  0.7429 -1.9841 -0.1791
18415SOL    HW256697   5.988   0.454   0.197 -0.4542 -0.5575 -0.3468
18416SOL     OW56698   2.616   0.611   1.565 -0.3382  0.2090 -0.4190
18416SOL    HW156699   2.709   0.600   1.585 -0.3633 -0.3807 -0.5832
18416SOL    HW256700   2.612   0.605   1.469 -0.5137  0.4968 -0.4297
18417SOL     OW56701   6.739   0.499   7.806  0.3650  0.3095  0.0131
18417SOL    HW156702   6.801   0.567   7.832 -0.3841  1.1504 -0.3461
18417SOL    HW256703   6.792   0.435   7.758  1.0471  0.7204  0.2076
18418SOL     OW56704   8.940   2.340   6.153  0.2969 -0.0354 -0.4712
18418SOL    HW156705   8.924   2.419   6.204  0.8029  0.2476 -0.7464
18418SOL    HW256706   8.981   2.372   6.072 -0.0450 -0.5206 -0.8400
18419SOL     OW56707   7.047   4.971   3.712  0.0031 -0.0726 -0.4820
18419SOL    HW156708   7.084   5.057   3.695  0.3584 -0.7232 -3.5540
18419SOL    HW256709   7.112   4.909   3.679 -0.8298 -1.4973  0.4089
18420SOL     OW56710   2.034   0.820   6.157 -0.3890  0.2929  0.7992
18420SOL    HW156711   1.979   0.817   6.079 -0.5726  0.7697  0.9084
18420SOL    HW256712   2.023   0.909   6.191  1.3446  0.7907  0.1809
18421SOL     OW56713   6.094   7.909   4.180 -0.1978 -0.2580  0.3527
18421SOL    HW156714   6.157   7.839   4.194  0.7039  0.3932 -0.4014
18421SOL    HW256715   6.142   7.977   4.134 -1.6241 -0.0437 -0.9155
18422SOL     OW56716   2.021   0.365   7.055 -0.2125  0.5947  0.2777
18422SOL    HW156717   2.069   0.287   7.081  1.4767  1.7479  0.8300
18422SOL    HW256718   1.956   0.378   7.124  0.5459  0.5462  1.0126
18423SOL     OW56719   6.277   0.730   5.212 -0.7017  0.4489  0.0896
18423SOL    HW156720   6.191   0.696   5.188 -1.3278  1.9628  0.0926
18423SOL    HW256721   6.269   0.753   5.305  0.7803 -2.5268  1.0770
18424SOL     OW56722   3.860   2.933   0.742  0.0583 -0.1714 -0.1673
18424SOL    HW156723   3.838   2.883   0.664 -0.7062  1.4068 -1.0275
18424SOL    HW256724   3.796   3.005   0.743  1.2652  0.9515  0.8222
18425SOL     OW56725   0.046   5.830   5.790 -0.5486 -0.3217  0.2559
18425SOL    HW156726   0.006   5.797   5.709  1.5676 -1.2869 -0.4735
18425SOL    HW256727   0.072   5.751   5.838  1.5919  0.2027  0.0768
18426SOL     OW56728   7.330   9.107   4.417  0.1893  0.6563 -0.7111
18426SOL    HW156729   7.419   9.140   4.428  1.1068 -1.6828 -0.7166
18426SOL    HW256730   7.334   9.015   4.443 -1.9607  0.1493 -1.9050
18427SOL     OW56731   8.035   8.297   1.260 -0.1838 -0.1289 -0.2619
18427SOL    HW156732   8.100   8.300   1.189  0.8330  1.2711  0.6491
18427SOL    HW256733   8.085   8.321   1.339 -1.7304  0.6316  0.5378
18428SOL     OW56734   3.168   5.552   0.362  0.2067 -0.3635 -0.2505
18428SOL    HW156735   3.206   5.530   0.277  0.7450  1.7844 -0.6345
18428SOL    HW256736   3.244   5.560   0.420 -0.1342 -1.5023  0.3707
18429SOL     OW56737   8.114   0.652   1.562 -0.1307  0.2874  0.0751
18429SOL    HW156738   8.101   0.745   1.578 -2.5020  0.4667 -2.2497
18429SOL    HW256739   8.034   0.623   1.519  1.8399 -2.0566 -2.4178
18430SOL     OW56740   8.414   8.150   6.920 -0.4021  0.1046  0.3025
18430SOL    HW156741   8.408   8.142   7.015 -1.3076  1.0972  0.3449
18430SOL    HW256742   8.496   8.198   6.905 -0.5465  0.4582  0.6203
18431SOL     OW56743   4.438   1.170   0.026  0.0804 -0.5442  0.4951
18431SOL    HW156744   4.489   1.151  -0.052  0.5876 -3.5635  1.4193
18431SOL    HW256745   4.504   1.183   0.095 -0.3668 -0.0820  0.8426
18432SOL     OW56746   3.619   4.116   5.758  0.0836 -0.7202  0.1874
18432SOL    HW156747   3.553   4.178   5.790  0.1622 -1.1743  1.2920
18432SOL    HW256748   3.686   4.170   5.718 -0.7214 -0.2157 -0.5058
18433SOL     OW56749   6.254   6.352   3.337  0.0754  0.0031  0.5151
18433SOL    HW156750   6.165   6.385   3.322  0.3452  0.6284  0.2229
18433SOL    HW256751   6.254   6.265   3.299 -0.5848 -0.2443  1.0640
18434SOL     OW56752   1.356   2.303   0.494 -0.2389  0.5794 -0.1600
18434SOL    HW156753   1.370   2.371   0.560 -0.9233  0.6286 -0.0561
18434SOL    HW256754   1.443   2.268   0.477  0.3071  2.3402 -1.1681
18435SOL     OW56755   7.594   1.620   3.789  0.9230 -0.0311 -0.1041
18435SOL    HW156756   7.548   1.643   3.869 -0.2305 -0.6338 -0.5622
18435SOL    HW256757   7.602   1.524   3.793  0.9452 -0.0553 -0.6561
18436SOL     OW56758   1.089   0.377   6.731 -0.8104 -0.3074  0.1846
18436SOL    HW156759   1.035   0.324   6.672  0.1315 -0.2158 -0.7928
18436SOL    HW256760   1.168   0.396   6.680 -0.4283  0.6628  1.1153
18437SOL     OW56761   0.211   4.647   8.764 -0.8884  0.1666 -0.9016
18437SOL    HW156762   0.134   4.699   8.786 -1.2177 -0.3875 -0.7308
18437SOL    HW256763   0.177   4.559   8.750 -0.2397 -0.1667 -0.4398
18438SOL     OW56764   1.794   7.234   5.804  0.6195 -0.0866 -0.1681
18438SOL    HW156765   1.713   7.284   5.818  1.9595  2.0157  0.4651
18438SOL    HW256766   1.860   7.280   5.856  2.0794 -2.2453  0.0127
18439SOL     OW56767   4.635   3.494   5.303  0.0471  0.4763  0.1825
18439SOL    HW156768   4.658   3.401   5.305 -2.0467 -0.1035 -0.1311
18439SOL    HW256769   4.590   3.506   5.220  0.0179  1.7218  0.3549
18440SOL     OW56770   8.906   7.817   0.518  0.2449 -0.0593  0.2491
18440SOL    HW156771   8.927   7.832   0.611 -1.2347 -0.2788  0.6455
18440SOL    HW256772   8.834   7.878   0.500 -0.9369 -1.5356 -0.1474
18441SOL     OW56773   2.771   9.224   8.550 -1.0725 -0.0327  0.1851
18441SOL    HW156774   2.719   9.282   8.494 -2.1639 -0.2667  0.9182
18441SOL    HW256775   2.707   9.184   8.609  0.0575  0.4196  1.7965
18442SOL     OW56776   2.967   7.872   6.576  0.4543  0.1656 -0.1265
18442SOL    HW156777   3.003   7.890   6.662 -0.8734 -0.0103  0.4957
18442SOL    HW256778   2.968   7.777   6.569 -0.7405  0.0962  0.3165
18443SOL     OW56779   6.574   0.500   4.365 -0.0700  0.7052 -0.0469
18443SOL    HW156780   6.484   0.494   4.397  0.2525 -2.0500  0.6349
18443SOL    HW256781   6.603   0.587   4.390 -2.3879  1.4855  0.1385
18444SOL     OW56782   2.135   2.856   4.922 -0.2051  0.0795 -0.3463
18444SOL    HW156783   2.161   2.817   4.838  0.0451 -0.4707 -0.0124
18444SOL    HW256784   2.103   2.783   4.974 -0.4073  0.4293  0.0252
18445SOL     OW56785   3.175   2.697   7.662 -0.0996  0.8082 -0.6562
18445SOL    HW156786   3.130   2.662   7.585 -1.3157  1.8272 -0.4333
18445SOL    HW256787   3.241   2.756   7.626  0.2758  0.2359 -0.9394
18446SOL     OW56788   1.140   2.714   0.137  0.4318  0.3953  0.6472
18446SOL    HW156789   1.055   2.728   0.179 -0.0767 -0.3380 -0.1047
18446SOL    HW256790   1.137   2.767   0.057  0.5766  0.1602  0.4847
18447SOL     OW56791   5.180   5.671   0.698  0.3692  0.2808 -0.9484
18447SOL    HW156792   5.169   5.653   0.604 -2.4482  2.0784 -1.0808
18447SOL    HW256793   5.096   5.647   0.737  1.4667 -0.3951  1.1681
18448SOL     OW56794   3.754   3.221   4.027  0.6598 -0.1175 -0.8343
18448SOL    HW156795   3.798   3.144   4.062  0.2645  0.0337  0.0443
18448SOL    HW256796   3.795   3.295   4.073 -0.1232  0.0629 -0.4023
18449SOL     OW56797   0.757   4.709   0.160  1.4613 -0.1417  0.4052
18449SOL    HW156798   0.705   4.659   0.223 -0.1297  0.1412 -0.6289
18449SOL    HW256799   0.827   4.649   0.134  0.7531 -1.1117  0.6695
18450SOL     OW56800   2.695   0.566   6.949 -0.9366 -0.6073 -0.5009
18450SOL    HW156801   2.662   0.615   6.874 -2.6213 -0.2538  0.4287
18450SOL    HW256802   2.757   0.625   6.991 -0.6989 -0.4447 -1.0738
18451SOL     OW56803   3.436   5.571   6.647 -0.3471  0.0543 -0.2154
18451SOL    HW156804   3.491   5.556   6.724 -0.7532 -1.1035 -0.1273
18451SOL    HW256805   3.478   5.642   6.600  1.7451 -1.3814 -0.6335
18452SOL     OW56806   3.118   7.926   1.107  0.2252  0.0287  0.4574
18452SOL    HW156807   3.138   7.965   1.022 -0.3430 -0.1129  0.2545
18452SOL    HW256808   3.075   7.843   1.086  1.8103 -0.9572  0.8705
18453SOL     OW56809   7.271   3.075   9.280  0.4262 -0.2257 -0.8227
18453SOL    HW156810   7.305   3.164   9.287  0.9291 -0.5256  0.8810
18453SOL    HW256811   7.271   3.042   9.369  3.2938 -3.0393 -1.6833
18454SOL     OW56812   2.673   3.247   8.604  0.1813  0.2073 -0.1183
18454SOL    HW156813   2.634   3.209   8.525 -0.6703 -1.0004  0.8531
18454SOL    HW256814   2.637   3.196   8.676  1.3252  0.9646  1.0368
18455SOL     OW56815   6.180   3.451   6.831  0.5933  0.2175 -0.7193
18455SOL    HW156816   6.197   3.502   6.910 -2.8678  0.7860 -0.1761
18455SOL    HW256817   6.135   3.373   6.862  0.2341 -0.1243 -2.0339
18456SOL     OW56818   1.028   3.852   7.561 -0.3688  0.1105  0.7896
18456SOL    HW156819   1.018   3.829   7.469  1.3275 -0.8663  0.8020
18456SOL    HW256820   1.102   3.914   7.562 -0.3165  0.0431  1.4899
18457SOL     OW56821   5.815   2.781   7.759  0.1185 -0.1982 -0.6499
18457SOL    HW156822   5.824   2.702   7.813 -2.0066  0.3618  0.6490
18457SOL    HW256823   5.797   2.748   7.671 -1.9038 -1.2528  0.0847
18458SOL     OW56824   8.863   4.717   6.541 -0.1613  0.0948  0.3435
18458SOL    HW156825   8.956   4.734   6.559 -0.4502  1.9499  0.2846
18458SOL    HW256826   8.863   4.673   6.456  0.6396  0.4828  0.1319
18459SOL     OW56827   7.529   9.120   4.997  0.4499  0.3064 -0.0349
18459SOL    HW156828   7.540   9.066   5.076 -0.2796 -1.0605 -0.8255
18459SOL    HW256829   7.440   9.101   4.967  0.9709  0.1975 -1.6134
18460SOL     OW56830   3.590   3.710   1.162  0.4371  0.0206 -0.0035
18460SOL    HW156831   3.563   3.799   1.187 -2.0376 -0.9751  1.2139
18460SOL    HW256832   3.583   3.659   1.242  1.3027 -1.3983 -0.7962
18461SOL     OW56833   2.471   7.557   3.943 -0.2045  0.6229 -0.2261
18461SOL    HW156834   2.460   7.623   4.012 -0.7277 -1.0983  1.4109
18461SOL    HW256835   2.543   7.591   3.890  0.0161  2.1745  0.9700
18462SOL     OW56836   7.776   1.140   2.978 -0.2020 -0.2277 -0.2822
18462SOL    HW156837   7.712   1.149   2.907 -0.6039  0.6611  0.1825
18462SOL    HW256838   7.727   1.099   3.049 -0.4779  1.1254  0.3338
18463SOL     OW56839   3.616   5.495   0.881 -0.2141 -0.0692 -0.1139
18463SOL    HW156840   3.696   5.529   0.921 -0.6686  0.4420  0.3689
18463SOL    HW256841   3.563   5.464   0.954 -0.4154 -0.5016 -0.4402
18464SOL     OW56842   4.015   5.299   1.347 -0.2106 -0.1012 -0.0988
18464SOL    HW156843   4.101   5.326   1.313  1.0231 -0.0758  2.7533
18464SOL    HW256844   4.033   5.219   1.396 -1.8210 -0.1022  0.5464
18465SOL     OW56845   1.573   6.374   3.491 -0.2511  0.1626 -0.4013
18465SOL    HW156846   1.481   6.371   3.517 -0.4566  0.5375 -1.0492
18465SOL    HW256847   1.577   6.322   3.411  0.4598 -1.3733  0.5867
18466SOL     OW56848   7.322   8.368   0.870  0.4669  0.1194  0.0875
18466SOL    HW156849   7.262   8.305   0.829  1.4351  0.2541 -1.6345
18466SOL    HW256850   7.291   8.453   0.840  0.9114  0.2528  0.0023
18467SOL     OW56851   0.212   4.919   3.108 -0.2387 -0.0724  0.4911
18467SOL    HW156852   0.131   4.883   3.072 -0.8874  1.2545  0.5691
18467SOL    HW256853   0.224   5.002   3.063  1.2637 -0.3800  0.2646
18468SOL     OW56854   0.601   2.323   2.163  0.8754  0.4470  0.2551
18468SOL    HW156855   0.667   2.327   2.094  1.1536 -0.4088  0.4486
18468SOL    HW256856   0.648   2.352   2.242  1.1822 -0.6246  0.4884
18469SOL     OW56857   9.205   1.497   3.366  0.2685  0.0864 -0.5680
18469SOL    HW156858   9.201   1.586   3.331  0.8486  0.1704 -0.4230
18469SOL    HW256859   9.295   1.468   3.349  0.2956 -0.2018  0.0429
18470SOL     OW56860   2.595   2.241   7.324 -0.1324  0.6484  0.2478
18470SOL    HW156861   2.547   2.296   7.262 -0.1679  0.4238  0.0727
18470SOL    HW256862   2.535   2.168   7.342 -0.3280  0.9730  0.9429
18471SOL     OW56863   5.230   1.904   1.861  0.0374 -0.3244  0.2713
18471SOL    HW156864   5.272   1.880   1.778  1.6774  1.9423  0.3514
18471SOL    HW256865   5.136   1.904   1.841  0.3619 -0.2622 -1.4599
18472SOL     OW56866   9.232   6.622   1.904  0.0493 -0.1623  1.2385
18472SOL    HW156867   9.326   6.631   1.891 -0.3451  0.5187 -1.8771
18472SOL    HW256868   9.223   6.550   1.967  2.6274  0.5758  2.5744
18473SOL     OW56869   9.175   1.108   7.898  0.0928  0.7895 -0.3801
18473SOL    HW156870   9.186   1.156   7.816 -0.1030  1.3681 -0.0681
18473SOL    HW256871   9.260   1.115   7.942 -0.4289  2.3147  0.4438
18474SOL     OW56872   0.133   3.054   3.713  0.3136  0.3359 -0.2866
18474SOL    HW156873   0.150   3.125   3.651  1.2971  0.8855  0.5779
18474SOL    HW256874   0.193   3.071   3.786  1.2554 -1.8958 -0.4413
18475SOL     OW56875   2.736   7.445   2.565 -0.2186  0.2672 -0.7131
18475SOL    HW156876   2.818   7.475   2.604 -0.4304  0.7120 -0.6081
18475SOL    HW256877   2.689   7.403   2.637 -0.1136  0.0612 -0.7609
18476SOL     OW56878   3.971   8.129   6.943 -0.0131  0.0313  0.0656
18476SOL    HW156879   4.000   8.049   6.901 -0.2272 -0.3483  0.6291
18476SOL    HW256880   3.955   8.104   7.034 -2.3538  0.1358 -0.2473
18477SOL     OW56881   4.924   0.309   4.823 -0.8216  1.0017 -0.1556
18477SOL    HW156882   5.000   0.279   4.873 -0.8799 -0.4181 -0.8642
18477SOL    HW256883   4.880   0.371   4.881 -0.1403  0.4444  0.9944
18478SOL     OW56884   7.328   6.080   3.700 -0.2003  0.0456 -0.2508
18478SOL    HW156885   7.267   6.110   3.767 -1.3294 -0.5670 -0.9624
18478SOL    HW256886   7.368   6.002   3.737  0.3302  0.5758  0.3109
18479SOL     OW56887   6.598   7.864   8.371  0.2759 -0.2276 -0.0008
18479SOL    HW156888   6.557   7.950   8.376  0.3423 -0.2192  0.4484
18479SOL    HW256889   6.685   7.876   8.409 -0.5105 -0.9707  2.2239
18480SOL     OW56890   1.759   3.650   3.472  0.4720 -0.3267  0.0763
18480SOL    HW156891   1.844   3.655   3.428  0.0841  0.7010 -0.5830
18480SOL    HW256892   1.780   3.658   3.565  1.0226  1.1055 -0.1452
18481SOL     OW56893   6.740   9.132   1.653 -0.0332  0.0272 -0.3143
18481SOL    HW156894   6.671   9.194   1.674  1.2846  2.0639 -1.5801
18481SOL    HW256895   6.777   9.165   1.571  2.2927 -1.0515  0.2055
18482SOL     OW56896   1.547   4.891   1.294  0.4841 -0.2083  0.6140
18482SOL    HW156897   1.546   4.891   1.390  0.2987  1.8278  0.6579
18482SOL    HW256898   1.615   4.954   1.271 -0.7066  0.6892 -0.5607
18483SOL     OW56899   3.244   7.620   1.242  0.0083  0.5427  0.1175
18483SOL    HW156900   3.156   7.655   1.259 -0.4811 -0.3405 -0.5020
18483SOL    HW256901   3.290   7.691   1.198 -1.0663  0.3270 -1.4137
18484SOL     OW56902   9.210   8.278   3.045 -0.3111 -0.2476 -0.1751
18484SOL    HW156903   9.161   8.196   3.052 -0.6712  0.0615  1.2798
18484SOL    HW256904   9.143   8.346   3.046  0.0431  0.1043 -0.1464
18485SOL     OW56905   4.281   0.421   9.087  0.1577  0.3713 -0.3957
18485SOL    HW156906   4.198   0.391   9.124  0.1167  2.1166  1.0706
18485SOL    HW256907   4.340   0.426   9.163  1.4653 -0.3427 -1.3359
18486SOL     OW56908   3.861   4.375   7.316 -0.4467 -0.2577  0.1122
18486SOL    HW156909   3.769   4.358   7.295 -0.8628  1.1753  0.6604
18486SOL    HW256910   3.886   4.448   7.259  0.4651 -0.8552 -0.2724
18487SOL     OW56911   8.763   6.942   7.336 -0.4729 -0.2005 -0.1103
18487SOL    HW156912   8.715   7.015   7.295 -0.4672  0.0371  0.2969
18487SOL    HW256913   8.855   6.968   7.332 -0.4901 -0.0763  0.2405
18488SOL     OW56914   9.159   7.239   5.167 -0.3371 -0.3984  0.7158
18488SOL    HW156915   9.148   7.241   5.263  1.8403 -0.2594  1.0202
18488SOL    HW256916   9.151   7.331   5.141 -0.1159 -0.3311  0.8800
18489SOL     OW56917   4.356   7.601   1.294 -0.1091 -0.1931 -0.1036
18489SOL    HW156918   4.275   7.634   1.255 -0.3711  0.1853  0.7354
18489SOL    HW256919   4.327   7.548   1.369  0.3816 -0.8972 -0.3973
18490SOL     OW56920   4.142   1.759   4.641 -0.3164 -0.0645 -0.3680
18490SOL    HW156921   4.063   1.769   4.694  0.8060  2.1427  1.0504
18490SOL    HW256922   4.131   1.820   4.568 -1.4135 -2.3732 -2.2637
18491SOL     OW56923   0.530   5.049   7.147 -0.9370  0.0564  0.1127
18491SOL    HW156924   0.463   4.998   7.193 -0.6135 -0.4931 -0.0208
18491SOL    HW256925   0.579   4.984   7.096  0.9285  0.1429  1.6757
18492SOL     OW56926   7.459   6.049   0.111  0.2462 -0.3678 -0.1936
18492SOL    HW156927   7.399   6.123   0.112  0.8855  0.1516  0.0257
18492SOL    HW256928   7.478   6.035   0.018 -0.2089 -0.5338 -0.2627
18493SOL     OW56929   2.729   1.510   2.986  0.8024  0.1906  0.2443
18493SOL    HW156930   2.752   1.507   2.893  1.6192 -0.1156  0.4469
18493SOL    HW256931   2.682   1.429   3.002  0.2569  0.4547  0.0003
18494SOL     OW56932   1.042   4.413   0.954  0.0321  0.9086 -0.3752
18494SOL    HW156933   0.975   4.346   0.971 -2.7549  3.6954  0.4943
18494SOL    HW256934   1.064   4.402   0.862 -1.2481 -0.4400 -0.5687
18495SOL     OW56935   8.177   6.794   4.337 -0.4022  0.0763  0.4157
18495SOL    HW156936   8.169   6.837   4.422 -1.5639  1.0078 -0.1515
18495SOL    HW256937   8.272   6.790   4.322 -0.2438  1.8682  0.7700
18496SOL     OW56938   1.624   5.090   3.399  0.4833  0.1778  0.2890
18496SOL    HW156939   1.641   5.007   3.354 -1.3720  0.0651 -0.2974
18496SOL    HW256940   1.654   5.075   3.489  0.2554 -1.1163  0.1758
18497SOL     OW56941   9.226   2.459   4.925  0.9864 -0.4542 -0.3963
18497SOL    HW156942   9.174   2.539   4.930 -0.9606 -1.6469 -0.2615
18497SOL    HW256943   9.240   2.445   4.831 -0.8338 -1.1913 -0.6146
18498SOL     OW56944   5.907   8.176   0.697 -0.3485 -0.3024 -0.1955
18498SOL    HW156945   5.974   8.124   0.653 -0.8450  1.9729 -4.0107
18498SOL    HW256946   5.947   8.262   0.709 -1.1563 -0.1233  1.5967
18499SOL     OW56947   6.961   6.934   0.839  0.2310 -0.0543  1.0693
18499SOL    HW156948   6.895   6.997   0.811  1.8199  1.5534  0.7927
18499SOL    HW256949   6.970   6.949   0.933  2.2898  1.8894  0.6393
18500SOL     OW56950   1.456   3.701   5.220 -0.0532  0.4098  0.4185
18500SOL    HW156951   1.540   3.702   5.267  0.1698  1.5967  0.0300
18500SOL    HW256952   1.479   3.673   5.131 -0.3143 -0.7640  0.7031
18501SOL     OW56953   5.594   7.863   6.244  0.1504 -0.2294 -0.0529
18501SOL    HW156954   5.657   7.887   6.176  0.4469 -0.2820  0.1999
18501SOL    HW256955   5.620   7.775   6.271 -0.8195 -0.7887 -0.8464
18502SOL     OW56956   8.479   6.523   4.596 -0.1412 -0.0358 -0.5971
18502SOL    HW156957   8.489   6.428   4.601 -0.6442 -0.0438  0.6405
18502SOL    HW256958   8.537   6.549   4.525  1.7573 -1.0261  0.4989
18503SOL     OW56959   6.945   8.866   6.817  0.3355  0.2750  0.9314
18503SOL    HW156960   6.874   8.902   6.871 -0.7569 -1.4003  0.6726
18503SOL    HW256961   6.950   8.774   6.842  1.7337  0.1100  0.1754
18504SOL     OW56962   3.206   2.006   7.630  0.1525 -0.3396 -0.7358
18504SOL    HW156963   3.222   2.084   7.577  0.5440 -0.8341 -1.3689
18504SOL    HW256964   3.282   2.001   7.689  0.2371 -0.3532 -0.8443
18505SOL     OW56965   7.026   3.308   1.773 -0.1952 -0.0989  0.0174
18505SOL    HW156966   6.942   3.309   1.729  0.0677  1.8010 -0.5499
18505SOL    HW256967   7.050   3.216   1.779 -1.0577 -0.5277 -2.2363
18506SOL     OW56968   5.765   0.042   6.375  0.2425 -0.0318  0.0719
18506SOL    HW156969   5.775  -0.024   6.306 -0.4741  0.5710 -0.6334
18506SOL    HW256970   5.672   0.066   6.372  0.3878  0.6447  0.6585
18507SOL     OW56971   0.348   4.653   4.660  0.0423 -0.5086 -0.2141
18507SOL    HW156972   0.274   4.594   4.651 -0.2497 -0.4850  1.7065
18507SOL    HW256973   0.392   4.625   4.740  1.2031  0.4641 -0.4802
18508SOL     OW56974   0.940   8.272   3.443 -0.2316  0.0327  0.1980
18508SOL    HW156975   0.965   8.313   3.360  0.0562 -2.4277 -1.0055
18508SOL    HW256976   1.018   8.280   3.498 -0.4955  1.8718  0.3750
18509SOL     OW56977   1.161   8.477   3.492  0.4493  0.0434  0.1279
18509SOL    HW156978   1.134   8.531   3.566 -1.2513 -0.3572 -0.1578
18509SOL    HW256979   1.171   8.389   3.528 -1.9146 -0.4829 -0.3438
18510SOL     OW56980   6.761   4.198   7.569  0.6766 -0.7302 -0.3604
18510SOL    HW156981   6.716   4.238   7.644  0.8938 -0.6686 -0.2632
18510SOL    HW256982   6.831   4.146   7.607  0.1931 -1.4734 -0.4697
18511SOL     OW56983   1.121   5.617   2.028 -0.2878 -0.2372  0.2921
18511SOL    HW156984   1.079   5.628   1.943  1.8868 -0.4287 -0.8854
18511SOL    HW256985   1.210   5.588   2.008  0.8147  1.2207  2.5625
18512SOL     OW56986   2.052   3.104   7.932 -0.4657 -0.3992 -0.2541
18512SOL    HW156987   2.049   3.027   7.988  1.6833 -0.2713  0.1413
18512SOL    HW256988   2.095   3.074   7.852  1.9430  0.6712  0.5439
18513SOL     OW56989   6.653   0.411   8.863 -0.0981  0.0506 -0.0842
18513SOL    HW156990   6.627   0.502   8.850 -0.1621  0.0503  0.0397
18513SOL    HW256991   6.577   0.360   8.833 -0.3877  0.0578  0.6149
18514SOL     OW56992   5.293   7.520   0.846  0.0798  0.1003 -0.3086
18514SOL    HW156993   5.326   7.592   0.899  1.4934  0.2220 -1.2923
18514SOL    HW256994   5.283   7.447   0.907  1.6500  0.2370  0.1696
18515SOL     OW56995   4.055   4.611   4.248 -0.0520  0.1724  0.3637
18515SOL    HW156996   4.092   4.654   4.171 -0.7365  1.6830  0.8355
18515SOL    HW256997   3.988   4.552   4.212 -1.0425  1.5740 -0.1732
18516SOL     OW56998   3.160   6.422   4.176  0.2966  0.4450 -0.1986
18516SOL    HW156999   3.086   6.420   4.116  1.2893  0.0947 -1.4587
18516SOL    HW257000   3.133   6.367   4.249 -0.7863  0.5501 -0.5058
18517SOL     OW57001   3.461   4.879   0.783  0.0528  0.7643 -0.3620
18517SOL    HW157002   3.509   4.802   0.815  0.4774  0.8509 -0.7729
18517SOL    HW257003   3.383   4.884   0.839  1.1037  1.3281  1.1037
18518SOL     OW57004   3.370   2.008   2.111 -0.2361 -0.3388 -0.3044
18518SOL    HW157005   3.409   1.970   2.032 -1.5307  0.0055 -1.1371
18518SOL    HW257006   3.436   2.069   2.143  0.0965 -0.0781 -1.4347
18519SOL     OW57007   2.195   6.523   4.969 -0.2650  0.0475  0.0276
18519SOL    HW157008   2.229   6.491   5.052  1.4957 -0.1981 -0.7567
18519SOL    HW257009   2.261   6.586   4.939 -1.4877  1.0737 -0.5968
18520SOL     OW57010   4.669   3.121   6.625 -0.6624 -0.0695  0.0699
18520SOL    HW157011   4.594   3.074   6.660 -0.4239  0.0525  0.7657
18520SOL    HW257012   4.734   3.119   6.696 -0.9623  2.0797  0.4897
18521SOL     OW57013   0.258   6.307   6.667 -0.5899  0.0880  0.2153
18521SOL    HW157014   0.259   6.212   6.665 -0.9244  0.0905 -1.4082
18521SOL    HW257015   0.168   6.331   6.646 -0.8727  0.7798  2.0193
18522SOL     OW57016   2.121   8.296   4.335 -0.2073  0.9182  0.4447
18522SOL    HW157017   2.206   8.250   4.332 -1.2384 -1.1094  0.5707
18522SOL    HW257018   2.072   8.259   4.261 -1.9111  0.0714  1.9349
18523SOL     OW57019   1.580   4.167   6.867 -0.0683  0.1545  0.0124
18523SOL    HW157020   1.664   4.124   6.848 -0.0009  0.8218 -1.2812
18523SOL    HW257021   1.521   4.138   6.797 -0.9951 -0.4535  1.0129
18524SOL     OW57022   2.988   4.632   2.335  0.4490  0.0009  0.4722
18524SOL    HW157023   3.061   4.688   2.310  0.2003  1.2637  2.3937
18524SOL    HW257024   2.910   4.682   2.312  0.2184 -0.1446  0.9161
18525SOL     OW57025   2.368   7.126   7.519  0.3284 -0.3679  0.2531
18525SOL    HW157026   2.276   7.152   7.513  0.0663 -1.4205 -0.4893
18525SOL    HW257027   2.406   7.152   7.435  1.1841  1.6941  1.1957
18526SOL     OW57028   4.370   3.866   4.746  0.1835 -0.3028 -0.3018
18526SOL    HW157029   4.325   3.795   4.793  0.2504  0.8489  1.6166
18526SOL    HW257030   4.361   3.942   4.803 -2.8742  2.2828 -3.7154
18527SOL     OW57031   7.112   3.230   8.553 -0.7340 -0.1650 -0.4589
18527SOL    HW157032   7.112   3.136   8.570  0.3013 -0.1362 -0.2666
18527SOL    HW257033   7.056   3.240   8.475  0.1029 -1.0837 -1.2013
18528SOL     OW57034   8.796   4.430   4.238  0.3397  0.4434 -0.1267
18528SOL    HW157035   8.701   4.442   4.234  0.1268 -1.1296 -0.4908
18528SOL    HW257036   8.823   4.416   4.147  0.7841  0.0069  0.0660
18529SOL     OW57037   5.818   7.084   5.618 -0.3829 -0.0512  0.8487
18529SOL    HW157038   5.809   7.049   5.707  0.3209 -0.1988  0.8705
18529SOL    HW257039   5.802   7.009   5.561  0.9984 -0.4127  0.8938
18530SOL     OW57040   5.264   3.902   3.803  0.6657  0.3433  0.8483
18530SOL    HW157041   5.177   3.862   3.805  1.3390 -1.1614  0.8937
18530SOL    HW257042   5.279   3.932   3.893  0.3362  0.3042  0.9165
18531SOL     OW57043   0.702   0.868   4.606  0.2882  0.2263  0.2875
18531SOL    HW157044   0.648   0.801   4.648  0.2380  0.7090  1.0049
18531SOL    HW257045   0.704   0.940   4.668  0.4443  0.8484 -0.4240
18532SOL     OW57046   8.328   7.180   3.669  0.1620 -0.2075  0.5128
18532SOL    HW157047   8.315   7.148   3.758  0.0334 -0.0022  0.5685
18532SOL    HW257048   8.321   7.276   3.677  1.0298 -0.1255  0.4400
18533SOL     OW57049   4.692   0.449   0.018  0.4728 -0.2610  0.2954
18533SOL    HW157050   4.768   0.500   0.047  0.6747 -0.2787 -0.1980
18533SOL    HW257051   4.727   0.362   0.001  0.2190 -0.4369  0.6772
18534SOL     OW57052   3.340   6.642   4.092  0.2592  0.3988 -0.1529
18534SOL    HW157053   3.421   6.594   4.077  0.9082  1.2996  0.3277
18534SOL    HW257054   3.291   6.587   4.153  0.7202  0.0609 -0.0782
18535SOL     OW57055   9.096   8.813   7.952  0.5724 -0.0149  0.3743
18535SOL    HW157056   9.189   8.821   7.928  0.9329 -0.7619  1.4548
18535SOL    HW257057   9.089   8.725   7.990 -0.2298  0.6298  1.7721
18536SOL     OW57058   9.037   4.084   8.636 -0.4941 -0.0204  0.4053
18536SOL    HW157059   8.955   4.054   8.676 -0.9962  1.0304  0.2103
18536SOL    HW257060   9.105   4.031   8.677 -1.2577 -0.7992  0.6890
18537SOL     OW57061   4.910   4.011   5.192  0.4459  0.4604 -0.2683
18537SOL    HW157062   4.909   4.102   5.164 -2.5407  0.2885 -1.1164
18537SOL    HW257063   4.821   3.996   5.226  1.7321 -1.3373  2.7103
18538SOL     OW57064   1.116   2.905   6.284 -0.5444 -0.1922  1.1964
18538SOL    HW157065   1.161   2.865   6.358  0.5524 -1.0106  0.1270
18538SOL    HW257066   1.182   2.908   6.214 -1.8833 -0.5786 -0.1399
18539SOL     OW57067   0.698   0.939   6.436 -0.4341 -0.2313  0.4938
18539SOL    HW157068   0.640   0.865   6.453 -0.8268 -0.1289 -0.3134
18539SOL    HW257069   0.708   0.939   6.340  0.9552 -0.2847  0.6225
18540SOL     OW57070   1.148   4.712   2.447  0.2278 -0.1275 -0.1555
18540SOL    HW157071   1.167   4.669   2.364 -1.8248  0.8931 -1.2181
18540SOL    HW257072   1.190   4.656   2.513  3.3296 -0.0907 -1.9320
18541SOL     OW57073   3.808   8.559   7.888  0.7810  0.4272  0.3530
18541SOL    HW157074   3.798   8.480   7.835 -1.9414 -0.0616  1.4254
18541SOL    HW257075   3.778   8.630   7.831 -0.4160  0.1389  0.5920
18542SOL     OW57076   8.468   0.569   4.404  0.0888 -0.8594  0.0154
18542SOL    HW157077   8.448   0.510   4.477 -1.2647 -0.7388 -0.2361
18542SOL    HW257078   8.564   0.571   4.400  0.3142  0.6869  3.0700
18543SOL     OW57079   1.942   6.061   7.750 -1.0079  0.5992 -0.5664
18543SOL    HW157080   1.854   6.089   7.725 -1.1629  0.0507 -0.6572
18543SOL    HW257081   1.929   6.010   7.830 -0.6895  1.0731 -0.2073
18544SOL     OW57082   9.102   2.759   7.990 -0.3167 -0.0498  0.0783
18544SOL    HW157083   9.173   2.720   7.938 -2.7094  1.3017 -4.9120
18544SOL    HW257084   9.130   2.848   8.006 -0.6951  0.4485 -1.7891
18545SOL     OW57085   6.266   4.307   3.614 -0.2081  0.1511 -0.0657
18545SOL    HW157086   6.315   4.278   3.537  3.3369  0.3660  1.9096
18545SOL    HW257087   6.302   4.392   3.635  0.0124 -0.5149  2.6413
18546SOL     OW57088   7.034   1.142   0.651  0.0659  0.2601  0.9151
18546SOL    HW157089   6.946   1.166   0.623 -0.1047 -1.3165 -0.0027
18546SOL    HW257090   7.027   1.051   0.680  1.9039 -1.0373 -2.1289
18547SOL     OW57091   7.412   4.722   1.561  0.0677 -0.1218 -0.0801
18547SOL    HW157092   7.355   4.745   1.487 -1.0195 -0.0509  0.7500
18547SOL    HW257093   7.463   4.801   1.578  0.0556 -0.0192 -0.5102
18548SOL     OW57094   8.581   1.984   4.777 -0.5378 -0.3681 -0.9143
18548SOL    HW157095   8.584   2.075   4.747  2.2821  0.5044  1.5275
18548SOL    HW257096   8.535   1.987   4.860 -0.3472 -1.1668 -0.7750
18549SOL     OW57097   1.514   6.385   6.627 -0.2892 -0.1318 -0.1258
18549SOL    HW157098   1.597   6.371   6.673  1.3430 -1.2141 -3.1170
18549SOL    HW257099   1.525   6.470   6.584 -0.8262 -0.1630 -0.3244
18550SOL     OW57100   8.887   8.928   8.999 -0.4811 -1.0851  0.0384
18550SOL    HW157101   8.890   8.840   8.962 -2.1206 -0.8088 -0.8576
18550SOL    HW257102   8.812   8.969   8.956 -1.0626  0.0332  2.0106
18551SOL     OW57103   2.913   4.381   1.437  0.2988  0.7200 -0.5047
18551SOL    HW157104   2.836   4.433   1.415 -0.7614 -1.1339 -1.3871
18551SOL    HW257105   2.941   4.344   1.354 -0.0400 -1.4909  0.3086
18552SOL     OW57106   3.517   7.771   6.402  0.3632  0.5796 -0.3909
18552SOL    HW157107   3.426   7.776   6.431  0.7514  2.0903  0.6700
18552SOL    HW257108   3.545   7.682   6.425 -0.1254  0.8855  1.5562
18553SOL     OW57109   7.070   7.152   4.457 -0.5949 -0.7034  0.0826
18553SOL    HW157110   7.057   7.130   4.550 -1.0738  0.2722  0.2674
18553SOL    HW257111   7.066   7.247   4.455 -2.6228 -0.7610 -1.2138
18554SOL     OW57112   2.222   1.980   9.066 -0.0324  0.4593  0.0494
18554SOL    HW157113   2.189   2.059   9.109 -1.0462  0.8083 -1.3157
18554SOL    HW257114   2.310   2.004   9.036 -0.0476  0.8189  0.2880
18555SOL     OW57115   3.950   7.778   1.284 -0.1363  0.1782 -0.3121
18555SOL    HW157116   4.008   7.733   1.222 -1.7947  1.1354 -2.7149
18555SOL    HW257117   3.972   7.870   1.275 -1.3123  0.4533 -0.5102
18556SOL     OW57118   3.818   5.543   4.853  0.0350  0.3196  0.3661
18556SOL    HW157119   3.846   5.544   4.944 -0.2993 -0.9231  0.4953
18556SOL    HW257120   3.899   5.544   4.803  0.3101 -1.2914  0.7208
18557SOL     OW57121   6.508   6.178   6.679  0.2191  0.4529  0.6079
18557SOL    HW157122   6.483   6.262   6.719  1.5609  0.6282  1.1149
18557SOL    HW257123   6.452   6.171   6.601 -1.9820  0.4318  2.0975
18558SOL     OW57124   5.661   4.288   6.722  0.0380 -0.6009 -1.0330
18558SOL    HW157125   5.588   4.228   6.705 -0.4595  0.1003 -1.4165
18558SOL    HW257126   5.654   4.354   6.653  0.1033  0.3337 -0.1614
18559SOL     OW57127   9.075   6.498   5.136  0.5461  0.1827  0.0948
18559SOL    HW157128   8.980   6.512   5.138  0.8682  3.5858 -1.5586
18559SOL    HW257129   9.097   6.469   5.225 -1.7267  2.2919  1.4734
18560SOL     OW57130   5.393   5.666   4.120  0.0669 -0.1775 -0.3627
18560SOL    HW157131   5.325   5.727   4.147  0.5303  0.2826 -0.2309
18560SOL    HW257132   5.357   5.579   4.140 -0.2052  0.0926  0.3374
18561SOL     OW57133   2.591   1.793   8.546 -0.1373  0.7013  0.4047
18561SOL    HW157134   2.543   1.852   8.488  0.4513 -0.1709 -1.0397
18561SOL    HW257135   2.602   1.713   8.495  3.8734  1.2330  0.0780
18562SOL     OW57136   4.883   8.765   3.752 -0.0811  0.3426 -0.0937
18562SOL    HW157137   4.802   8.714   3.763  0.2535 -0.3158 -0.6357
18562SOL    HW257138   4.853   8.852   3.724 -0.5913  0.0478 -0.4687
18563SOL     OW57139   4.388   6.297   7.040 -0.3030  0.1593 -0.3785
18563SOL    HW157140   4.483   6.307   7.045 -0.3604  0.0623  1.4423
18563SOL    HW257141   4.362   6.264   7.126 -2.1562  1.5226 -0.3409
18564SOL     OW57142   3.732   3.851   0.653  0.1816  0.0971 -0.5331
18564SOL    HW157143   3.642   3.873   0.679 -0.3418  0.3469 -2.4386
18564SOL    HW257144   3.722   3.808   0.568  1.9283  0.6958 -1.0631
18565SOL     OW57145   6.712   1.398   9.088 -0.1635 -0.6822  0.3116
18565SOL    HW157146   6.747   1.484   9.112 -0.3776 -0.5576  0.1841
18565SOL    HW257147   6.783   1.337   9.107  1.3248 -0.1175 -2.7019
18566SOL     OW57148   9.108   2.429   7.700 -0.0174  0.1624  0.7580
18566SOL    HW157149   9.092   2.522   7.683  0.3340  0.0002 -0.6197
18566SOL    HW257150   9.187   2.409   7.650 -2.4110 -1.8470 -2.6520
18567SOL     OW57151   4.896   3.009   8.150  0.0466  0.6628  0.7220
18567SOL    HW157152   4.830   2.997   8.218 -1.6228  0.8334 -0.7989
18567SOL    HW257153   4.951   3.081   8.182 -0.7331  0.7766  1.8617
18568SOL     OW57154   7.842   7.563   1.508  0.0305 -0.2397 -0.1443
18568SOL    HW157155   7.753   7.588   1.484 -0.2751 -3.5983 -3.3693
18568SOL    HW257156   7.897   7.602   1.441  0.3245 -2.0818 -1.0425
18569SOL     OW57157   3.886   8.648   4.221  0.1415  0.0305 -0.3484
18569SOL    HW157158   3.928   8.628   4.138 -1.0338 -1.1561 -0.6898
18569SOL    HW257159   3.936   8.598   4.286 -1.0300 -1.8612 -0.8311
18570SOL     OW57160   6.259   5.278   2.069 -0.0879  0.1821 -0.3794
18570SOL    HW157161   6.177   5.324   2.051  0.6568  1.2815 -1.0210
18570SOL    HW257162   6.276   5.295   2.162 -0.3883  0.2686 -0.3390
18571SOL     OW57163   7.013   5.686   0.752  0.3895 -0.0138  0.5284
18571SOL    HW157164   6.987   5.657   0.840  1.5600 -0.7222  0.6636
18571SOL    HW257165   7.080   5.623   0.725  0.9262  0.9081 -0.3630
18572SOL     OW57166   3.367   8.451   3.194 -0.2742  0.1609 -0.2754
18572SOL    HW157167   3.352   8.527   3.251 -0.0636 -0.5076  0.6936
18572SOL    HW257168   3.286   8.442   3.145 -0.2102  1.1670 -0.5896
18573SOL     OW57169   4.909   0.227   7.683  0.0020  0.1153 -1.0869
18573SOL    HW157170   4.896   0.132   7.684  1.5722 -0.1240  0.2899
18573SOL    HW257171   4.862   0.259   7.760  1.1473  0.1745 -0.3915
18574SOL     OW57172   5.874   3.166   8.455  0.1200  0.1109 -0.1051
18574SOL    HW157173   5.799   3.122   8.417  0.5626  0.0035 -0.8609
18574SOL    HW257174   5.853   3.259   8.449 -0.2592  0.0617  0.3442
18575SOL     OW57175   1.082   5.160   6.081  0.4294 -0.3280  0.2450
18575SOL    HW157176   1.134   5.239   6.093  2.0872 -0.9263 -2.3280
18575SOL    HW257177   1.016   5.185   6.016  1.9894 -1.3696 -1.8697
18576SOL     OW57178   3.997   1.426   6.449 -0.0929  0.0275 -0.4015
18576SOL    HW157179   3.979   1.514   6.481 -0.9157 -0.6036  1.0144
18576SOL    HW257180   3.914   1.379   6.461  0.8979 -1.5082  1.0116
18577SOL     OW57181   3.486   8.625   0.232  0.1230  0.1442 -0.8147
18577SOL    HW157182   3.472   8.713   0.197  0.4116  1.1358  1.4396
18577SOL    HW257183   3.581   8.610   0.222  0.4770  1.0621  0.8566
18578SOL     OW57184   8.514   6.393   0.535  0.0487  0.1388 -0.1813
18578SOL    HW157185   8.575   6.348   0.594 -1.1182  0.5650  1.4190
18578SOL    HW257186   8.525   6.486   0.555  0.5646  0.4175 -1.6152
18579SOL     OW57187   4.348   3.322   9.015  0.3766  0.6650 -0.1295
18579SOL    HW157188   4.256   3.336   9.040  0.3715 -0.9944  0.9554
18579SOL    HW257189   4.344   3.287   8.926  0.0691  1.9209 -0.6293
18580SOL     OW57190   5.427   6.677   7.434  0.2290  0.4574  0.0270
18580SOL    HW157191   5.511   6.721   7.442  0.9917 -0.6781 -1.2274
18580SOL    HW257192   5.367   6.728   7.488  1.9459  0.7061  1.7812
18581SOL     OW57193   2.291   7.156   1.503 -0.4542  0.1217  0.1293
18581SOL    HW157194   2.261   7.076   1.461  0.7190  0.5719 -1.6700
18581SOL    HW257195   2.319   7.129   1.590 -1.4439 -1.1428  0.0840
18582SOL     OW57196   2.307   5.434   7.638 -0.0382 -0.3370  0.3968
18582SOL    HW157197   2.267   5.352   7.610  0.5521 -1.2907  2.2486
18582SOL    HW257198   2.235   5.484   7.677 -0.5258  0.3343 -1.2635
18583SOL     OW57199   3.091   2.025   0.598 -0.1702  0.9765  0.1023
18583SOL    HW157200   3.135   2.109   0.611  1.6086  0.0356  0.4126
18583SOL    HW257201   3.069   1.996   0.687  0.6757  0.3802  0.1247
18584SOL     OW57202   3.068   8.806   8.373  0.4708 -0.3030 -0.0814
18584SOL    HW157203   3.138   8.765   8.424 -0.1331 -1.1251  0.1011
18584SOL    HW257204   3.031   8.871   8.432 -0.1746 -1.1985  0.5293
18585SOL     OW57205   1.825   1.953   1.867 -0.0829 -0.1182 -0.0445
18585SOL    HW157206   1.791   1.868   1.896  0.4309 -0.3939 -0.2456
18585SOL    HW257207   1.804   2.013   1.939 -0.7963 -0.3248 -0.0690
18586SOL     OW57208   8.420   5.820   7.109 -0.0961 -0.0280  0.0758
18586SOL    HW157209   8.480   5.881   7.152  0.6084  0.3124 -1.3450
18586SOL    HW257210   8.336   5.865   7.108 -0.1421 -0.0594  1.1068
18587SOL     OW57211   1.436   7.907   6.801 -0.5397  0.2883 -0.3565
18587SOL    HW157212   1.402   7.892   6.713  0.5275 -1.2401 -0.5494
18587SOL    HW257213   1.395   7.839   6.854 -0.0027  0.2334 -0.0054
18588SOL     OW57214   2.536   0.206   2.758 -0.0642 -0.8805 -0.2442
18588SOL    HW157215   2.594   0.129   2.760 -0.2206 -1.0428 -1.3161
18588SOL    HW257216   2.595   0.281   2.758  0.0915 -0.9917  0.7241
18589SOL     OW57217   5.891   4.263   0.226  0.6282 -0.4455 -0.2330
18589SOL    HW157218   5.875   4.259   0.131 -0.5970  1.3755 -0.1658
18589SOL    HW257219   5.804   4.277   0.264  1.1951 -0.4540  1.0978
18590SOL     OW57220   5.679   7.048   2.003 -0.2038  0.2713  0.3013
18590SOL    HW157221   5.696   6.963   1.964  1.1897 -1.5946  4.4166
18590SOL    HW257222   5.761   7.096   1.995  0.6278 -0.7381  2.1024
18591SOL     OW57223   1.576   0.962   2.088  0.1043  0.7274 -0.1402
18591SOL    HW157224   1.559   1.053   2.112  1.8535  1.2507 -0.7680
18591SOL    HW257225   1.649   0.935   2.144 -0.0743 -0.1364 -0.3065
18592SOL     OW57226   6.675   7.215   7.698 -0.0415  0.4868  0.3803
18592SOL    HW157227   6.629   7.131   7.706  1.8250 -0.6848 -0.4588
18592SOL    HW257228   6.674   7.234   7.604 -1.8682  2.2881  0.7168
18593SOL     OW57229   0.482   7.421   5.961  0.2837  0.1022  0.1274
18593SOL    HW157230   0.576   7.436   5.954 -0.0956  2.3287 -1.3887
18593SOL    HW257231   0.471   7.327   5.946  2.2536 -0.2444  0.5789
18594SOL     OW57232   7.940   8.745   5.939 -0.3068 -0.0980  0.2697
18594SOL    HW157233   7.997   8.671   5.918 -1.5159 -0.7468 -0.8464
18594SOL    HW257234   7.895   8.765   5.857 -0.6281  1.3265  0.7740
18595SOL     OW57235   6.092   7.518   7.477 -0.5046 -0.4451  0.0843
18595SOL    HW157236   6.005   7.555   7.488 -0.4855 -0.7057  1.2727
18595SOL    HW257237   6.103   7.460   7.552  0.1264 -1.5567 -0.8380
18596SOL     OW57238   4.880   1.341   5.460 -0.3554  0.1321  0.5209
18596SOL    HW157239   4.874   1.342   5.555  1.0598  1.1390  0.6265
18596SOL    HW257240   4.917   1.255   5.439 -1.2144 -0.3261  0.8045
18597SOL     OW57241   7.281   9.069   2.171 -0.4587  0.1348  0.5767
18597SOL    HW157242   7.280   9.066   2.267  1.6799 -1.0309  0.6264
18597SOL    HW257243   7.268   8.978   2.144  0.5661  0.1912 -0.1701
18598SOL     OW57244   0.577   8.681   6.915 -0.3194  0.0127  0.1946
18598SOL    HW157245   0.580   8.775   6.928  1.7843  0.0282  0.0130
18598SOL    HW257246   0.486   8.662   6.895 -1.0209  1.8253  1.4174
18599SOL     OW57247   8.485   2.775   7.128 -0.2271  0.5052 -0.0078
18599SOL    HW157248   8.506   2.723   7.206  0.7776  1.0516  0.1119
18599SOL    HW257249   8.547   2.744   7.062 -0.6318  0.5054 -0.3850
18600SOL     OW57250   9.095   7.135   6.853  0.2827 -0.7177 -0.1414
18600SOL    HW157251   9.034   7.134   6.780 -0.1393  1.7115  0.0708
18600SOL    HW257252   9.180   7.151   6.813 -0.1903  2.6443 -0.1505
18601SOL     OW57253   2.387   6.955   6.894  0.4586 -0.0898  0.0895
18601SOL    HW157254   2.318   6.902   6.855  0.0076 -0.0132  0.7738
18601SOL    HW257255   2.440   6.893   6.943 -0.1580  0.0967  1.0162
18602SOL     OW57256   6.649   7.069   9.139  0.3085  0.1313 -0.6089
18602SOL    HW157257   6.652   7.088   9.045 -0.4430  0.5732 -0.5517
18602SOL    HW257258   6.657   7.154   9.182 -0.2027  0.0289 -0.2946
18603SOL     OW57259   0.707   7.732   8.612  0.0676 -0.4134 -0.0670
18603SOL    HW157260   0.645   7.659   8.600  0.4622 -1.0170  1.3629
18603SOL    HW257261   0.713   7.743   8.707  1.7534 -0.0263 -0.1867
18604SOL     OW57262   4.210   6.335   3.542  0.1189 -0.1436 -0.9837
18604SOL    HW157263   4.249   6.250   3.525 -0.5341 -0.8488  0.8191
18604SOL    HW257264   4.258   6.370   3.617  1.2135  1.6860 -2.4450
18605SOL     OW57265   3.052   3.403   5.266  0.2414 -0.1252  0.0865
18605SOL    HW157266   2.992   3.428   5.196 -1.7898 -2.0431  1.0327
18605SOL    HW257267   3.071   3.310   5.249  0.6160 -0.3168  1.4581
18606SOL     OW57268   1.682   2.617   7.131 -0.1048 -0.0968 -0.0012
18606SOL    HW157269   1.700   2.610   7.038 -1.4117 -0.8395 -0.2174
18606SOL    HW257270   1.753   2.672   7.165 -0.9436  2.3642 -1.8653
18607SOL     OW57271   7.341   7.008   9.239 -0.3765 -0.1754 -0.4032
18607SOL    HW157272   7.259   7.025   9.193  1.0568  1.2725 -2.6061
18607SOL    HW257273   7.409   7.017   9.172  1.6214 -1.1798  1.3601
18608SOL     OW57274   8.938   4.641   7.729  0.2827  0.4988  0.1946
18608SOL    HW157275   9.031   4.661   7.714  0.4369 -0.6890 -0.5634
18608SOL    HW257276   8.893   4.680   7.654  0.2343  0.5689  0.2598
18609SOL     OW57277   7.329   6.308   8.534  0.1007 -0.0846 -0.0229
18609SOL    HW157278   7.288   6.388   8.566  0.8595  0.9628 -1.5639
18609SOL    HW257279   7.362   6.265   8.613  0.2017  1.4210  0.7915
18610SOL     OW57280   7.659   6.201   0.244 -0.8300 -0.5124 -0.0350
18610SOL    HW157281   7.580   6.186   0.192 -0.5941 -3.0423  0.2011
18610SOL    HW257282   7.730   6.171   0.188 -0.2236 -0.0350  0.4689
18611SOL     OW57283   6.858   1.486   0.063 -0.1996  0.1837  0.2686
18611SOL    HW157284   6.867   1.392   0.084  0.3787  0.4816  1.4781
18611SOL    HW257285   6.914   1.499  -0.013 -1.4700 -0.7372 -0.8832
18612SOL     OW57286   8.483   6.181   2.526 -0.0061 -0.5272 -0.1660
18612SOL    HW157287   8.532   6.143   2.452 -2.1322 -3.1848 -0.3702
18612SOL    HW257288   8.394   6.189   2.493 -0.6193  0.0251  1.5363
18613SOL     OW57289   0.371   3.133   6.337  0.1155 -0.0849  0.3763
18613SOL    HW157290   0.312   3.085   6.278  0.4304 -0.2636  0.1998
18613SOL    HW257291   0.322   3.211   6.362 -0.5409 -0.6678  0.9380
18614SOL     OW57292   5.465   4.223   7.086 -0.6575  0.2645  0.2243
18614SOL    HW157293   5.475   4.176   7.168 -0.7294  1.4653  0.9445
18614SOL    HW257294   5.547   4.207   7.038 -0.7245 -0.6537  0.4033
18615SOL     OW57295   4.474   5.863   2.570 -0.3211  0.0706  0.1584
18615SOL    HW157296   4.500   5.772   2.557  0.4489  0.3840 -0.6352
18615SOL    HW257297   4.556   5.912   2.563 -0.8381  0.9034 -0.2745
18616SOL     OW57298   2.561   8.349   7.689 -0.0992  0.2784  0.7332
18616SOL    HW157299   2.544   8.260   7.657  0.9392  0.7230 -1.2128
18616SOL    HW257300   2.479   8.376   7.730 -0.5312 -1.4380  1.0831
18617SOL     OW57301   0.304   2.494   3.523  0.3771 -0.0474  0.4733
18617SOL    HW157302   0.264   2.417   3.483  0.8824  1.2297 -2.7902
18617SOL    HW257303   0.249   2.513   3.599 -2.0006 -1.4545 -0.7866
18618SOL     OW57304   1.823   0.770   6.365 -0.0087  0.2739 -0.5442
18618SOL    HW157305   1.779   0.836   6.419 -0.9751  2.2250 -3.4579
18618SOL    HW257306   1.898   0.816   6.327  0.6902 -1.0515 -0.8091
18619SOL     OW57307   5.398   1.059   1.407  0.3854  0.3195 -0.0561
18619SOL    HW157308   5.422   0.967   1.423 -0.2807  0.2675  0.6845
18619SOL    HW257309   5.467   1.092   1.349  0.8828 -0.5195  0.0465
18620SOL     OW57310   8.552   8.821   0.255 -0.0736  0.3716 -0.0172
18620SOL    HW157311   8.537   8.866   0.171  0.9587  0.1439 -0.3303
18620SOL    HW257312   8.508   8.737   0.244 -0.0883  0.4078 -0.2610
18621SOL     OW57313   5.191   6.858   5.515 -0.3773  0.4449 -0.0701
18621SOL    HW157314   5.120   6.847   5.451 -0.6229 -1.1347  0.4447
18621SOL    HW257315   5.171   6.941   5.558 -0.9658  0.8533 -1.0906
18622SOL     OW57316   7.234   4.152   3.238  0.5797 -0.0490 -0.0145
18622SOL    HW157317   7.236   4.152   3.334  0.9678 -0.4237 -0.0174
18622SOL    HW257318   7.323   4.127   3.212  0.5365  0.2586 -0.4768
18623SOL     OW57319   6.132   5.619   5.065 -0.6981  0.5827  0.2954
18623SOL    HW157320   6.134   5.665   4.981 -1.1520 -1.3631 -0.8392
18623SOL    HW257321   6.132   5.689   5.130 -1.1842  2.1751 -1.3206
18624SOL     OW57322   2.575   4.647   8.916  0.0051  0.1565  0.0763
18624SOL    HW157323   2.513   4.624   8.847  0.5388  0.2758 -0.4509
18624SOL    HW257324   2.560   4.740   8.932 -0.9319 -0.1334  0.9598
18625SOL     OW57325   5.466   3.337   9.149 -0.2157  0.1377  0.4896
18625SOL    HW157326   5.390   3.282   9.167  0.2260 -0.5208  0.3824
18625SOL    HW257327   5.444   3.380   9.066 -0.8721  0.6901  0.9404
18626SOL     OW57328   4.632   8.500   7.444  0.0435  0.0980 -0.0782
18626SOL    HW157329   4.553   8.476   7.492 -0.3659  0.7842 -0.4028
18626SOL    HW257330   4.643   8.431   7.379 -1.3097  0.9407 -1.2259
18627SOL     OW57331   3.031   2.219   1.515  0.3245 -0.5244  0.2745
18627SOL    HW157332   2.937   2.199   1.524  0.3784 -0.9846 -0.1802
18627SOL    HW257333   3.046   2.288   1.580  0.0355 -1.6468  1.5798
18628SOL     OW57334   0.714   2.940   5.291 -0.5974 -0.0477 -0.0265
18628SOL    HW157335   0.763   2.879   5.347 -0.2512 -0.2504 -0.5485
18628SOL    HW257336   0.662   2.884   5.234  1.0131  0.0607 -1.6989
18629SOL     OW57337   7.341   7.210   1.461  0.5659  0.3174 -0.0369
18629SOL    HW157338   7.355   7.299   1.493  0.1828  0.4066 -0.1081
18629SOL    HW257339   7.302   7.163   1.535  1.4379  0.0098  0.2353
18630SOL     OW57340   8.184   0.014   7.710  0.7570  0.2332 -0.2936
18630SOL    HW157341   8.180  -0.077   7.738 -1.4772  0.6815  1.0902
18630SOL    HW257342   8.267   0.021   7.662  1.6488 -2.1615  0.7488
18631SOL     OW57343   3.038   1.038   4.446 -0.4291 -0.3153 -0.9070
18631SOL    HW157344   2.978   1.109   4.422 -0.8370  0.3419  1.7034
18631SOL    HW257345   2.981   0.963   4.464 -0.2587 -0.4249 -0.8216
18632SOL     OW57346   7.481   1.073   5.383 -0.3322  0.4650 -0.5571
18632SOL    HW157347   7.521   1.036   5.462  0.9256  1.5749 -0.6458
18632SOL    HW257348   7.397   1.026   5.375 -0.7825  0.7511  1.7521
18633SOL     OW57349   7.542   1.721   5.529  0.3564 -0.1916  0.6658
18633SOL    HW157350   7.592   1.750   5.452 -0.1905  0.0644  0.4034
18633SOL    HW257351   7.523   1.802   5.577 -0.3556 -0.2075  0.4249
18634SOL     OW57352   2.496   3.578   1.744  0.3618 -0.0621 -0.3370
18634SOL    HW157353   2.575   3.581   1.798  0.6363 -3.3628 -0.3174
18634SOL    HW257354   2.527   3.556   1.656 -0.4489 -1.4221 -0.3236
18635SOL     OW57355   4.517   5.007   3.136  0.7323  0.1432 -0.3799
18635SOL    HW157356   4.527   4.987   3.229  0.1623 -2.0245 -0.7451
18635SOL    HW257357   4.588   4.961   3.093 -0.2379 -0.6427 -1.2042
18636SOL     OW57358   6.474   0.490   7.888  0.5000  0.0649  0.3071
18636SOL    HW157359   6.441   0.542   7.814  1.3157  0.1529  0.0044
18636SOL    HW257360   6.569   0.489   7.877  0.6261 -0.0157  1.2926
18637SOL     OW57361   0.629   7.742   5.974  0.4735 -0.1921  0.0568
18637SOL    HW157362   0.564   7.812   5.969  0.7565  0.1463  0.8840
18637SOL    HW257363   0.636   7.722   6.068  2.2756  0.4960  0.1180
18638SOL     OW57364   3.760   8.406   2.931 -0.3351 -0.2005 -0.7062
18638SOL    HW157365   3.705   8.484   2.928 -0.1309 -0.0860 -2.5078
18638SOL    HW257366   3.722   8.348   2.865  0.6044 -0.8718 -0.6664
18639SOL     OW57367   7.710   1.400   5.523  0.5924 -0.0052 -0.1213
18639SOL    HW157368   7.691   1.402   5.617 -1.1154 -0.8290 -0.4165
18639SOL    HW257369   7.643   1.344   5.486  0.6508  1.0772 -1.9949
18640SOL     OW57370   8.998   4.742   2.834 -0.3397 -0.3909 -0.3672
18640SOL    HW157371   9.068   4.799   2.801 -0.5941 -0.0257 -0.2844
18640SOL    HW257372   8.992   4.672   2.769 -2.0617  1.2677 -2.1408
18641SOL     OW57373   5.997   2.195   5.705 -0.1319  0.0888  0.0757
18641SOL    HW157374   6.067   2.182   5.640  0.9691 -0.1371  1.2565
18641SOL    HW257375   5.995   2.289   5.719 -0.4120  0.1440 -0.3158
18642SOL     OW57376   6.009   3.437   5.665  0.0073  0.0187 -0.8261
18642SOL    HW157377   6.019   3.498   5.738 -0.5363 -2.5796  1.6224
18642SOL    HW257378   5.984   3.491   5.591  0.7709  2.8528  0.8467
18643SOL     OW57379   9.036   5.663   2.228 -0.3053 -0.4305  0.3604
18643SOL    HW157380   9.008   5.665   2.137 -0.6577 -1.5165  0.4401
18643SOL    HW257381   9.128   5.688   2.225  0.3982 -2.8929 -0.5890
18644SOL     OW57382   0.742   9.221   8.852 -0.3532 -0.1422 -0.3760
18644SOL    HW157383   0.658   9.255   8.821 -0.7200  0.2874  1.0334
18644SOL    HW257384   0.722   9.179   8.936  0.9653  0.7252  0.4112
18645SOL     OW57385   3.046   5.643   2.849  0.2607 -0.8654 -0.0901
18645SOL    HW157386   3.114   5.648   2.781  0.6317  0.5685  0.3352
18645SOL    HW257387   2.984   5.579   2.817  0.3787 -0.1566 -1.8424
18646SOL     OW57388   6.152   0.040   5.355 -0.0346  0.2832  0.3999
18646SOL    HW157389   6.199   0.036   5.272 -1.1684 -2.2932 -0.2387
18646SOL    HW257390   6.059   0.033   5.330 -0.3577 -1.3829  1.8323
18647SOL     OW57391   6.136   4.006   3.551 -0.0133  0.6893  0.4086
18647SOL    HW157392   6.080   3.937   3.585 -0.4397  0.2962 -1.0432
18647SOL    HW257393   6.185   4.036   3.627 -1.1256  0.0371  1.4197
18648SOL     OW57394   1.985   0.653   1.768 -0.4042  0.0940 -0.5125
18648SOL    HW157395   2.054   0.612   1.820 -0.2000  0.2740 -0.6398
18648SOL    HW257396   2.013   0.744   1.758 -1.0227  0.3521  0.0524
18649SOL     OW57397   6.111   9.040   3.985  0.1936 -0.1329  0.1513
18649SOL    HW157398   6.199   9.015   4.012  0.6250  0.1355 -0.9594
18649SOL    HW257399   6.070   9.071   4.066  1.2902  0.2175  0.6039
18650SOL     OW57400   3.214   8.433   4.508  0.2732 -0.8901  0.1348
18650SOL    HW157401   3.186   8.358   4.455  1.2054 -1.4145  0.3758
18650SOL    HW257402   3.197   8.509   4.452  0.7118 -1.3939 -0.7079
18651SOL     OW57403   3.577   7.515   1.693  0.5253 -1.1995 -0.1360
18651SOL    HW157404   3.537   7.465   1.764  1.2438 -3.1508 -1.0501
18651SOL    HW257405   3.653   7.463   1.666  1.4383  0.4872 -1.0245
18652SOL     OW57406   5.844   4.459   8.031 -0.0198  0.2707  0.2261
18652SOL    HW157407   5.845   4.384   8.091  0.3875  0.1270  0.0422
18652SOL    HW257408   5.914   4.516   8.062  0.2213  0.1743 -0.1410
18653SOL     OW57409   0.735   2.395   0.466  0.6048 -0.0535  0.1534
18653SOL    HW157410   0.715   2.481   0.429  0.0026 -0.2018  0.1295
18653SOL    HW257411   0.818   2.370   0.424  0.0344 -0.1302 -0.9787
18654SOL     OW57412   8.352   4.582   4.090 -0.2744 -0.2517  0.0771
18654SOL    HW157413   8.406   4.632   4.029 -0.3804  1.1370  1.0757
18654SOL    HW257414   8.273   4.561   4.041 -0.0159  0.1315 -0.5183
18655SOL     OW57415   6.191   7.277   3.761 -0.0507 -0.8314 -0.2638
18655SOL    HW157416   6.146   7.347   3.713  0.4511 -0.9267 -0.8907
18655SOL    HW257417   6.125   7.243   3.821  0.1367  1.2009  1.1748
18656SOL     OW57418   4.559   3.076   8.818 -0.2705  0.1934  0.4315
18656SOL    HW157419   4.544   3.057   8.911 -1.4503  0.3096  0.2715
18656SOL    HW257420   4.546   3.171   8.811  2.5523  0.6957  0.6430
18657SOL     OW57421   9.001   3.287   4.383  0.4565 -0.1228 -0.4957
18657SOL    HW157422   8.925   3.335   4.351  0.0030 -0.5917 -0.1261
18657SOL    HW257423   8.989   3.198   4.349 -0.1773 -0.7101  1.1896
18658SOL     OW57424   4.861   0.699   5.364 -0.0614  0.0332  0.1106
18658SOL    HW157425   4.842   0.775   5.418 -0.4109 -0.1785  0.2880
18658SOL    HW257426   4.784   0.643   5.373  0.0519 -0.1893 -0.2843
18659SOL     OW57427   3.158   8.595   4.313  0.0482  0.4274  0.2121
18659SOL    HW157428   3.156   8.543   4.233 -1.1942  0.6733  0.0592
18659SOL    HW257429   3.220   8.665   4.294 -1.8546  1.8015 -1.4296
18660SOL     OW57430   3.646   8.871   6.234  0.5022 -0.1611 -0.0810
18660SOL    HW157431   3.712   8.881   6.303  0.0079 -1.1756  0.5592
18660SOL    HW257432   3.694   8.834   6.160  0.6089 -1.1517  0.4727
18661SOL     OW57433   3.480   7.908   8.711 -0.0211  0.5350 -0.0928
18661SOL    HW157434   3.440   7.884   8.795  0.5088 -0.9556 -0.2441
18661SOL    HW257435   3.466   7.832   8.655  0.3694  1.1916 -1.1087
18662SOL     OW57436   4.864   3.421   4.840  0.5822 -0.2809 -0.4775
18662SOL    HW157437   4.876   3.460   4.927 -0.4575  1.8485 -1.2315
18662SOL    HW257438   4.873   3.327   4.855  0.3661  0.0183  1.9450
18663SOL     OW57439   3.606   5.107   4.239 -0.1611 -0.2852  0.1225
18663SOL    HW157440   3.530   5.164   4.251 -1.4602 -1.8341 -0.4039
18663SOL    HW257441   3.667   5.135   4.306 -0.8345  1.5652  0.0269
18664SOL     OW57442   2.106   2.456   5.184  0.0065  0.1743 -0.0159
18664SOL    HW157443   2.165   2.530   5.168 -0.3227  0.2609 -0.8781
18664SOL    HW257444   2.154   2.380   5.153 -0.3232  0.2462 -0.7289
18665SOL     OW57445   6.623   3.877   6.444  0.2522  0.0967 -0.1505
18665SOL    HW157446   6.703   3.849   6.398 -0.9756  1.4259 -3.3864
18665SOL    HW257447   6.655   3.910   6.528  2.8867 -0.9863 -0.6057
18666SOL     OW57448   8.689   5.598   0.358  0.2716  0.4924 -0.5613
18666SOL    HW157449   8.708   5.661   0.289  2.6923 -0.9633 -1.3617
18666SOL    HW257450   8.698   5.512   0.316  1.6533 -0.4411  1.4599
18667SOL     OW57451   4.981   8.153   3.821 -0.1289  0.6195  0.0346
18667SOL    HW157452   4.921   8.078   3.823  0.7782 -0.1305 -0.2683
18667SOL    HW257453   4.955   8.202   3.743  2.2947 -1.9901 -2.6681
18668SOL     OW57454   1.802   8.053   9.035  0.4531  0.5073  0.5759
18668SOL    HW157455   1.802   7.958   9.029  1.8355  0.4144  1.5924
18668SOL    HW257456   1.777   8.082   8.947 -1.4552 -0.7625  0.6337
18669SOL     OW57457   7.745   4.028   3.376 -0.3905  0.1062 -0.3112
18669SOL    HW157458   7.678   4.063   3.318  0.2994 -1.4051 -2.1216
18669SOL    HW257459   7.776   3.949   3.332  1.1114 -0.3829  1.4937
18670SOL     OW57460   2.068   4.176   4.829 -0.0255  0.0225  0.3136
18670SOL    HW157461   2.014   4.183   4.751 -1.6729  0.8613  1.4663
18670SOL    HW257462   2.155   4.154   4.796 -1.0331 -1.3382 -1.6184
18671SOL     OW57463   7.776   1.903   5.040  0.0989  0.2016 -0.1749
18671SOL    HW157464   7.870   1.917   5.029  0.2129  0.7039  1.2690
18671SOL    HW257465   7.739   1.918   4.953  0.8517  4.1390  0.0023
18672SOL     OW57466   3.259   1.890   8.417  0.0277 -0.0925  0.4646
18672SOL    HW157467   3.183   1.919   8.468  0.2763 -0.9329  1.3445
18672SOL    HW257468   3.333   1.936   8.457  0.2248 -0.7585  0.8760
18673SOL     OW57469   2.839   1.485   3.966  0.4145  0.2261 -0.1777
18673SOL    HW157470   2.913   1.425   3.966  1.2850  1.2359  0.9033
18673SOL    HW257471   2.862   1.552   4.031 -1.2238  0.8477 -0.1664
18674SOL     OW57472   6.829   6.515   8.361  0.3343  0.4987  0.0801
18674SOL    HW157473   6.783   6.526   8.277  0.3873  0.2454  0.0152
18674SOL    HW257474   6.761   6.526   8.427 -0.0995 -1.1908 -0.0503
18675SOL     OW57475   1.375   8.531   1.911 -0.4499  0.9350  0.1330
18675SOL    HW157476   1.421   8.573   1.984  2.7307 -2.0220  0.0807
18675SOL    HW257477   1.412   8.573   1.833 -0.4766  0.9439  0.1251
18676SOL     OW57478   0.220   1.323   8.259  0.2078  0.3266 -0.3584
18676SOL    HW157479   0.203   1.344   8.351  0.4415 -0.7610 -0.0517
18676SOL    HW257480   0.310   1.352   8.245  0.2212  0.3602 -0.2085
18677SOL     OW57481   3.878   9.035   0.364  0.2258  0.1015  0.4237
18677SOL    HW157482   3.834   9.104   0.414  0.6982  1.0661 -0.4448
18677SOL    HW257483   3.809   8.973   0.341 -0.7336  1.5853 -0.9126
18678SOL     OW57484   7.748   0.634   2.809 -0.2710  0.0803  0.4227
18678SOL    HW157485   7.714   0.618   2.722 -0.5896 -1.0911  0.7407
18678SOL    HW257486   7.675   0.672   2.857 -0.2048  0.3878  0.2821
18679SOL     OW57487   8.177   5.530   2.594  0.1616 -0.1974 -0.0577
18679SOL    HW157488   8.187   5.617   2.632 -0.4898  0.4106 -1.2332
18679SOL    HW257489   8.266   5.500   2.578  0.3996  1.5051 -2.3625
18680SOL     OW57490   6.696   8.148   0.091  0.2791 -0.9096  0.0526
18680SOL    HW157491   6.701   8.243   0.098 -0.2628 -0.8947  0.2636
18680SOL    HW257492   6.778   8.117   0.129  0.4164 -0.5338  0.0678
18681SOL     OW57493   8.193   3.645   5.236  0.2666 -0.0606 -0.0433
18681SOL    HW157494   8.185   3.700   5.158 -0.2162  0.6399  0.4873
18681SOL    HW257495   8.160   3.560   5.209  0.9520 -0.0820 -0.8588
18682SOL     OW57496   2.431   6.599   2.945  0.1952 -0.3913 -0.5127
18682SOL    HW157497   2.347   6.601   2.992 -0.8206  0.5072 -2.2595
18682SOL    HW257498   2.473   6.518   2.974 -0.1274  0.3294  2.2738
18683SOL     OW57499   7.726   6.981   4.787 -0.3419  0.0917 -0.1423
18683SOL    HW157500   7.775   7.061   4.810 -1.2675  0.4869  0.5342
18683SOL    HW257501   7.785   6.910   4.811  0.1692  0.5592  0.0315
18684SOL     OW57502   2.573   1.130   1.149  0.8656 -0.4913  0.5475
18684SOL    HW157503   2.549   1.158   1.237  0.6323  1.1026  0.0082
18684SOL    HW257504   2.669   1.121   1.151  1.1949  2.2719  0.2711
18685SOL     OW57505   3.022   0.748   0.573  0.0887  0.0027 -0.1625
18685SOL    HW157506   3.037   0.843   0.582  0.1577 -0.1436  1.8266
18685SOL    HW257507   2.927   0.739   0.568  0.0259  0.1376  0.6327
18686SOL     OW57508   4.409   3.008   5.185  0.2621 -0.6523  0.2668
18686SOL    HW157509   4.360   2.931   5.157  0.8213 -0.9220  0.0113
18686SOL    HW257510   4.440   2.985   5.273 -3.0338  0.8924  2.0335
18687SOL     OW57511   5.157   8.055   8.412  0.1460  0.5905 -0.3068
18687SOL    HW157512   5.082   8.112   8.428 -1.1853 -0.9868 -0.6952
18687SOL    HW257513   5.171   8.009   8.494  2.1630  2.4424  0.4820
18688SOL     OW57514   5.233   4.465   4.899  0.5329 -0.1257 -0.2828
18688SOL    HW157515   5.205   4.390   4.847  0.0148 -1.0927  1.3006
18688SOL    HW257516   5.162   4.528   4.891  0.7085 -0.0270 -1.1571
18689SOL     OW57517   2.619   8.382   4.878 -0.2625  0.3205  0.0492
18689SOL    HW157518   2.661   8.438   4.813  1.2420  0.6476  1.2670
18689SOL    HW257519   2.607   8.439   4.954 -2.4229  0.0718 -0.0478
18690SOL     OW57520   0.381   5.826   0.732 -0.2470 -0.1887  0.1346
18690SOL    HW157521   0.360   5.869   0.649  1.3672 -0.8021 -0.6327
18690SOL    HW257522   0.464   5.865   0.759  1.1174 -2.5498 -0.4420
18691SOL     OW57523   7.169   8.915   0.083 -0.2143  0.2232  0.4437
18691SOL    HW157524   7.185   9.006   0.055 -2.4021  1.0884  1.7988
18691SOL    HW257525   7.175   8.918   0.178 -0.1742 -1.1177  0.5005
18692SOL     OW57526   8.913   6.435   3.864  0.3900  0.4256  0.3172
18692SOL    HW157527   8.904   6.440   3.959  0.9779  0.1354  0.3931
18692SOL    HW257528   9.006   6.423   3.849  0.1207 -1.2442 -0.2156
18693SOL     OW57529   4.920   4.312   8.744 -0.8079 -0.0547  0.6291
18693SOL    HW157530   4.966   4.387   8.781  0.4659  0.2207 -1.3984
18693SOL    HW257531   4.919   4.248   8.815  0.8276  0.7438  1.4305
18694SOL     OW57532   3.354   7.912   5.388  0.3835  0.4354 -0.5090
18694SOL    HW157533   3.340   7.867   5.471 -0.9041  1.1388 -0.3161
18694SOL    HW257534   3.341   8.005   5.408 -0.2889  0.5834 -1.5559
18695SOL     OW57535   0.009   6.829   8.177 -0.8608 -0.4766 -0.3613
18695SOL    HW157536   0.093   6.850   8.218 -1.6444  0.5615  0.7842
18695SOL    HW257537  -0.000   6.734   8.189  0.2972 -0.6627 -0.8278
18696SOL     OW57538   0.014   4.042   1.192 -0.3532 -0.5443 -0.2543
18696SOL    HW157539  -0.033   4.019   1.272  1.2904  0.4503  1.0843
18696SOL    HW257540  -0.023   4.126   1.165 -0.9849 -0.9337 -0.6017
18697SOL     OW57541   3.568   3.918   8.567 -0.2001  0.4245 -0.4848
18697SOL    HW157542   3.492   3.913   8.624  0.1278 -2.0385 -0.1577
18697SOL    HW257543   3.551   3.993   8.510 -2.5393  0.3328  0.0164
18698SOL     OW57544   9.092   2.525   5.876  0.2669 -0.3348 -0.5112
18698SOL    HW157545   9.090   2.571   5.793 -0.6603 -0.0769 -0.3545
18698SOL    HW257546   9.051   2.441   5.858 -0.4159 -0.0717 -0.1961
18699SOL     OW57547   3.667   4.738   8.737 -0.2213 -0.5185 -0.0719
18699SOL    HW157548   3.588   4.685   8.721 -0.8002  0.3652 -0.2104
18699SOL    HW257549   3.715   4.689   8.804 -1.6478 -0.3403  1.1426
18700SOL     OW57550   3.235   2.894   0.585 -0.2053  0.1435  0.1137
18700SOL    HW157551   3.256   2.802   0.594  2.4669  0.8530  2.3582
18700SOL    HW257552   3.240   2.911   0.490 -0.9411 -1.9695 -0.3545
18701SOL     OW57553   0.653   8.634   7.681 -0.0604 -0.0328 -0.0443
18701SOL    HW157554   0.623   8.544   7.696 -0.0530  0.1067  0.8670
18701SOL    HW257555   0.615   8.684   7.753 -1.4555  1.0322 -1.4528
18702SOL     OW57556   2.383   2.512   6.730 -0.1730  0.4016  0.6215
18702SOL    HW157557   2.415   2.601   6.715  0.4112  0.2025  0.6710
18702SOL    HW257558   2.328   2.493   6.654  2.0521 -0.2837 -0.9055
18703SOL     OW57559   5.341   0.029   5.997  0.2110 -0.3965 -0.8331
18703SOL    HW157560   5.353  -0.037   6.065 -0.6062 -0.7175 -0.9922
18703SOL    HW257561   5.326  -0.021   5.917  1.4146 -0.0252 -1.3144
18704SOL     OW57562   6.740   7.225   7.432  0.5206 -0.1223  0.3197
18704SOL    HW157563   6.702   7.160   7.373  0.1650 -0.0874  0.5102
18704SOL    HW257564   6.827   7.241   7.397  0.1391  0.2545 -0.4787
18705SOL     OW57565   6.393   8.589   2.251 -0.0537 -0.5138 -0.4653
18705SOL    HW157566   6.297   8.598   2.249 -0.0816 -0.3716  0.6761
18705SOL    HW257567   6.410   8.508   2.202 -0.7182 -0.2994 -1.0715
18706SOL     OW57568   8.515   2.492   2.514 -0.2086  0.4700 -0.2079
18706SOL    HW157569   8.594   2.473   2.463  1.6328  1.1628  2.2104
18706SOL    HW257570   8.443   2.479   2.452  1.8824  2.4282 -3.3542
18707SOL     OW57571   4.885   4.819   9.052  0.1916  0.5955 -0.0770
18707SOL    HW157572   4.975   4.811   9.085 -0.3431  0.2383  1.3533
18707SOL    HW257573   4.857   4.906   9.080 -0.3967  0.1452  0.7569
18708SOL     OW57574   6.555   6.730   3.741  0.4460  0.1580 -0.5051
18708SOL    HW157575   6.582   6.750   3.652  1.4020  0.0004 -0.2545
18708SOL    HW257576   6.633   6.693   3.782  0.5376  1.8631  0.9325
18709SOL     OW57577   6.062   0.109   6.009 -0.1905 -0.3992 -0.1153
18709SOL    HW157578   6.038   0.018   6.028 -1.6591 -0.1272 -0.5638
18709SOL    HW257579   6.063   0.114   5.914 -0.9687  0.2496 -0.1045
18710SOL     OW57580   6.715   3.078   3.154  0.1914  0.2625 -0.1674
18710SOL    HW157581   6.681   2.989   3.140 -0.9371  0.8844 -1.6451
18710SOL    HW257582   6.722   3.115   3.067  0.0956  1.8346  0.4642
18711SOL     OW57583   8.140   2.955   0.912  0.1468 -0.6010 -0.5546
18711SOL    HW157584   8.062   3.010   0.900  0.0740 -0.6900 -0.4969
18711SOL    HW257585   8.160   2.922   0.824 -0.5068 -1.4205 -0.4168
18712SOL     OW57586   2.220   0.387   2.906  0.1042 -0.4676  0.1884
18712SOL    HW157587   2.278   0.413   2.977  0.2026 -0.7140  0.1982
18712SOL    HW257588   2.273   0.330   2.851  0.1945  0.1573 -0.3826
18713SOL     OW57589   2.690   4.841   8.031  1.1113 -0.3270  0.0922
18713SOL    HW157590   2.617   4.868   8.087  1.1562 -1.0324  0.5082
18713SOL    HW257591   2.711   4.919   7.980  0.0193 -0.1308 -0.0884
18714SOL     OW57592   8.626   4.565   1.607  0.1949 -0.3163 -0.3995
18714SOL    HW157593   8.589   4.650   1.585  0.5362 -0.1045 -0.1584
18714SOL    HW257594   8.707   4.585   1.655  0.3961 -0.7759 -0.5430
18715SOL     OW57595   4.456   0.147   8.982 -0.0721  0.6785  0.1206
18715SOL    HW157596   4.453   0.071   9.040  1.6333  0.2193 -0.3081
18715SOL    HW257597   4.366   0.178   8.977 -0.8011 -1.2813  0.3490
18716SOL     OW57598   2.741   6.999   9.173 -0.2468 -0.5796 -0.5264
18716SOL    HW157599   2.724   6.911   9.206  0.4725 -0.3054  0.6518
18716SOL    HW257600   2.837   7.008   9.178 -0.3632  0.5133  0.1077
18717SOL     OW57601   6.106   5.617   0.693  0.0645  0.7471  0.0917
18717SOL    HW157602   6.132   5.536   0.650 -0.4278  0.6770 -0.0699
18717SOL    HW257603   6.018   5.601   0.726  0.9286  0.3433  2.3153
18718SOL     OW57604   6.314   6.612   4.754  0.4785 -0.1028 -0.0460
18718SOL    HW157605   6.340   6.560   4.678  0.7113 -0.4069  0.2406
18718SOL    HW257606   6.323   6.703   4.726 -1.2677 -0.1941 -1.0246
18719SOL     OW57607   5.093   2.826   3.375  0.6045 -0.9387  0.1570
18719SOL    HW157608   5.180   2.785   3.372  0.6707 -0.8212  0.4853
18719SOL    HW257609   5.068   2.836   3.283  0.5672 -1.7602  0.0678
18720SOL     OW57610   0.292   0.215   5.002 -0.8721 -0.1137 -0.0104
18720SOL    HW157611   0.338   0.247   5.079 -0.3440  1.0681 -0.7951
18720SOL    HW257612   0.346   0.142   4.971 -1.2501 -0.7932  0.8923
18721SOL     OW57613   0.888   4.907   7.587  0.3334  0.6777  0.5879
18721SOL    HW157614   0.975   4.872   7.572  0.7218  1.7351  0.2837
18721SOL    HW257615   0.899   4.970   7.658  0.0569  1.6433 -0.1913
18722SOL     OW57616   5.960   5.994   2.983  0.2801  0.5920  0.5429
18722SOL    HW157617   6.040   6.044   3.002  1.2529 -1.1324  1.2341
18722SOL    HW257618   5.945   5.943   3.063 -1.1670  0.4044  0.1714
18723SOL     OW57619   3.121   4.763   6.468 -0.0884  0.0885  0.0096
18723SOL    HW157620   3.055   4.823   6.503  0.0940 -0.5434  1.4838
18723SOL    HW257621   3.202   4.814   6.467 -0.7268  1.2909 -2.9854
18724SOL     OW57622   1.204   8.738   3.683  0.0779  0.3793 -0.1171
18724SOL    HW157623   1.144   8.742   3.757 -0.4689  1.2572 -0.5984
18724SOL    HW257624   1.187   8.817   3.633  1.7837  0.7544 -0.1666
18725SOL     OW57625   7.137   7.575   1.925  0.1408 -0.8626  0.2345
18725SOL    HW157626   7.185   7.558   2.006  0.0510  1.1692  0.7575
18725SOL    HW257627   7.181   7.650   1.886 -0.8988 -0.7253 -0.7293
18726SOL     OW57628   0.990   3.646   0.124  0.3479  0.0115 -0.8817
18726SOL    HW157629   1.043   3.716   0.163  1.6043 -0.9418 -0.8481
18726SOL    HW257630   0.963   3.592   0.198  0.4401 -0.2556 -1.0420
18727SOL     OW57631   9.264   4.554   1.029 -0.2390  0.2467  0.1080
18727SOL    HW157632   9.270   4.625   0.964 -0.6714 -1.6596 -2.1460
18727SOL    HW257633   9.182   4.571   1.076  0.1591  1.7599  0.3075
18728SOL     OW57634   5.076   4.805   4.346  0.2685 -0.3000 -0.2988
18728SOL    HW157635   5.042   4.846   4.425 -0.7709 -1.5721 -0.0465
18728SOL    HW257636   5.108   4.720   4.375  0.3490 -0.5796 -1.1617
18729SOL     OW57637   3.282   8.274   8.432  0.0288 -0.3127  0.4934
18729SOL    HW157638   3.216   8.336   8.401 -2.2791 -2.0126  1.7023
18729SOL    HW257639   3.358   8.289   8.375 -1.7569  1.0050 -1.7062
18730SOL     OW57640   4.996   6.129   2.565  0.1478 -0.3401  0.2496
18730SOL    HW157641   4.938   6.202   2.586  0.9100  0.1834  0.5555
18730SOL    HW257642   5.032   6.102   2.649  0.2395 -0.7679  0.0771
18731SOL     OW57643   7.367   0.831   6.056 -0.3169  0.5946  0.3672
18731SOL    HW157644   7.426   0.834   5.981  1.0200  1.8580  1.4215
18731SOL    HW257645   7.338   0.921   6.067 -0.6397  0.3877  1.2726
18732SOL     OW57646   4.470   8.463   0.227 -0.1814 -0.2121 -0.4004
18732SOL    HW157647   4.479   8.369   0.241 -0.2497 -0.3546 -1.2370
18732SOL    HW257648   4.501   8.477   0.137  1.6489  0.8394  0.3303
18733SOL     OW57649   1.500   4.931   7.179 -0.0695  0.7394 -0.2212
18733SOL    HW157650   1.542   4.915   7.264  2.3025 -1.2385 -1.6373
18733SOL    HW257651   1.414   4.889   7.187  0.7225 -0.8133  0.7408
18734SOL     OW57652   0.455   3.716   5.799 -0.6984 -0.1973  0.3672
18734SOL    HW157653   0.511   3.730   5.876 -2.5761 -0.8817  1.9398
18734SOL    HW257654   0.455   3.621   5.787  0.8252 -0.0061 -1.5170
18735SOL     OW57655   7.192   1.363   0.626  0.2928  0.1372  0.4459
18735SOL    HW157656   7.179   1.365   0.720 -1.6840  3.1812  0.2253
18735SOL    HW257657   7.134   1.294   0.595 -0.8254  0.6774  1.2840
18736SOL     OW57658   2.492   8.108   5.434  0.0776  0.4129 -0.7716
18736SOL    HW157659   2.486   8.040   5.367 -0.4141  2.4770 -2.9447
18736SOL    HW257660   2.586   8.115   5.453  0.0944 -1.1618 -0.1297
18737SOL     OW57661   5.436   0.377   3.755 -0.2529  0.0824  0.2009
18737SOL    HW157662   5.428   0.283   3.742 -1.0317  0.0901  0.5444
18737SOL    HW257663   5.358   0.414   3.713 -0.4676  0.4826  0.9309
18738SOL     OW57664   3.282   9.266   6.524  0.3561  0.4361  0.9222
18738SOL    HW157665   3.221   9.338   6.509 -0.5850 -0.3207  0.9798
18738SOL    HW257666   3.266   9.206   6.450  0.1354 -0.3566  1.6024
18739SOL     OW57667   3.774   7.803   8.718 -0.1449  0.1448  0.6014
18739SOL    HW157668   3.822   7.853   8.652 -0.6700 -0.3176 -0.1407
18739SOL    HW257669   3.771   7.714   8.684  1.0664 -0.5104  2.0525
18740SOL     OW57670   7.298   1.035   0.583  0.1116  0.6851 -0.3286
18740SOL    HW157671   7.295   1.001   0.493  0.9426  0.4799 -0.2916
18740SOL    HW257672   7.208   1.058   0.604 -1.2102 -4.3227  0.7384
18741SOL     OW57673   1.144   4.205   4.809 -0.0731  0.0385  0.2809
18741SOL    HW157674   1.075   4.246   4.757 -0.4577  0.1751  0.8904
18741SOL    HW257675   1.107   4.122   4.839 -0.4770  0.7092  1.7104
18742SOL     OW57676   1.082   5.881   8.366 -0.6439 -0.4703 -0.4149
18742SOL    HW157677   1.127   5.807   8.407 -1.9295 -1.4941 -0.7997
18742SOL    HW257678   1.152   5.933   8.327  0.1611 -2.7614 -2.2391
18743SOL     OW57679   4.197   9.009   3.164 -0.1548 -0.6053 -0.1481
18743SOL    HW157680   4.138   8.934   3.168  0.2976 -0.9256  2.0407
18743SOL    HW257681   4.147   9.077   3.119 -1.3935 -1.5242 -0.2145
18744SOL     OW57682   8.638   3.615   8.733 -0.2166  0.2884  0.1427
18744SOL    HW157683   8.684   3.607   8.817 -1.6283  1.0481  1.0347
18744SOL    HW257684   8.707   3.626   8.668  1.0702 -2.7713  0.8217
18745SOL     OW57685   8.609   0.557   0.627  0.0616 -0.1780 -0.2971
18745SOL    HW157686   8.645   0.561   0.716 -1.0010 -0.9087  0.1792
18745SOL    HW257687   8.584   0.647   0.607 -0.5763 -0.1585  0.5276
18746SOL     OW57688   1.086   8.021   6.312 -0.0398 -0.5963 -0.0791
18746SOL    HW157689   1.150   8.085   6.343  0.6304 -0.4492 -1.6566
18746SOL    HW257690   1.052   8.058   6.231 -0.5149 -1.6967 -0.3983
18747SOL     OW57691   5.777   8.662   7.396 -0.4650  0.0878  0.0449
18747SOL    HW157692   5.730   8.643   7.477 -0.7413 -0.0860 -0.1572
18747SOL    HW257693   5.826   8.742   7.415 -0.9456  0.3422  0.2076
18748SOL     OW57694   5.331   7.798   4.567 -0.2385 -0.0802  0.6583
18748SOL    HW157695   5.315   7.758   4.482  1.1165  0.0398  0.3239
18748SOL    HW257696   5.320   7.892   4.552 -0.3561 -0.0854  0.7091
18749SOL     OW57697   5.450   4.006   8.010  0.8088 -0.8425  0.4002
18749SOL    HW157698   5.460   3.944   7.937 -1.0986 -0.3831 -0.3157
18749SOL    HW257699   5.358   4.000   8.034  1.1783 -0.2003  2.0990
18750SOL     OW57700   5.609   1.754   6.163 -0.1100  0.6551  0.1354
18750SOL    HW157701   5.606   1.715   6.076  0.4074  0.3100  0.2647
18750SOL    HW257702   5.675   1.824   6.154 -1.4884  1.9479 -0.2663
18751SOL     OW57703   0.784   6.805   8.439 -0.4189  0.4959  0.7273
18751SOL    HW157704   0.818   6.764   8.519  1.1184 -0.3287 -0.2884
18751SOL    HW257705   0.694   6.772   8.432 -0.3892  0.1187  1.8046
18752SOL     OW57706   0.721   8.523   6.196  0.1164 -0.1892  0.0105
18752SOL    HW157707   0.697   8.447   6.143  1.0105 -0.7311  0.3596
18752SOL    HW257708   0.710   8.493   6.286  0.2517  0.1705  0.1482
18753SOL     OW57709   1.205   1.327   8.828 -0.2861 -0.2282 -0.7282
18753SOL    HW157710   1.193   1.355   8.919  0.5406 -0.8532 -0.4179
18753SOL    HW257711   1.218   1.409   8.780  0.5530  0.0321 -0.0835
18754SOL     OW57712   3.098   6.042   5.348  0.4176  0.1770 -0.2526
18754SOL    HW157713   3.033   6.084   5.405 -1.6091 -1.4717 -1.1847
18754SOL    HW257714   3.111   5.955   5.386  1.0429  0.0065 -0.8353
18755SOL     OW57715   6.955   8.059   7.092 -0.3619  0.1680 -0.1206
18755SOL    HW157716   6.924   8.003   7.021  0.2262 -0.5081  0.1386
18755SOL    HW257717   6.884   8.060   7.156 -0.8100  0.6119 -0.6206
18756SOL     OW57718   4.687   4.363   7.729 -0.7331 -0.1367  0.0707
18756SOL    HW157719   4.771   4.350   7.773 -0.5620 -0.2991 -0.2964
18756SOL    HW257720   4.703   4.433   7.666 -0.9021 -0.0977  0.0694
18757SOL     OW57721   2.046   3.236   5.168  0.5626  0.0103  0.1382
18757SOL    HW157722   1.975   3.214   5.228  1.1821 -0.1292  0.8366
18757SOL    HW257723   2.019   3.198   5.084  0.7824 -1.9138  0.8881
18758SOL     OW57724   4.403   2.493   1.539 -0.6284 -0.7506 -0.4119
18758SOL    HW157725   4.401   2.535   1.453  0.6920 -0.2168 -0.2124
18758SOL    HW257726   4.400   2.566   1.601 -1.6391 -1.1343  0.0152
18759SOL     OW57727   7.906   8.516   8.229  0.1226  0.2755  0.0979
18759SOL    HW157728   7.956   8.555   8.158  0.0693  1.8010  0.8641
18759SOL    HW257729   7.880   8.430   8.195  2.6308 -0.2947 -0.5746
18760SOL     OW57730   3.544   1.269   2.929  0.1630 -0.0111  0.5025
18760SOL    HW157731   3.493   1.349   2.938 -0.7220 -0.3202 -1.2339
18760SOL    HW257732   3.618   1.281   2.989 -0.1392  1.9336  0.5730
18761SOL     OW57733   0.194   5.653   6.132  0.0296  0.1767  0.3345
18761SOL    HW157734   0.144   5.639   6.212  1.0963 -0.3439  0.9212
18761SOL    HW257735   0.261   5.717   6.156  1.3784 -1.1884  0.3260
18762SOL     OW57736   2.227   8.702   6.997 -0.0843  0.4140 -0.1399
18762SOL    HW157737   2.152   8.664   7.042 -0.6360  1.5646 -0.0345
18762SOL    HW257738   2.256   8.634   6.936  0.8482 -1.2911  2.0770
18763SOL     OW57739   4.056   8.652   1.614 -0.5869 -0.0921  0.4693
18763SOL    HW157740   4.105   8.569   1.618  0.0604  0.1606 -1.2733
18763SOL    HW257741   4.014   8.659   1.700  0.9324 -1.2520  1.3629
18764SOL     OW57742   0.901   4.805   4.835  0.5239 -0.3074  0.2750
18764SOL    HW157743   0.837   4.876   4.836  0.0420 -0.7212 -0.4257
18764SOL    HW257744   0.924   4.794   4.743  0.3540 -1.2660  0.3328
18765SOL     OW57745   3.267   3.295   5.868 -0.4369  0.4327  0.0324
18765SOL    HW157746   3.355   3.323   5.889  0.2263 -0.4288 -1.4235
18765SOL    HW257747   3.275   3.250   5.784 -2.1730 -0.1197  0.1079
18766SOL     OW57748   7.713   0.217   2.793  0.3138 -0.5836  0.9408
18766SOL    HW157749   7.708   0.194   2.886  0.5623 -0.2282  1.0430
18766SOL    HW257750   7.798   0.260   2.783 -0.2116  0.4614  0.7898
18767SOL     OW57751   0.551   2.976   2.774 -0.3554 -0.0681 -0.6016
18767SOL    HW157752   0.528   2.923   2.850  0.2873  1.7306  0.9409
18767SOL    HW257753   0.468   3.013   2.744 -0.6688 -1.1295 -1.0672
18768SOL     OW57754   1.333   6.596   0.474 -0.0328 -0.3291  0.3609
18768SOL    HW157755   1.268   6.565   0.411 -1.1157 -0.1400  1.3492
18768SOL    HW257756   1.379   6.517   0.503 -1.1976 -0.7287  1.1477
18769SOL     OW57757   1.333   7.731   9.046 -0.4961 -0.2430 -0.4112
18769SOL    HW157758   1.353   7.787   8.970  1.8219 -0.1837  0.1506
18769SOL    HW257759   1.324   7.643   9.009 -1.1568  0.0335 -0.9395
18770SOL     OW57760   2.446   7.090   4.792 -0.4172 -0.0739  0.4510
18770SOL    HW157761   2.472   7.165   4.738  2.1811 -1.8408 -0.9802
18770SOL    HW257762   2.476   7.111   4.880 -1.1096  1.1687  0.4066
18771SOL     OW57763   5.300   3.912   8.335 -0.1381 -0.6010 -0.0036
18771SOL    HW157764   5.391   3.915   8.364  0.1521  0.7265 -0.9262
18771SOL    HW257765   5.270   4.003   8.342 -0.6503 -0.5740 -1.8748
18772SOL     OW57766   1.377   1.199   6.284  0.8450 -0.1090 -0.5735
18772SOL    HW157767   1.350   1.120   6.238  0.8815  0.4752 -1.6372
18772SOL    HW257768   1.303   1.220   6.341 -0.4456  0.7066 -2.4466
18773SOL     OW57769   4.852   6.923   8.468  0.4175 -0.2481  0.5441
18773SOL    HW157770   4.791   6.922   8.542 -1.1426 -0.9673 -0.6751
18773SOL    HW257771   4.827   6.999   8.417 -0.0401 -1.0106 -0.4026
18774SOL     OW57772   4.203   4.451   2.939 -0.0593 -0.4475 -0.0420
18774SOL    HW157773   4.132   4.514   2.949 -0.6523 -1.2499  1.1070
18774SOL    HW257774   4.264   4.492   2.878 -1.2270  0.5116 -0.6012
18775SOL     OW57775   3.144   6.989   7.748 -0.5190 -0.3278 -0.2044
18775SOL    HW157776   3.121   6.908   7.794  2.0464 -1.4429 -0.7251
18775SOL    HW257777   3.093   6.986   7.667 -1.6982 -0.5709  0.5227
18776SOL     OW57778   5.360   6.437   6.342  0.4668  0.7655 -0.3486
18776SOL    HW157779   5.397   6.436   6.254 -1.1217  0.2487 -1.0469
18776SOL    HW257780   5.399   6.361   6.385 -0.5936 -0.4549 -1.4508
18777SOL     OW57781   6.989   2.517   6.016 -0.6581  0.7077  0.4426
18777SOL    HW157782   6.927   2.458   6.059 -0.5951  0.5853  0.3657
18777SOL    HW257783   6.974   2.503   5.922  0.7271 -0.6501  0.3938
18778SOL     OW57784   7.284   8.819   9.133 -0.4194 -0.6100 -0.4875
18778SOL    HW157785   7.366   8.779   9.162  0.6298  1.1304 -0.8449
18778SOL    HW257786   7.248   8.859   9.212  0.3794  0.7139 -0.7580
18779SOL     OW57787   6.270   6.359   0.846  0.2894  0.1522  0.9287
18779SOL    HW157788   6.288   6.324   0.759 -0.5505 -3.6975  2.1022
18779SOL    HW257789   6.186   6.319   0.870 -0.3884  2.5352  2.8556
18780SOL     OW57790   4.900   0.279   4.077 -0.3859  0.8979 -0.0330
18780SOL    HW157791   4.960   0.293   4.150  0.6393  0.9538 -0.8548
18780SOL    HW257792   4.813   0.301   4.112  0.2424  2.1868  0.7965
18781SOL     OW57793   5.269   3.521   0.184 -0.1619 -0.3813 -0.0346
18781SOL    HW157794   5.303   3.590   0.126  1.8665 -0.8679  0.5077
18781SOL    HW257795   5.180   3.505   0.152 -0.1865  1.4960 -1.0560
18782SOL     OW57796   4.517   7.117   7.917 -0.0696  0.6397  0.6909
18782SOL    HW157797   4.451   7.169   7.872 -0.1030 -0.4246 -0.5423
18782SOL    HW257798   4.601   7.148   7.883 -0.1109 -0.4312 -0.4526
18783SOL     OW57799   8.010   0.154   9.128 -0.2787 -0.1937 -0.1059
18783SOL    HW157800   7.947   0.120   9.193 -0.1515 -0.0006  0.1167
18783SOL    HW257801   8.082   0.188   9.180 -0.5995  0.8344 -0.3074
18784SOL     OW57802   6.923   3.951   7.922  0.4152 -0.0448 -0.0616
18784SOL    HW157803   6.892   4.037   7.950  0.4603 -0.6838  2.1936
18784SOL    HW257804   6.933   3.958   7.828 -2.3372  1.5274 -0.3397
18785SOL     OW57805   1.785   1.067   4.202 -0.0031 -0.1747  0.0278
18785SOL    HW157806   1.849   1.074   4.273  0.0794  1.2818 -0.1756
18785SOL    HW257807   1.769   0.972   4.194 -1.3683 -0.3461  3.1903
18786SOL     OW57808   2.626   0.900   8.473  0.3046  0.4456  0.0735
18786SOL    HW157809   2.693   0.843   8.511 -0.2110 -0.8332 -0.8741
18786SOL    HW257810   2.598   0.855   8.393  0.4506  2.4359 -1.1539
18787SOL     OW57811   5.798   1.064   8.280 -0.3669  0.0079 -0.1196
18787SOL    HW157812   5.857   1.135   8.256  1.3243 -0.5647  2.0480
18787SOL    HW257813   5.718   1.108   8.308  0.2875  0.9911  0.2364
18788SOL     OW57814   8.271   7.499   1.009  0.1881  0.2466  0.1143
18788SOL    HW157815   8.298   7.537   1.093  1.1070 -1.3050  0.5551
18788SOL    HW257816   8.235   7.573   0.960  1.6585  1.6306  1.0305
18789SOL     OW57817   8.560   7.462   3.318 -0.1789  0.4829 -0.4118
18789SOL    HW157818   8.503   7.527   3.357  1.1207  0.5897  1.4386
18789SOL    HW257819   8.550   7.384   3.372  0.2878  0.0162 -0.9734
18790SOL     OW57820   4.713   4.400   7.179 -0.2901 -0.4439 -0.1336
18790SOL    HW157821   4.780   4.341   7.215 -0.8862  0.0072  1.8493
18790SOL    HW257822   4.752   4.433   7.097  0.5434 -2.6288 -0.6884
18791SOL     OW57823   6.251   0.207   2.908 -0.2363  0.1152  0.3129
18791SOL    HW157824   6.253   0.197   3.003 -0.8668 -0.6708  0.2535
18791SOL    HW257825   6.214   0.125   2.876  1.9621 -0.5568 -0.7528
18792SOL     OW57826   7.010   0.431   0.325  0.1081  0.2810 -0.3734
18792SOL    HW157827   7.057   0.440   0.408 -1.6439 -0.0523  0.7289
18792SOL    HW257828   7.070   0.463   0.259  1.2624  1.3604  1.1268
18793SOL     OW57829   0.669   4.089   7.669  0.0831 -0.1041 -0.1619
18793SOL    HW157830   0.584   4.101   7.710 -0.5775  0.5117 -1.6578
18793SOL    HW257831   0.732   4.113   7.737 -1.0017  2.4711  0.0412
18794SOL     OW57832   5.297   3.367   7.630 -0.2262 -0.0679 -0.3285
18794SOL    HW157833   5.359   3.309   7.586 -0.2425 -0.1388 -0.2599
18794SOL    HW257834   5.331   3.376   7.719 -1.3845 -1.7808  0.3622
18795SOL     OW57835   1.941   4.268   6.902 -0.0529 -0.0878 -0.3260
18795SOL    HW157836   2.007   4.258   6.833  0.4282 -0.5536  0.1827
18795SOL    HW257837   1.887   4.342   6.874  1.7321  1.4442  0.0750
18796SOL     OW57838   8.828   0.589   7.635  1.0020  0.3444  0.6000
18796SOL    HW157839   8.818   0.552   7.723 -1.0473  0.5497  0.4931
18796SOL    HW257840   8.819   0.514   7.576  1.2106  0.3805  0.5200
18797SOL     OW57841   7.337   1.968   4.272 -0.3848 -0.3613 -0.3525
18797SOL    HW157842   7.397   1.973   4.197 -1.0103 -0.6570 -0.8798
18797SOL    HW257843   7.387   1.921   4.339 -0.3077 -1.3261 -1.0659
18798SOL     OW57844   3.238   5.417   3.426 -0.2821  0.3227 -0.1568
18798SOL    HW157845   3.254   5.424   3.332  2.6948 -2.6763 -0.0559
18798SOL    HW257846   3.248   5.507   3.458 -1.4208  1.4448 -2.6190
18799SOL     OW57847   1.725   8.556   5.893  0.1579 -0.1277 -0.3820
18799SOL    HW157848   1.818   8.580   5.899  0.2976 -0.7171 -0.1011
18799SOL    HW257849   1.700   8.580   5.804  0.6478 -0.1977 -0.5426
18800SOL     OW57850   0.885   6.009   2.331 -0.2361 -0.3186 -0.1679
18800SOL    HW157851   0.858   5.971   2.247  0.3427 -1.4639  0.1381
18800SOL    HW257852   0.819   6.076   2.349 -0.1813  0.1994 -1.6936
18801SOL     OW57853   4.655   0.564   5.736 -0.2172 -0.3842 -0.8496
18801SOL    HW157854   4.598   0.488   5.723 -0.7938 -0.5495  2.0567
18801SOL    HW257855   4.595   0.635   5.759  0.5888 -0.2023  0.8611
18802SOL     OW57856   2.699   1.937   3.860 -0.9102  0.4006 -0.1256
18802SOL    HW157857   2.655   1.883   3.925  0.1219  0.9476  1.1003
18802SOL    HW257858   2.635   2.004   3.836 -1.9645 -0.9453 -1.1611
18803SOL     OW57859   7.304   0.271   4.479 -0.2633  0.1902  0.3440
18803SOL    HW157860   7.300   0.180   4.508 -0.0474 -0.2469 -0.9118
18803SOL    HW257861   7.377   0.272   4.417 -1.6364  0.6880 -1.3459
18804SOL     OW57862   0.261   1.669   8.129 -0.1548  0.3300 -0.6552
18804SOL    HW157863   0.181   1.615   8.129 -0.3867  0.6662 -0.5974
18804SOL    HW257864   0.306   1.644   8.210 -0.1117  0.0130 -0.7728
18805SOL     OW57865   0.252   3.421   3.360  0.0157 -0.5182  0.1078
18805SOL    HW157866   0.299   3.485   3.306 -1.0730 -0.2235 -0.5259
18805SOL    HW257867   0.183   3.389   3.303 -0.0201 -1.5871  0.7377
18806SOL     OW57868   1.638   1.703   2.253 -0.2563  0.6594 -0.0979
18806SOL    HW157869   1.597   1.702   2.166 -2.0849  0.6487  0.7233
18806SOL    HW257870   1.704   1.773   2.247  0.4839 -0.1220 -1.8279
18807SOL     OW57871   8.591   1.407   8.155 -0.5953 -0.3219 -0.4341
18807SOL    HW157872   8.667   1.426   8.100 -0.7274  0.5976 -0.3082
18807SOL    HW257873   8.515   1.419   8.097 -0.6805 -0.7263 -0.4166
18808SOL     OW57874   0.099   7.855   6.040  0.5003 -0.2303 -0.2617
18808SOL    HW157875   0.096   7.769   5.999 -2.5050 -0.4556  0.2049
18808SOL    HW257876   0.053   7.913   5.979  0.4779  0.5341  0.4617
18809SOL     OW57877   1.094   9.157   0.327  0.2566  0.3290  0.0154
18809SOL    HW157878   1.168   9.159   0.267 -0.2035 -0.7224 -0.6046
18809SOL    HW257879   1.025   9.206   0.282  0.5866  1.3933  0.6345
18810SOL     OW57880   2.885   0.483   5.192 -0.1128 -0.0881  0.0077
18810SOL    HW157881   2.842   0.499   5.276 -0.2254  1.5608 -0.3189
18810SOL    HW257882   2.815   0.456   5.133 -0.9933  3.2815 -0.7134
18811SOL     OW57883   7.006   3.048   1.306 -0.3192 -0.4925 -0.2653
18811SOL    HW157884   7.066   3.089   1.243 -1.3937  1.4246 -0.1048
18811SOL    HW257885   6.929   3.104   1.305 -1.2608 -1.7060  1.1256
18812SOL     OW57886   6.373   6.597   4.485  0.4664  0.2906  0.3302
18812SOL    HW157887   6.376   6.616   4.391 -2.0525 -2.2082 -0.3756
18812SOL    HW257888   6.343   6.679   4.525  1.5430  1.3865 -0.9813
18813SOL     OW57889   1.225   7.363   0.406  0.3921  0.2698  0.1961
18813SOL    HW157890   1.234   7.271   0.431  1.6822  0.8608  2.2204
18813SOL    HW257891   1.210   7.362   0.312 -1.1744 -2.0671  0.4009
18814SOL     OW57892   7.788   2.475   1.716  0.6855 -0.6292 -0.3959
18814SOL    HW157893   7.844   2.543   1.680 -1.6675  1.1801 -0.8713
18814SOL    HW257894   7.720   2.523   1.765 -0.5860 -2.6530 -0.0487
18815SOL     OW57895   7.796   7.252   0.999  0.1623 -0.3521  0.8030
18815SOL    HW157896   7.794   7.202   0.917  0.0805 -0.7067  1.0175
18815SOL    HW257897   7.873   7.308   0.991 -0.1611  0.0375  0.2420
18816SOL     OW57898   3.757   0.673   1.606  0.2211  0.1307  0.4017
18816SOL    HW157899   3.807   0.733   1.661  0.6355 -0.1245  0.3138
18816SOL    HW257900   3.674   0.662   1.651  0.0541  0.9486  0.2973
18817SOL     OW57901   1.750   9.227   8.237 -0.3591  0.0251 -0.2466
18817SOL    HW157902   1.776   9.150   8.288 -1.3384  0.1514  0.4849
18817SOL    HW257903   1.658   9.211   8.215 -0.2336  0.4477 -1.1109
18818SOL     OW57904   9.078   4.425   5.809 -0.2863  0.2006  0.0587
18818SOL    HW157905   9.139   4.494   5.784 -1.2296  1.4590  1.0620
18818SOL    HW257906   9.029   4.462   5.883 -2.3037 -0.7196 -0.7465
18819SOL     OW57907   8.042   7.416   5.411  0.1847 -0.1280 -0.1520
18819SOL    HW157908   8.064   7.444   5.322  0.4719 -0.0531 -0.0594
18819SOL    HW257909   7.977   7.347   5.400  0.6944 -0.5666 -0.4455
18820SOL     OW57910   5.806   8.301   2.539 -0.0674  0.1191  0.7346
18820SOL    HW157911   5.895   8.315   2.572  0.6042 -0.5297 -0.7073
18820SOL    HW257912   5.750   8.320   2.613  1.3647 -1.2731  2.2517
18821SOL     OW57913   4.166   4.270   0.473  0.4926  0.6358  0.2699
18821SOL    HW157914   4.196   4.292   0.385 -0.4107 -2.5492 -0.9667
18821SOL    HW257915   4.198   4.181   0.488 -1.6853  0.0657  2.0500
18822SOL     OW57916   8.476   4.267   3.451  0.0709  0.1861  0.4475
18822SOL    HW157917   8.417   4.197   3.478 -0.0538  0.1283  0.0301
18822SOL    HW257918   8.419   4.332   3.410  0.2296  0.3744  0.5253
18823SOL     OW57919   8.254   0.303   1.735  0.4319  0.0931  0.5264
18823SOL    HW157920   8.179   0.297   1.676 -0.1883  0.0335  1.2989
18823SOL    HW257921   8.282   0.395   1.730 -0.0311  0.2422  0.6263
18824SOL     OW57922   3.206   2.340   4.085 -0.2111 -0.3858  0.2540
18824SOL    HW157923   3.154   2.407   4.042 -2.2293 -1.2396  1.2358
18824SOL    HW257924   3.182   2.259   4.040 -0.4598 -0.9203  1.3259
18825SOL     OW57925   0.332   7.327   3.455 -0.4240 -0.1898 -0.1736
18825SOL    HW157926   0.380   7.348   3.535  2.8447 -2.9671 -1.1611
18825SOL    HW257927   0.253   7.283   3.485 -0.3148  0.7049  1.5307
18826SOL     OW57928   3.471   5.994   7.203  0.4431  0.0370 -0.0839
18826SOL    HW157929   3.426   6.037   7.276 -2.0015  0.0176 -1.4732
18826SOL    HW257930   3.454   5.901   7.216 -0.0513  0.0371 -0.6717
18827SOL     OW57931   1.809   1.137   2.399 -0.1206  0.6302  0.1068
18827SOL    HW157932   1.801   1.108   2.308  0.9923  2.4112 -0.6114
18827SOL    HW257933   1.895   1.105   2.427 -0.0896  0.8195  0.2317
18828SOL     OW57934   2.036   1.093   7.997 -0.4104 -0.5231 -0.2587
18828SOL    HW157935   2.066   1.180   7.970  2.6423 -1.7279 -1.2605
18828SOL    HW257936   1.965   1.109   8.058 -2.9392  2.5799 -3.5907
18829SOL     OW57937   6.028   0.510   1.185 -0.3844  0.4514  0.4870
18829SOL    HW157938   6.007   0.597   1.151 -0.7069  0.3010  0.2947
18829SOL    HW257939   6.042   0.523   1.279 -0.2589  0.7389  0.4297
18830SOL     OW57940   7.861   6.935   5.175  0.4238 -0.2326 -0.1750
18830SOL    HW157941   7.869   6.841   5.162 -2.4269 -0.6249  0.2574
18830SOL    HW257942   7.785   6.961   5.123 -0.7659  1.2212  2.1071
18831SOL     OW57943   8.048   0.368   1.289  0.3467 -0.0267 -0.2286
18831SOL    HW157944   7.976   0.307   1.271 -0.5429  0.5871  1.0860
18831SOL    HW257945   8.025   0.448   1.242  1.1754 -0.4420 -1.3949
18832SOL     OW57946   3.271   6.915   5.731 -0.5046  0.5506 -0.2191
18832SOL    HW157947   3.233   6.916   5.819 -0.1264  1.0923 -0.0658
18832SOL    HW257948   3.351   6.864   5.740 -0.0189  1.3406 -0.0698
18833SOL     OW57949   7.579   1.188   5.178 -0.1331 -0.1582 -0.3949
18833SOL    HW157950   7.673   1.188   5.195  0.1052 -3.7806 -0.9157
18833SOL    HW257951   7.542   1.139   5.252 -1.8032  2.0157  0.2972
18834SOL     OW57952   0.128   5.039   8.746 -0.0795  0.1652  0.0562
18834SOL    HW157953   0.153   4.985   8.671 -0.0706  1.2649 -0.7717
18834SOL    HW257954   0.032   5.038   8.744 -0.1055  1.3745 -0.9094
18835SOL     OW57955   1.440   6.361   0.514 -0.5808  0.1339 -0.0564
18835SOL    HW157956   1.436   6.339   0.607 -0.5588  0.7351  0.0866
18835SOL    HW257957   1.533   6.349   0.491 -0.6525 -0.3824 -0.0970
18836SOL     OW57958   3.881   1.685   0.196 -0.7881 -0.5853  0.3541
18836SOL    HW157959   3.934   1.620   0.241 -2.1738 -0.7840  1.7873
18836SOL    HW257960   3.904   1.675   0.103  0.8444 -1.3751  0.8163
18837SOL     OW57961   1.508   5.896   0.744  0.1753  0.3343  0.2488
18837SOL    HW157962   1.523   5.976   0.796  0.0270 -0.0160  0.8455
18837SOL    HW257963   1.413   5.891   0.737  0.1527 -0.1718  0.8336
18838SOL     OW57964   8.498   6.929   8.693 -0.3837  0.1103 -0.2391
18838SOL    HW157965   8.559   6.868   8.653 -0.9158 -0.1709 -0.6460
18838SOL    HW257966   8.434   6.874   8.739 -0.0418  0.4156  0.6290
18839SOL     OW57967   7.252   0.971   1.046 -0.0282 -0.3848 -0.4582
18839SOL    HW157968   7.179   0.989   1.104 -0.3416 -0.6956 -0.7493
18839SOL    HW257969   7.316   1.040   1.065 -1.4718  1.4933 -2.0440
18840SOL     OW57970   0.362   9.035   5.254 -0.2286 -0.1420 -0.2006
18840SOL    HW157971   0.385   8.975   5.183  0.1425 -0.5651  0.2673
18840SOL    HW257972   0.428   9.105   5.248 -0.6162  0.1854 -0.7001
18841SOL     OW57973   2.522   5.653   2.517 -0.2190 -0.0588  0.4375
18841SOL    HW157974   2.510   5.634   2.424  0.7195  1.6590 -0.0863
18841SOL    HW257975   2.605   5.611   2.539 -0.3967 -0.3897  0.4812
18842SOL     OW57976   7.212   6.728   0.748 -0.2434 -0.0264  0.0945
18842SOL    HW157977   7.293   6.778   0.745 -1.5550  2.1364 -1.1790
18842SOL    HW257978   7.157   6.774   0.812  0.0146 -2.3854  2.1827
18843SOL     OW57979   1.119   6.983   5.929 -0.1728  0.0301  0.1885
18843SOL    HW157980   1.053   6.937   5.877 -0.0689 -1.8203  1.5831
18843SOL    HW257981   1.086   7.073   5.935 -1.1463 -0.1785 -1.4217
18844SOL     OW57982   0.118   8.538   2.225 -0.7469 -0.1773 -0.3563
18844SOL    HW157983   0.067   8.459   2.207 -1.5467 -0.3862  2.3943
18844SOL    HW257984   0.207   8.506   2.242 -0.7763 -0.3486 -0.5315
18845SOL     OW57985   1.786   6.105   0.804 -0.1113 -0.2691 -0.1254
18845SOL    HW157986   1.701   6.125   0.843 -0.0891  1.1679 -0.7274
18845SOL    HW257987   1.772   6.117   0.710  0.6151 -0.5678 -0.2782
18846SOL     OW57988   1.476   4.177   3.847 -0.4037  0.2617  0.1364
18846SOL    HW157989   1.478   4.263   3.891  2.1002  1.0706 -1.3577
18846SOL    HW257990   1.565   4.143   3.858 -0.6376 -0.9702 -1.4731
18847SOL     OW57991   0.230   8.478   4.543  0.1325 -0.4053  1.1267
18847SOL    HW157992   0.234   8.397   4.491  2.1537  0.9430 -1.0456
18847SOL    HW257993   0.151   8.469   4.596 -0.6794 -3.0215 -0.3520
18848SOL     OW57994   3.921   3.364   3.595  0.3636 -0.1389  0.4642
18848SOL    HW157995   3.880   3.308   3.660 -0.4097  0.9575  0.9525
18848SOL    HW257996   3.853   3.379   3.530  0.7994 -0.3558 -0.0533
18849SOL     OW57997   4.402   5.993   8.460  0.2441  0.2461 -0.0164
18849SOL    HW157998   4.325   5.960   8.506 -1.0622  0.6916 -1.7654
18849SOL    HW257999   4.423   6.075   8.504 -1.3956  1.0093 -0.5567
18850SOL     OW58000   3.663   6.237   2.403  0.5515  0.1326  0.5861
18850SOL    HW158001   3.757   6.233   2.386  0.8818 -0.3865  2.3281
18850SOL    HW258002   3.635   6.145   2.403  0.5748  0.0829  2.5650
18851SOL     OW58003   4.835   2.462   0.213 -0.0540  0.0931  0.3923
18851SOL    HW158004   4.860   2.398   0.280 -2.0134  0.7890  1.9098
18851SOL    HW258005   4.912   2.520   0.206 -0.2229  0.8376  3.1690
18852SOL     OW58006   3.714   3.362   6.177 -0.3083  0.4059  0.1564
18852SOL    HW158007   3.770   3.324   6.245 -0.2857  0.0777 -0.0448
18852SOL    HW258008   3.775   3.401   6.115 -0.3531  2.4593  1.3047
18853SOL     OW58009   4.019   8.135   5.473  0.7927 -0.5017  0.3666
18853SOL    HW158010   4.068   8.213   5.445  1.0111 -0.3417  1.1666
18853SOL    HW258011   3.974   8.105   5.394  0.0923  0.8774  0.2198
18854SOL     OW58012   9.109   6.943   6.209  0.4972  0.0591 -0.1629
18854SOL    HW158013   9.191   6.953   6.160  0.5735 -0.9846 -0.2653
18854SOL    HW258014   9.120   6.999   6.285  0.7271  1.0308 -0.8976
18855SOL     OW58015   6.280   5.173   6.683 -0.4402 -0.0988  0.0717
18855SOL    HW158016   6.233   5.171   6.766  0.4485 -0.7537  0.5760
18855SOL    HW258017   6.294   5.266   6.666 -0.7450  0.0476  0.5889
18856SOL     OW58018   8.695   7.794   8.191  0.0044 -0.1272  0.2680
18856SOL    HW158019   8.640   7.865   8.223  0.4828  2.2753 -3.5738
18856SOL    HW258020   8.640   7.746   8.130  0.8697 -0.3835 -0.3431
18857SOL     OW58021   6.941   1.708   2.712  0.0980 -0.3396  0.1072
18857SOL    HW158022   6.884   1.758   2.655 -0.7462 -0.0964  1.1349
18857SOL    HW258023   7.001   1.773   2.749 -0.4065 -0.2153  0.7318
18858SOL     OW58024   6.059   5.374   4.888 -0.4569 -0.2862  0.6910
18858SOL    HW158025   6.053   5.442   4.956 -1.2275  1.1335 -0.7303
18858SOL    HW258026   6.065   5.423   4.806  2.5018 -1.9145 -0.2001
18859SOL     OW58027   1.494   1.566   8.967 -0.0571 -0.4709  0.2628
18859SOL    HW158028   1.561   1.514   8.923  0.5454 -0.9839  1.7211
18859SOL    HW258029   1.499   1.539   9.059 -2.4725 -0.7327  0.3780
18860SOL     OW58030   4.569   2.734   1.617  0.3956 -0.4531 -0.0754
18860SOL    HW158031   4.652   2.716   1.573  1.0553  1.5029  0.2629
18860SOL    HW258032   4.569   2.829   1.630 -0.3096 -0.7637  3.0419
18861SOL     OW58033   5.940   5.656   6.280 -0.4463  0.2301 -0.1375
18861SOL    HW158034   5.944   5.566   6.248  0.0482 -0.0816  0.7579
18861SOL    HW258035   6.031   5.686   6.279 -0.5761  0.6249 -0.1794
18862SOL     OW58036   6.762   7.370   6.346  0.1958  0.3315  0.2033
18862SOL    HW158037   6.719   7.429   6.284 -1.6228 -1.2303 -0.1006
18862SOL    HW258038   6.691   7.333   6.397  1.4750 -0.1449  1.7167
18863SOL     OW58039   2.012   2.690   5.953 -0.1766 -0.3731  0.0494
18863SOL    HW158040   2.048   2.620   5.898  0.3008 -0.5704  0.5925
18863SOL    HW258041   1.927   2.710   5.914  1.0874  1.1452 -2.1768
18864SOL     OW58042   4.593   6.540   8.672  0.4824  0.3401  0.4617
18864SOL    HW158043   4.602   6.544   8.577 -0.4106 -1.9735  0.2201
18864SOL    HW258044   4.500   6.555   8.688  0.2640 -1.2034  0.7759
18865SOL     OW58045   1.398   4.443   6.003  0.1367  0.7521 -0.1998
18865SOL    HW158046   1.454   4.508   6.045  0.1741 -0.0185  0.9854
18865SOL    HW258047   1.424   4.444   5.911  1.0554  1.4517  0.0572
18866SOL     OW58048   6.058   2.866   0.419  0.1284  0.4280 -0.7174
18866SOL    HW158049   5.963   2.879   0.417  0.2554  1.2540 -2.3659
18866SOL    HW258050   6.087   2.915   0.496 -0.9943 -1.7086  1.1920
18867SOL     OW58051   6.602   5.106   5.736 -0.5866  0.6761 -0.6850
18867SOL    HW158052   6.632   5.075   5.650 -2.0495  1.1677 -1.4079
18867SOL    HW258053   6.538   5.175   5.716 -1.9018 -0.0573  0.7545
18868SOL     OW58054   5.738   0.912   9.272  0.0401  0.7209 -0.7717
18868SOL    HW158055   5.647   0.937   9.291  0.5481  2.4882 -0.4082
18868SOL    HW258056   5.779   0.905   9.359 -0.4547 -3.3956 -0.6958
18869SOL     OW58057   6.973   5.091   7.327 -0.1886 -0.3260  0.0034
18869SOL    HW158058   7.035   5.144   7.277 -0.8034  0.3501 -0.0546
18869SOL    HW258059   6.896   5.147   7.338 -0.8710 -1.2176 -0.0836
18870SOL     OW58060   4.219   3.314   4.877  0.0657 -0.1975  0.0080
18870SOL    HW158061   4.219   3.218   4.877  0.9895 -0.2318  1.5487
18870SOL    HW258062   4.227   3.338   4.784 -2.8958 -1.5289 -0.7013
18871SOL     OW58063   7.195   7.720   6.078  0.1536  0.2142 -0.3198
18871SOL    HW158064   7.135   7.745   6.007 -0.0011 -0.4524 -0.4350
18871SOL    HW258065   7.202   7.798   6.132  0.7725  0.9479 -1.4094
18872SOL     OW58066   7.037   4.890   3.252  0.2141 -0.4361 -0.4380
18872SOL    HW158067   7.079   4.946   3.318  0.5091 -0.4433 -0.6144
18872SOL    HW258068   7.097   4.816   3.242  0.6196 -0.0058 -1.3433
18873SOL     OW58069   7.209   9.201   1.584  0.8511 -0.2911 -0.2880
18873SOL    HW158070   7.148   9.198   1.658  1.5208  0.6546  0.3129
18873SOL    HW258071   7.155   9.176   1.508 -0.0663 -0.3546  0.3652
18874SOL     OW58072   6.344   3.253   1.118 -0.1368  0.0299 -0.0724
18874SOL    HW158073   6.348   3.335   1.068 -3.3973  1.7420  2.1171
18874SOL    HW258074   6.279   3.200   1.072  0.2611 -0.3530 -0.1950
18875SOL     OW58075   8.621   8.071   0.165  0.4455  0.2350 -0.3728
18875SOL    HW158076   8.636   8.103   0.076  1.6715 -0.4697 -0.4326
18875SOL    HW258077   8.706   8.077   0.208  0.2520 -1.0267  0.2350
18876SOL     OW58078   5.404   6.445   2.754  0.0786 -0.1358  0.5149
18876SOL    HW158079   5.362   6.423   2.837 -0.4848 -1.0360  0.0191
18876SOL    HW258080   5.430   6.360   2.718  0.0224  0.2114 -0.3673
18877SOL     OW58081   3.527   0.061   6.655  0.3146  0.0891 -0.3695
18877SOL    HW158082   3.444   0.012   6.651  0.4386 -0.3406  1.6307
18877SOL    HW258083   3.512   0.137   6.599 -0.1472 -1.7850 -2.9817
18878SOL     OW58084   7.536   5.540   4.930  0.1823 -0.3514 -0.7439
18878SOL    HW158085   7.457   5.493   4.903  0.3839 -1.3677  0.3514
18878SOL    HW258086   7.506   5.630   4.943 -0.8314 -0.7438 -0.2176
18879SOL     OW58087   5.800   4.846   1.889  0.2043  0.3321 -0.7578
18879SOL    HW158088   5.715   4.811   1.916  0.2469  1.4367  0.9050
18879SOL    HW258089   5.822   4.795   1.811 -1.5159 -0.6538 -0.6617
18880SOL     OW58090   3.356   7.120   2.216 -0.1161  0.1073 -0.1479
18880SOL    HW158091   3.334   7.029   2.233 -1.3098  0.6419  1.3739
18880SOL    HW258092   3.402   7.118   2.132 -1.1582 -1.7526 -0.7349
18881SOL     OW58093   9.224   8.245   5.025 -0.2253  0.7028 -0.1314
18881SOL    HW158094   9.238   8.160   5.066 -0.8685  0.1980 -0.9392
18881SOL    HW258095   9.281   8.244   4.948 -1.4258  0.3385 -1.0457
18882SOL     OW58096   7.076   3.073   2.690 -0.4016  0.6140  0.0728
18882SOL    HW158097   7.057   3.153   2.738  1.7040 -0.3205  2.6644
18882SOL    HW258098   7.007   3.012   2.717 -0.4987  0.7603  0.1585
18883SOL     OW58099   0.613   3.774   0.546 -0.4059 -0.2706 -0.0064
18883SOL    HW158100   0.540   3.728   0.505 -0.0704 -0.5740 -0.2712
18883SOL    HW258101   0.658   3.818   0.474 -0.5050  0.1663  0.1975
18884SOL     OW58102   7.112   8.901   2.698  0.1934  0.2976  0.4471
18884SOL    HW158103   7.067   8.967   2.645  0.6352  0.6922  0.5520
18884SOL    HW258104   7.192   8.882   2.649  1.3315  1.7442  1.6626
18885SOL     OW58105   2.132   8.892   2.090 -1.1175  0.3306  0.1419
18885SOL    HW158106   2.144   8.813   2.143 -0.3606  0.3457  0.0135
18885SOL    HW258107   2.220   8.930   2.083 -0.9689 -0.2478 -2.0203
18886SOL     OW58108   4.593   4.514   7.397  0.2707  0.2724 -0.0022
18886SOL    HW158109   4.618   4.488   7.309  0.1537  0.0530  0.0292
18886SOL    HW258110   4.673   4.551   7.435  0.3117  0.3975 -0.2090
18887SOL     OW58111   7.848   1.204   5.365 -0.4172 -0.1878 -0.0423
18887SOL    HW158112   7.875   1.112   5.364  1.1591  0.2027  1.4990
18887SOL    HW258113   7.837   1.225   5.458 -2.8502  0.6440 -0.4508
18888SOL     OW58114   5.033   4.120   1.339  0.3578  0.1205 -0.1483
18888SOL    HW158115   5.101   4.185   1.323 -2.2272  2.8087 -1.2822
18888SOL    HW258116   5.029   4.070   1.257  1.4743 -0.6395  0.2389
18889SOL     OW58117   4.508   1.598   3.142  0.2026  0.2299 -0.3833
18889SOL    HW158118   4.528   1.612   3.235 -0.4541 -0.6635 -0.0915
18889SOL    HW258119   4.518   1.685   3.102 -0.7343  0.9116  0.7641
18890SOL     OW58120   6.918   8.296   0.983 -0.0555 -0.3670 -0.1804
18890SOL    HW158121   6.947   8.387   0.992 -0.8562 -0.0962 -0.2463
18890SOL    HW258122   6.987   8.254   0.932  1.2958 -0.2916  1.4897
18891SOL     OW58123   2.099   5.700   6.729 -0.4922 -0.2741  0.0517
18891SOL    HW158124   2.103   5.796   6.732  0.0680 -0.0332 -3.7363
18891SOL    HW258125   2.008   5.679   6.746 -1.2012  1.1899 -1.6463
18892SOL     OW58126   7.494   7.579   5.926  0.4726  0.0324 -0.0501
18892SOL    HW158127   7.553   7.654   5.931  1.5346 -0.7081 -1.1859
18892SOL    HW258128   7.462   7.569   6.016  1.0633  1.2385  0.3201
18893SOL     OW58129   1.568   7.244   3.955  0.3663  0.4122 -0.0693
18893SOL    HW158130   1.626   7.293   3.897 -0.4897  0.7437 -0.6623
18893SOL    HW258131   1.561   7.157   3.915 -0.9416  0.9139 -0.9910
18894SOL     OW58132   0.586   6.647   4.295  0.1799  0.1904 -0.0461
18894SOL    HW158133   0.610   6.579   4.358  0.8706  0.0303 -0.4711
18894SOL    HW258134   0.556   6.720   4.349 -1.2565 -0.6797  0.4000
18895SOL     OW58135   4.907   6.683   8.327  0.9902 -1.1710 -0.2024
18895SOL    HW158136   4.870   6.748   8.388  0.7396  0.1605 -1.6849
18895SOL    HW258137   4.834   6.662   8.268  1.2594 -2.3362 -0.1393
18896SOL     OW58138   2.444   0.495   6.360  0.0771  0.2099  0.0902
18896SOL    HW158139   2.362   0.540   6.338  1.0351  1.3868 -1.3166
18896SOL    HW258140   2.497   0.503   6.280  1.8224  0.1013  1.1897
18897SOL     OW58141   4.603   7.780   2.174  0.8963  0.8225  0.1019
18897SOL    HW158142   4.688   7.764   2.214  0.6194  0.3190  0.5113
18897SOL    HW258143   4.550   7.818   2.245  0.4750  0.1539  0.1517
18898SOL     OW58144   2.508   2.526   5.442  0.4069 -0.4624 -0.6135
18898SOL    HW158145   2.513   2.595   5.508  0.3759  0.8474 -1.9153
18898SOL    HW258146   2.464   2.453   5.485  0.2199  0.4254  0.7347
18899SOL     OW58147   6.401   1.907   5.701  0.2189  0.3891  0.0407
18899SOL    HW158148   6.444   1.838   5.751 -0.5900 -0.5431 -0.5204
18899SOL    HW258149   6.340   1.861   5.643 -1.2379  1.6405  0.5022
18900SOL     OW58150   6.869   3.159   2.187 -0.5125  0.0463  0.1063
18900SOL    HW158151   6.897   3.239   2.142  0.5579  0.1747  0.9553
18900SOL    HW258152   6.868   3.092   2.118 -1.2063  0.7251 -0.5664
18901SOL     OW58153   7.683   5.307   7.729 -0.5780 -0.4996 -0.0704
18901SOL    HW158154   7.727   5.360   7.664 -0.0964 -2.1975 -1.1938
18901SOL    HW258155   7.663   5.225   7.684 -0.0267 -1.8345  1.9574
18902SOL     OW58156   7.018   3.551   6.010 -0.1147  0.3047 -0.5548
18902SOL    HW158157   6.946   3.547   5.946 -1.6908  1.9697  0.9882
18902SOL    HW258158   7.095   3.574   5.958 -1.2333  1.1014 -1.9485
18903SOL     OW58159   5.204   0.474   2.624  0.0476 -0.2665  0.4406
18903SOL    HW158160   5.124   0.523   2.604  0.5498  0.6910  0.7368
18903SOL    HW258161   5.173   0.396   2.670 -0.7017  0.2326  0.8054
18904SOL     OW58162   2.309   3.992   6.445 -0.1561 -0.4225  0.2883
18904SOL    HW158163   2.310   4.051   6.369 -0.2985  1.4537  1.6493
18904SOL    HW258164   2.401   3.970   6.460 -0.1750 -1.2324 -0.7188
18905SOL     OW58165   4.667   3.987   5.325 -0.2723  0.1266 -0.2652
18905SOL    HW158166   4.620   3.963   5.245 -0.8563  2.2367 -0.6276
18905SOL    HW258167   4.598   4.012   5.386  0.2643  1.2831 -0.1005
18906SOL     OW58168   8.444   8.169   8.764 -0.3237  0.1271  0.0278
18906SOL    HW158169   8.373   8.109   8.741  0.5575 -1.2512  0.7571
18906SOL    HW258170   8.482   8.195   8.680 -1.2724  0.3840 -0.3353
18907SOL     OW58171   7.606   0.156   2.048  0.3069 -0.2366  0.1862
18907SOL    HW158172   7.525   0.187   2.087  0.1879 -0.2150 -0.0744
18907SOL    HW258173   7.603   0.189   1.958  0.6545 -0.1409  0.2079
18908SOL     OW58174   2.554   0.758   6.164 -0.0199 -0.6007 -0.0106
18908SOL    HW158175   2.533   0.761   6.071 -1.4368 -0.0120  0.2980
18908SOL    HW258176   2.576   0.666   6.181 -2.7262 -1.3965 -0.3595
18909SOL     OW58177   0.684   6.824   0.560  0.4403 -0.1796 -0.6966
18909SOL    HW158178   0.650   6.832   0.649  0.2561  1.0008 -0.8626
18909SOL    HW258179   0.740   6.747   0.564  1.4243  0.5431  0.7808
18910SOL     OW58180   0.269   9.041   4.905 -0.5981 -0.3771  0.2349
18910SOL    HW158181   0.245   8.994   4.825  0.5041 -1.4025  0.4713
18910SOL    HW258182   0.188   9.049   4.954 -1.2160 -0.0836 -0.8058
18911SOL     OW58183   7.353   6.826   7.824  0.3100  0.0834 -0.3764
18911SOL    HW158184   7.440   6.852   7.853  1.2416 -1.5354 -1.5573
18911SOL    HW258185   7.365   6.796   7.734 -0.8837 -2.9118  0.3431
18912SOL     OW58186   7.948   0.035   1.060  0.3834  0.2990 -0.7132
18912SOL    HW158187   8.029   0.015   1.106 -0.2730 -0.6449  0.0804
18912SOL    HW258188   7.974   0.043   0.968  1.5630  1.2916 -0.3228
18913SOL     OW58189   4.303   8.372   3.038  0.3339 -0.5746  0.1030
18913SOL    HW158190   4.301   8.467   3.049  1.2123 -0.6211  0.7800
18913SOL    HW258191   4.227   8.341   3.088  0.1662 -0.2452  0.0557
18914SOL     OW58192   4.091   7.732   3.043 -0.5331 -0.3923 -0.0589
18914SOL    HW158193   4.084   7.662   2.977 -1.4119  1.2812 -1.8286
18914SOL    HW258194   4.117   7.809   2.994 -1.6606  1.0366  1.4757
18915SOL     OW58195   9.246   6.678   4.417  0.1990 -0.5736 -0.4469
18915SOL    HW158196   9.224   6.722   4.335  0.8583  1.4070  0.3646
18915SOL    HW258197   9.341   6.662   4.411  0.7145  1.6081  0.7446
18916SOL     OW58198   7.517   7.096   3.214 -0.4159  0.3579  0.6423
18916SOL    HW158199   7.522   7.081   3.120 -0.7689 -1.2515  0.8456
18916SOL    HW258200   7.516   7.008   3.252 -2.3168  0.9084  2.0288
18917SOL     OW58201   7.333   6.702   1.676  0.3452 -0.1750  0.3112
18917SOL    HW158202   7.291   6.616   1.673  1.6696 -0.9176  1.8101
18917SOL    HW258203   7.300   6.743   1.755 -2.1555  1.8021 -1.5776
18918SOL     OW58204   0.059   5.165   7.326 -0.7069  0.2495  0.3514
18918SOL    HW158205   0.129   5.175   7.261 -2.2080  0.0007 -1.3969
18918SOL    HW258206   0.057   5.249   7.372  1.1341  0.0426  0.9322
18919SOL     OW58207   3.082   6.004   4.709 -0.7477 -0.7608 -0.3099
18919SOL    HW158208   3.073   5.913   4.737 -0.4938 -0.1541  1.9096
18919SOL    HW258209   2.994   6.041   4.719 -0.0131  0.3758  3.4106
18920SOL     OW58210   3.456   0.215   6.244  0.0932 -0.1154 -0.3986
18920SOL    HW158211   3.378   0.234   6.296  0.3335  1.2905 -0.5110
18920SOL    HW258212   3.433   0.137   6.193 -0.3934 -1.1079  1.2655
18921SOL     OW58213   7.917   9.204   4.879 -0.2357 -0.3887 -0.6890
18921SOL    HW158214   7.830   9.236   4.855  0.0509 -0.2886 -1.6430
18921SOL    HW258215   7.975   9.239   4.811  0.9870  1.7321  1.3135
18922SOL     OW58216   3.280   7.535   5.273  0.5233  0.1004 -0.2195
18922SOL    HW158217   3.297   7.530   5.368  1.7602 -3.0839 -0.4512
18922SOL    HW258218   3.185   7.537   5.266  0.4064  2.4240  1.0535
18923SOL     OW58219   3.698   3.765   6.642  0.2628  0.2580  0.0914
18923SOL    HW158220   3.788   3.773   6.673  1.0199 -0.7477 -1.7263
18923SOL    HW258221   3.681   3.671   6.640 -0.1376  0.3419 -1.4051
18924SOL     OW58222   1.269   1.600   5.110 -0.1839 -0.2925 -0.0554
18924SOL    HW158223   1.330   1.549   5.057 -1.7747 -0.1782 -2.1117
18924SOL    HW258224   1.189   1.549   5.111 -0.2856 -0.2007  2.1827
18925SOL     OW58225   6.944   6.124   8.062 -0.0414  0.4470 -0.0172
18925SOL    HW158226   6.939   6.172   8.144 -0.9022  0.2666  0.0447
18925SOL    HW258227   7.028   6.078   8.066 -0.6283 -0.5562  1.3134
18926SOL     OW58228   3.730   2.259   8.770 -0.3468  0.1822  0.1964
18926SOL    HW158229   3.791   2.248   8.843  0.9033 -0.8913 -0.9493
18926SOL    HW258230   3.703   2.351   8.775  0.8979  0.5261  1.1249
18927SOL     OW58231   1.267   8.208   6.878  0.2409 -0.3751 -0.5416
18927SOL    HW158232   1.240   8.148   6.809  1.9642 -1.3010 -0.4645
18927SOL    HW258233   1.196   8.206   6.942 -0.0894 -1.7092 -0.9315
18928SOL     OW58234   3.046   0.347   4.996  0.1546  0.3263  0.4839
18928SOL    HW158235   3.003   0.390   5.070 -1.2404  1.0851 -0.7388
18928SOL    HW258236   3.106   0.413   4.962 -1.4864  1.1436 -0.9637
18929SOL     OW58237   6.297   7.718   7.271 -0.1752 -1.0526  0.1138
18929SOL    HW158238   6.384   7.757   7.269 -0.9811  0.8206 -1.0895
18929SOL    HW258239   6.240   7.783   7.229 -2.9061 -0.3353  4.2693
18930SOL     OW58240   3.584   7.252   4.527 -0.3149 -0.0745 -0.5561
18930SOL    HW158241   3.499   7.293   4.509 -0.0037  0.9600  0.2489
18930SOL    HW258242   3.566   7.192   4.600  0.0308  1.7351  1.1001
18931SOL     OW58243   0.468   9.118   4.185  0.4448  0.4355 -0.1656
18931SOL    HW158244   0.471   9.032   4.226  0.2906  0.7734  0.5647
18931SOL    HW258245   0.510   9.106   4.100  1.0856 -0.1919  0.2356
18932SOL     OW58246   6.819   6.696   6.986  0.3861  0.3331  0.3777
18932SOL    HW158247   6.835   6.604   7.006  0.3482  0.0685 -0.7350
18932SOL    HW258248   6.892   6.743   7.026  0.3391 -0.1598  1.0523
18933SOL     OW58249   0.837   3.056   3.576 -0.3355 -0.1093  0.5413
18933SOL    HW158250   0.908   3.052   3.511 -1.0212  0.7570 -0.2934
18933SOL    HW258251   0.794   2.971   3.569 -0.9709  0.2916 -0.8342
18934SOL     OW58252   6.052   1.758   2.617  0.4311  0.3571  0.0787
18934SOL    HW158253   6.011   1.764   2.703 -1.2452  0.3599 -0.6914
18934SOL    HW258254   6.051   1.665   2.595 -0.0702  0.4625 -0.3619
18935SOL     OW58255   7.028   5.871   5.750 -0.4535  0.3890  0.8469
18935SOL    HW158256   6.986   5.792   5.784 -0.0180 -0.4235 -0.4532
18935SOL    HW258257   6.958   5.935   5.742 -0.8536  0.0674  1.6883
18936SOL     OW58258   3.064   4.740   4.887 -0.2681 -0.1945  0.0533
18936SOL    HW158259   2.977   4.744   4.847 -0.7871 -1.9393  0.8932
18936SOL    HW258260   3.121   4.710   4.816 -0.3877  0.7457 -0.4454
18937SOL     OW58261   5.318   0.766   6.785 -1.2760  0.2550  0.9663
18937SOL    HW158262   5.327   0.757   6.690 -0.7823 -3.9348  1.2379
18937SOL    HW258263   5.398   0.811   6.812 -0.0766 -0.9324 -0.4088
18938SOL     OW58264   3.234   5.261   6.313  0.2412 -0.4881  0.3472
18938SOL    HW158265   3.309   5.210   6.282  0.1117 -1.2919  1.3241
18938SOL    HW258266   3.264   5.301   6.395  0.0759  0.3768  0.0004
18939SOL     OW58267   8.617   6.423   0.297  0.6094  0.2010 -0.8099
18939SOL    HW158268   8.537   6.439   0.247 -0.0754 -0.6738 -0.0340
18939SOL    HW258269   8.587   6.403   0.385  1.6562 -0.5545 -0.6004
18940SOL     OW58270   6.269   7.875   4.508 -0.4825 -0.0869 -0.1133
18940SOL    HW158271   6.346   7.821   4.492  1.2662  1.0205  3.6222
18940SOL    HW258272   6.239   7.900   4.420  1.5208 -2.9677 -1.8098
18941SOL     OW58273   8.984   2.648   3.042 -0.1958  0.0854 -0.2289
18941SOL    HW158274   8.952   2.559   3.027 -2.9182  0.2718  3.1499
18941SOL    HW258275   8.921   2.704   2.997 -0.5002  0.3308  0.4859
18942SOL     OW58276   6.025   8.595   2.539 -0.3421  0.4143 -0.2389
18942SOL    HW158277   5.939   8.635   2.551 -0.7072 -0.4325  0.0368
18942SOL    HW258278   6.072   8.656   2.482 -1.0583  0.9765 -0.2403
18943SOL     OW58279   2.010   4.227   4.514  0.2234 -0.3986  0.3413
18943SOL    HW158280   2.005   4.242   4.420  2.0220 -0.8819  0.1228
18943SOL    HW258281   2.020   4.132   4.523  0.0575 -0.3606  1.0124
18944SOL     OW58282   0.111   7.469   2.777 -0.0291 -0.2530 -0.4354
18944SOL    HW158283   0.196   7.443   2.812 -0.5718 -1.5830 -0.0422
18944SOL    HW258284   0.121   7.563   2.757  0.3832  0.5994  3.1066
18945SOL     OW58285   9.281   0.407   1.024  0.0020  0.7503  0.0563
18945SOL    HW158286   9.240   0.397   1.110  0.4091 -1.5841  0.0641
18945SOL    HW258287   9.219   0.369   0.963  1.0207 -0.5095 -0.2489
18946SOL     OW58288   8.874   0.856   0.188 -0.2152  0.0185  0.3345
18946SOL    HW158289   8.900   0.924   0.251  1.5235  0.9734 -1.3290
18946SOL    HW258290   8.953   0.837   0.139 -1.5329 -0.5946 -1.6667
18947SOL     OW58291   5.558   4.021   7.297  0.1174  0.2766  0.0423
18947SOL    HW158292   5.491   3.963   7.261  1.1480 -0.7160 -0.3435
18947SOL    HW258293   5.544   4.017   7.392 -0.4088  0.1382 -0.0372
18948SOL     OW58294   5.668   2.685   1.137 -0.0913  0.0334 -0.2700
18948SOL    HW158295   5.591   2.715   1.089 -0.9038 -0.9713  0.3305
18948SOL    HW258296   5.699   2.609   1.088  0.1083  0.0376 -0.1515
18949SOL     OW58297   4.666   0.944   5.286 -0.0040  0.4470  0.6250
18949SOL    HW158298   4.641   0.910   5.372 -0.7476 -0.2696  0.1335
18949SOL    HW258299   4.641   1.037   5.289  0.3989  0.5371  1.3367
18950SOL     OW58300   6.674   6.654   7.311  0.2877  0.2712 -0.2469
18950SOL    HW158301   6.691   6.565   7.343 -0.3614  0.5908  1.0231
18950SOL    HW258302   6.752   6.703   7.335  0.5916  0.0887 -0.8343
18951SOL     OW58303   6.878   3.292   1.022 -0.0833  0.3702 -0.1618
18951SOL    HW158304   6.902   3.213   0.974 -0.9184 -0.6994  1.1286
18951SOL    HW258305   6.783   3.301   1.010 -0.4542 -0.3665  1.8682
18952SOL     OW58306   2.683   6.508   5.858 -0.4284 -0.4225 -0.1157
18952SOL    HW158307   2.674   6.535   5.767  1.8326 -0.0664 -0.2902
18952SOL    HW258308   2.662   6.414   5.858 -1.0718 -0.2771 -0.8861
18953SOL     OW58309   5.250   5.432   8.748  0.1912 -0.2428  0.2760
18953SOL    HW158310   5.162   5.408   8.720  0.1496 -1.5094  1.3726
18953SOL    HW258311   5.251   5.528   8.744 -0.8887 -0.2487 -0.7070
18954SOL     OW58312   0.992   2.286   0.163 -0.1227  0.0809 -0.0547
18954SOL    HW158313   0.930   2.250   0.226 -0.0952 -1.8134 -1.0250
18954SOL    HW258314   1.040   2.353   0.212  0.6815 -2.0731  2.3141
18955SOL     OW58315   3.291   6.084   4.430  0.2607 -0.0865 -0.4480
18955SOL    HW158316   3.251   6.134   4.501 -0.0422  0.6416 -1.1126
18955SOL    HW258317   3.281   5.993   4.456 -0.1880  0.1594  0.2661
18956SOL     OW58318   4.572   9.126   7.024  0.7440  0.0636 -0.1610
18956SOL    HW158319   4.507   9.170   6.968 -0.6399 -0.5873  0.8804
18956SOL    HW258320   4.649   9.118   6.968  0.0547  1.1517 -1.3432
18957SOL     OW58321   7.500   9.256   6.951 -0.1370  0.5428  0.1237
18957SOL    HW158322   7.560   9.188   6.922 -1.4238 -0.4180 -0.3986
18957SOL    HW258323   7.413   9.218   6.938 -0.8610  1.8353  0.9653
18958SOL     OW58324   5.617   3.179   5.822 -0.1630 -0.2039  0.1634
18958SOL    HW158325   5.569   3.250   5.864 -0.4261 -1.8094  2.7895
18958SOL    HW258326   5.709   3.194   5.846 -0.3057 -1.0883  1.3685
18959SOL     OW58327   8.359   5.430   7.870 -0.5462 -0.1369 -0.1691
18959SOL    HW158328   8.270   5.410   7.898 -0.6222 -0.9850 -0.9561
18959SOL    HW258329   8.371   5.523   7.890 -1.1964 -0.2953  1.0120
18960SOL     OW58330   4.434   5.988   1.028 -0.2308 -0.1584 -0.5358
18960SOL    HW158331   4.430   5.959   0.936  0.9490  0.9676 -0.9666
18960SOL    HW258332   4.376   5.928   1.074  0.1951 -1.5968 -1.7973
18961SOL     OW58333   3.052   2.321   0.184  0.0361  0.2651  0.1049
18961SOL    HW158334   3.128   2.376   0.206 -0.7521  0.7026  1.9172
18961SOL    HW258335   3.041   2.264   0.259 -0.4295 -0.9910 -0.8796
18962SOL     OW58336   9.162   2.184   3.482 -0.0229  0.0954  0.5643
18962SOL    HW158337   9.146   2.214   3.393 -0.1383 -0.4642  0.3968
18962SOL    HW258338   9.075   2.179   3.522 -0.1329 -1.2330  0.1982
18963SOL     OW58339   7.043   3.498   9.103 -0.0723  0.0153  0.3080
18963SOL    HW158340   6.973   3.450   9.058  0.3662  0.0214 -0.3924
18963SOL    HW258341   7.115   3.499   9.040 -0.2385  2.0356  0.0853
18964SOL     OW58342   5.989   1.771   2.357  0.0345  0.1153  0.1522
18964SOL    HW158343   6.029   1.684   2.356 -1.6156 -0.7047  1.1316
18964SOL    HW258344   5.984   1.794   2.450  0.5778  1.3267 -0.1048
18965SOL     OW58345   0.879   6.262   9.080  0.6565  0.2695 -0.1287
18965SOL    HW158346   0.793   6.233   9.110  1.8714 -1.3098  2.1138
18965SOL    HW258347   0.899   6.338   9.135  1.5223 -0.6362  0.8515
18966SOL     OW58348   5.819   2.055   2.781 -0.2029 -0.0337  0.0920
18966SOL    HW158349   5.859   1.969   2.775 -0.2364 -0.0062 -0.7373
18966SOL    HW258350   5.753   2.056   2.711 -1.0674  0.2219  0.8951
18967SOL     OW58351   8.218   5.042   1.193 -0.8722  0.1831  0.2564
18967SOL    HW158352   8.171   5.077   1.269  0.9754  1.4853  0.8799
18967SOL    HW258353   8.241   5.120   1.142  0.3817 -0.4234 -0.1298
18968SOL     OW58354   1.461   7.407   2.739 -0.4369  0.6315 -0.6566
18968SOL    HW158355   1.388   7.388   2.680  0.2007 -0.6076 -1.0709
18968SOL    HW258356   1.512   7.326   2.742 -0.4134  0.6631  1.5673
18969SOL     OW58357   7.643   3.364   5.884 -0.1657 -0.1806 -0.0271
18969SOL    HW158358   7.725   3.314   5.877 -0.5344 -0.5570 -2.1997
18969SOL    HW258359   7.574   3.298   5.881 -0.6866  0.3537 -3.5269
18970SOL     OW58360   3.811   4.375   9.104  0.2569  0.9139 -0.2942
18970SOL    HW158361   3.889   4.328   9.072  0.1874  0.5383  0.0827
18970SOL    HW258362   3.839   4.414   9.187  0.2061  1.2521 -0.4319
18971SOL     OW58363   4.246   8.256   7.987  1.2126 -0.3031 -0.3350
18971SOL    HW158364   4.182   8.327   7.991  2.2770  0.6777 -0.1211
18971SOL    HW258365   4.206   8.191   7.930  0.4899  0.7777 -1.1039
18972SOL     OW58366   4.192   2.439   1.815 -0.6163 -0.5271 -0.1293
18972SOL    HW158367   4.214   2.402   1.730 -1.1918 -1.8160  0.2596
18972SOL    HW258368   4.109   2.397   1.839 -1.0851  0.7184  0.5319
18973SOL     OW58369   7.251   2.363   3.669 -0.1288 -0.5407  0.6644
18973SOL    HW158370   7.159   2.385   3.660 -0.3510 -1.6693 -0.0207
18973SOL    HW258371   7.289   2.437   3.716 -1.5545 -0.4728  1.7814
18974SOL     OW58372   7.524   4.050   8.707  0.2904 -0.4375  0.0710
18974SOL    HW158373   7.436   4.087   8.703 -0.9231 -3.1076  0.1324
18974SOL    HW258374   7.530   4.011   8.794  2.2283  1.1583  0.7264
18975SOL     OW58375   0.828   2.027   5.285  0.5346 -0.3100  0.4797
18975SOL    HW158376   0.791   2.063   5.366 -0.8396 -0.4043 -0.0767
18975SOL    HW258377   0.895   2.090   5.258 -0.7865  1.0620  0.3170
18976SOL     OW58378   8.948   6.145   6.022 -0.2567  0.7891 -0.1720
18976SOL    HW158379   8.903   6.086   5.961 -0.7699  1.9279 -0.9252
18976SOL    HW258380   8.882   6.210   6.046 -0.2419  0.0227  2.1086
18977SOL     OW58381   3.286   8.758   6.167 -0.0499  0.1684 -0.3698
18977SOL    HW158382   3.342   8.825   6.128  1.9747  0.3688  2.5748
18977SOL    HW258383   3.249   8.800   6.245 -0.0830 -1.6042  0.6106
18978SOL     OW58384   6.347   3.783   7.580  0.2170 -0.5660 -0.4276
18978SOL    HW158385   6.380   3.703   7.540  1.5733 -0.3021  0.0886
18978SOL    HW258386   6.426   3.832   7.604 -0.5763  0.7945 -0.4731
18979SOL     OW58387   0.362   4.983   5.863 -0.2013  0.1394  0.6779
18979SOL    HW158388   0.353   4.941   5.948 -1.2711  1.0231  1.0371
18979SOL    HW258389   0.273   4.987   5.828  0.1717  0.1131 -0.3290
18980SOL     OW58390   1.082   7.396   1.010 -0.0450 -0.0188  0.3925
18980SOL    HW158391   1.134   7.316   1.014  0.1168  0.1166  1.5555
18980SOL    HW258392   0.991   7.366   1.010  0.0174 -0.2154  0.0188
18981SOL     OW58393   3.018   2.290   5.189 -0.3530  0.9931 -0.4046
18981SOL    HW158394   2.985   2.215   5.138  1.1889  0.5808 -0.8482
18981SOL    HW258395   3.004   2.265   5.280 -2.0775  1.2356 -0.5710
18982SOL     OW58396   4.694   5.474   8.326 -0.5074  0.5561  0.0776
18982SOL    HW158397   4.771   5.488   8.272 -1.7234  0.3260 -1.8326
18982SOL    HW258398   4.715   5.514   8.410  2.0645 -0.4206 -0.0099
18983SOL     OW58399   6.691   8.814   3.258  0.1951 -0.3739  0.2061
18983SOL    HW158400   6.629   8.883   3.283  2.4694  1.8966 -0.0101
18983SOL    HW258401   6.644   8.763   3.191 -2.4439 -0.6207  2.0707
18984SOL     OW58402   1.105   0.275   3.296 -0.2173 -0.6953 -0.5114
18984SOL    HW158403   1.108   0.230   3.211  1.3077  0.9315 -1.3924
18984SOL    HW258404   1.135   0.364   3.277 -2.4018  0.5502  1.2767
18985SOL     OW58405   7.355   0.091   3.418 -0.2907  0.7767 -0.1887
18985SOL    HW158406   7.269   0.051   3.431  0.2536  0.2805  2.4619
18985SOL    HW258407   7.339   0.185   3.426 -0.4758  0.6395  1.5572
18986SOL     OW58408   6.043   0.352   8.230  0.0391  0.4626  0.3810
18986SOL    HW158409   5.992   0.432   8.216 -0.5039  0.0209 -0.2876
18986SOL    HW258410   6.002   0.311   8.306  0.1929  0.7213  0.6039
18987SOL     OW58411   3.773   8.522   7.541  0.1705 -0.7384  0.0186
18987SOL    HW158412   3.770   8.445   7.598  0.4796  1.2108  2.8564
18987SOL    HW258413   3.866   8.546   7.539 -0.1327  0.5105  0.5448
18988SOL     OW58414   4.695   1.610   8.437 -0.0451 -0.0241 -0.0955
18988SOL    HW158415   4.767   1.578   8.383 -0.2047  0.8503 -0.8506
18988SOL    HW258416   4.620   1.612   8.377 -0.1113  1.4383 -0.0102
18989SOL     OW58417   4.210   2.246   4.713  0.6130 -0.1208 -0.6325
18989SOL    HW158418   4.254   2.257   4.629  1.5975  2.6218  0.1250
18989SOL    HW258419   4.118   2.261   4.694  0.5586 -1.4151 -1.4973
18990SOL     OW58420   7.065   9.187   1.812 -0.3538 -0.4568  0.2852
18990SOL    HW158421   7.077   9.240   1.891 -0.0980 -1.3040  0.8277
18990SOL    HW258422   6.970   9.180   1.803 -0.3925  0.0385  0.2383
18991SOL     OW58423   1.994   8.561   8.249 -0.2459  0.3047 -0.4181
18991SOL    HW158424   2.042   8.603   8.320 -0.8890 -0.2601  0.3570
18991SOL    HW258425   2.014   8.615   8.172  1.5760  0.1440 -0.1172
18992SOL     OW58426   8.019   3.660   5.673 -0.3833  0.0587  0.3286
18992SOL    HW158427   8.101   3.695   5.705 -1.7696 -0.1264  4.6912
18992SOL    HW258428   8.010   3.575   5.715 -3.2253  0.5160  0.8657
18993SOL     OW58429   6.292   6.428   1.729  0.4316 -0.1383  0.8087
18993SOL    HW158430   6.325   6.431   1.639  0.9499 -1.6744  0.9111
18993SOL    HW258431   6.212   6.481   1.727 -0.7642 -1.8419 -1.0978
18994SOL     OW58432   0.745   2.022   7.746  0.1701  0.6635  0.3344
18994SOL    HW158433   0.786   1.972   7.675 -0.6233 -0.2711  0.5066
18994SOL    HW258434   0.695   1.957   7.794  0.0656  1.4349  1.2891
18995SOL     OW58435   0.319   7.480   1.041 -0.5045  0.2586 -0.4920
18995SOL    HW158436   0.389   7.444   0.987 -1.1348 -0.1606 -1.0413
18995SOL    HW258437   0.304   7.414   1.109  0.2191  0.7411  0.1637
18996SOL     OW58438   6.108   6.741   8.740 -0.0297  0.1460 -0.6094
18996SOL    HW158439   6.191   6.714   8.702 -0.3069  0.8630 -1.7561
18996SOL    HW258440   6.082   6.667   8.796  1.1633 -0.2490 -0.5582
18997SOL     OW58441   9.192   9.085   1.369 -0.3159  0.3188  0.0182
18997SOL    HW158442   9.245   9.163   1.383 -1.6841  1.5599 -1.2852
18997SOL    HW258443   9.130   9.111   1.301 -0.1379 -2.2530 -1.2398
18998SOL     OW58444   7.539   2.744   6.087 -0.4191  0.4585  0.1024
18998SOL    HW158445   7.513   2.652   6.089 -2.6058  0.9887 -0.8996
18998SOL    HW258446   7.495   2.783   6.162  0.6283  0.6756  0.6146
18999SOL     OW58447   7.868   5.214   0.889  0.1798 -0.4604 -0.2369
18999SOL    HW158448   7.791   5.255   0.852  0.3483  0.2923  0.2357
18999SOL    HW258449   7.859   5.121   0.867 -1.0089 -0.4315  0.0869
19000SOL     OW58450   6.315   6.539   6.113  0.1405  0.1029  0.2677
19000SOL    HW158451   6.268   6.622   6.123  1.2609  0.4989  2.7487
19000SOL    HW258452   6.399   6.563   6.073 -0.0775 -0.0500 -0.2962
19001SOL     OW58453   7.548   4.978   0.621 -0.1570 -0.1856  0.2668
19001SOL    HW158454   7.485   5.049   0.636 -0.9662 -0.8433  0.1027
19001SOL    HW258455   7.626   5.021   0.587  0.0245  0.8209  1.8358
19002SOL     OW58456   8.412   1.384   1.784  0.0867  0.3979  0.7920
19002SOL    HW158457   8.447   1.349   1.866 -0.4531 -0.9692  0.4678
19002SOL    HW258458   8.368   1.310   1.743 -0.7482  1.3698 -0.1457
19003SOL     OW58459   8.684   5.605   7.206  0.3801  0.6014 -0.1714
19003SOL    HW158460   8.768   5.573   7.175 -0.4732  0.4700 -2.5154
19003SOL    HW258461   8.653   5.539   7.268  1.9326  0.6380  0.6909
19004SOL     OW58462   3.724   1.695   1.677 -0.0584  0.0232  0.0474
19004SOL    HW158463   3.797   1.646   1.640  0.1496 -0.6377  1.2661
19004SOL    HW258464   3.757   1.785   1.684  0.3539 -0.1108 -0.1530
19005SOL     OW58465   5.937   3.770   7.006  0.5125  0.1011  0.1795
19005SOL    HW158466   5.980   3.757   7.090 -2.2338  1.2622  1.8763
19005SOL    HW258467   5.884   3.691   6.994  1.6800 -0.5384 -1.0392
19006SOL     OW58468   6.647   0.812   0.365 -0.0097  0.5658  0.4473
19006SOL    HW158469   6.646   0.763   0.283 -0.1063 -0.5648  1.1058
19006SOL    HW258470   6.568   0.785   0.410 -2.1673  4.2312 -0.7637
19007SOL     OW58471   8.796   6.698   4.713  0.0696  0.0061 -0.2131
19007SOL    HW158472   8.871   6.747   4.679  1.1623 -0.5541  1.2694
19007SOL    HW258473   8.826   6.608   4.717 -0.9417 -0.3418 -0.2631
19008SOL     OW58474   2.696   1.358   7.809  0.5318  0.1327 -0.5955
19008SOL    HW158475   2.740   1.431   7.852  0.7285  0.0347 -0.6284
19008SOL    HW258476   2.721   1.366   7.717  0.9222 -0.2410 -0.5223
19009SOL     OW58477   5.085   3.428   6.223  0.8822 -0.5453 -0.0783
19009SOL    HW158478   5.014   3.487   6.197 -0.2686 -1.6001  0.5588
19009SOL    HW258479   5.054   3.388   6.304  1.8188 -1.7037 -0.2715
19010SOL     OW58480   2.619   1.176   1.649 -0.1940 -0.3451  0.2818
19010SOL    HW158481   2.582   1.090   1.669  0.9517 -1.5186 -2.1987
19010SOL    HW258482   2.711   1.159   1.630 -0.0611  1.3198 -0.7854
19011SOL     OW58483   2.975   0.692   4.149  0.2590  0.0874  0.6575
19011SOL    HW158484   2.950   0.749   4.076 -0.9232 -0.1443  0.8680
19011SOL    HW258485   2.961   0.746   4.227  2.3572  0.6510  0.7316
19012SOL     OW58486   6.609   5.335   4.924  0.4742  0.3247  0.2968
19012SOL    HW158487   6.590   5.413   4.975  0.3466  0.4406  0.0755
19012SOL    HW258488   6.685   5.360   4.870  0.6334  0.1900  0.4603
19013SOL     OW58489   2.913   3.853   7.224  0.1931  0.1645 -0.3048
19013SOL    HW158490   2.919   3.944   7.194 -3.5715  0.6514 -0.0771
19013SOL    HW258491   2.877   3.806   7.149  1.2549 -0.9765 -0.1197
19014SOL     OW58492   2.513   8.713   6.970 -0.1520  0.1803 -0.5208
19014SOL    HW158493   2.418   8.722   6.976 -0.2754 -0.6192 -1.0594
19014SOL    HW258494   2.531   8.701   6.877  0.2365 -1.9216 -0.2199
19015SOL     OW58495   3.102   4.479   7.646  0.5054  0.5970 -0.1566
19015SOL    HW158496   3.185   4.510   7.609  0.9389 -0.8719 -0.4631
19015SOL    HW258497   3.090   4.392   7.609 -0.8842  0.5448  0.3660
19016SOL     OW58498   6.149   4.443   1.882  0.6387 -0.1098 -0.8325
19016SOL    HW158499   6.231   4.398   1.902  1.1313 -0.1982 -2.8751
19016SOL    HW258500   6.102   4.382   1.825 -2.0979 -1.2212  2.2968
19017SOL     OW58501   2.612   5.900   1.657  0.4197  0.2555  0.1507
19017SOL    HW158502   2.604   5.814   1.699  1.0024 -0.1364 -0.5126
19017SOL    HW258503   2.611   5.962   1.729 -1.7175 -0.1644  0.5486
19018SOL     OW58504   0.329   0.916   6.212 -0.0552 -0.3343 -0.2430
19018SOL    HW158505   0.354   0.824   6.226  0.0882 -0.3238 -0.4351
19018SOL    HW258506   0.396   0.966   6.259 -0.8307 -0.3544  0.9308
19019SOL     OW58507   3.513   5.993   3.174  0.3102  0.0780  0.1888
19019SOL    HW158508   3.483   5.934   3.105  0.4931  0.2662 -0.0519
19019SOL    HW258509   3.471   5.960   3.253 -0.6537  0.4282 -0.1613
19020SOL     OW58510   8.203   4.613   4.310 -0.4256 -0.0612  0.0861
19020SOL    HW158511   8.239   4.580   4.227  1.2830 -0.4665  0.9504
19020SOL    HW258512   8.248   4.696   4.325 -3.9065  2.3759 -1.5140
19021SOL     OW58513   3.970   4.438   8.476  0.4370 -0.1560  0.4618
19021SOL    HW158514   3.906   4.493   8.520 -0.3962 -0.0513 -0.8483
19021SOL    HW258515   3.970   4.468   8.385  1.7493 -0.7027  0.2549
19022SOL     OW58516   1.586   3.593   5.491  0.6920  0.2837  0.1498
19022SOL    HW158517   1.649   3.662   5.470  1.2421 -0.5546 -1.0560
19022SOL    HW258518   1.599   3.527   5.423 -2.9360  0.9865 -1.4851
19023SOL     OW58519   6.619   5.998   1.659  0.0069  0.0824  0.0923
19023SOL    HW158520   6.679   5.928   1.632  0.5056  0.2687  0.7077
19023SOL    HW258521   6.588   5.971   1.746 -2.0772 -0.8230 -0.8479
19024SOL     OW58522   4.454   1.320   7.481 -0.1020  0.0715 -0.1396
19024SOL    HW158523   4.366   1.341   7.513 -0.2428 -2.3829  1.3522
19024SOL    HW258524   4.459   1.362   7.395 -2.4404  0.9315  0.0691
19025SOL     OW58525   0.774   7.852   6.315  0.0242  0.5081 -0.1037
19025SOL    HW158526   0.755   7.939   6.352  0.5823 -0.3695  2.4119
19025SOL    HW258527   0.814   7.803   6.387  0.1965 -1.7009 -1.6070
19026SOL     OW58528   3.277   2.364   2.503  0.2173  0.0759 -0.2427
19026SOL    HW158529   3.207   2.425   2.527 -1.0829 -1.6352  0.5107
19026SOL    HW258530   3.277   2.365   2.407 -1.1080 -0.1674 -0.2624
19027SOL     OW58531   3.344   0.636   8.705  0.1082 -0.0283  0.2062
19027SOL    HW158532   3.421   0.691   8.719  0.0702 -0.0224  0.4060
19027SOL    HW258533   3.306   0.668   8.624  0.3674 -0.0914  0.0589
19028SOL     OW58534   8.926   5.029   4.071  0.6218  0.1447 -0.5384
19028SOL    HW158535   8.945   5.081   3.993 -0.8430  2.0926  0.3233
19028SOL    HW258536   8.992   5.055   4.135 -0.5019  1.5181  0.1096
19029SOL     OW58537   1.720   2.998   0.029 -0.3291  0.7387 -0.4065
19029SOL    HW158538   1.758   3.012   0.116  1.0557  0.1987 -0.8947
19029SOL    HW258539   1.795   2.984  -0.028 -1.2152  1.0591 -1.7031
19030SOL     OW58540   1.099   1.356   8.186 -0.3880 -0.0836  0.0770
19030SOL    HW158541   1.119   1.268   8.216  0.7536  0.0485 -0.2461
19030SOL    HW258542   1.004   1.358   8.178 -0.4259 -1.2746  0.0981
19031SOL     OW58543   3.121   3.676   9.160  0.1952  0.7056  0.0564
19031SOL    HW158544   3.039   3.725   9.153  0.4293  1.0352 -0.4020
19031SOL    HW258545   3.128   3.628   9.077  0.8326  1.2553 -0.2152
19032SOL     OW58546   4.571   5.317   2.258 -0.1875 -0.7620 -0.2528
19032SOL    HW158547   4.565   5.320   2.162  0.1995 -0.2698 -0.2654
19032SOL    HW258548   4.481   5.326   2.288 -0.1028  1.5428 -0.5278
19033SOL     OW58549   2.042   1.104   7.422 -0.3019 -0.0236 -0.0125
19033SOL    HW158550   1.970   1.091   7.359 -2.3154 -1.2399  2.3680
19033SOL    HW258551   2.116   1.057   7.384 -0.7255  1.1128 -2.4843
19034SOL     OW58552   7.462   2.024   0.842 -0.3427 -0.0135  0.3108
19034SOL    HW158553   7.442   1.933   0.862 -0.2377 -0.2357 -0.5339
19034SOL    HW258554   7.546   2.021   0.796  0.1461  0.6135  1.1287
19035SOL     OW58555   1.127   1.354   7.106  0.2265 -0.2939 -0.4222
19035SOL    HW158556   1.051   1.329   7.054  0.2026 -1.9174  0.3215
19035SOL    HW258557   1.179   1.273   7.112  2.1300  0.8157 -1.0763
19036SOL     OW58558   8.697   5.745   5.317  0.1396 -0.0928 -0.4603
19036SOL    HW158559   8.719   5.712   5.229  0.6591  1.0307 -0.7705
19036SOL    HW258560   8.609   5.781   5.307 -1.1205 -2.6925  0.2676
19037SOL     OW58561   1.757   0.476   9.018 -0.2957  0.3215  0.5764
19037SOL    HW158562   1.782   0.459   9.109  1.9876  2.2378  0.4001
19037SOL    HW258563   1.803   0.557   8.995 -0.1078 -0.5558 -2.5855
19038SOL     OW58564   4.438   5.833   7.873 -0.2790 -0.4060 -0.2941
19038SOL    HW158565   4.443   5.740   7.854 -0.6016 -0.5872  0.4414
19038SOL    HW258566   4.462   5.839   7.966 -0.2866  0.2376 -0.3314
19039SOL     OW58567   4.771   3.868   2.655 -0.4755  0.2479  0.1223
19039SOL    HW158568   4.787   3.851   2.562  1.2152 -0.2864  0.4683
19039SOL    HW258569   4.765   3.963   2.662  0.2837  0.3464 -0.4226
19040SOL     OW58570   1.358   0.394   6.636 -0.1761 -0.0531 -0.2437
19040SOL    HW158571   1.393   0.393   6.547 -1.3324 -0.7926 -0.7159
19040SOL    HW258572   1.422   0.444   6.686  0.0581  1.1754 -1.6703
19041SOL     OW58573   9.211   9.108   3.631 -0.2445  0.2616 -0.3014
19041SOL    HW158574   9.286   9.074   3.680 -0.6035 -0.2094 -0.0654
19041SOL    HW258575   9.238   9.195   3.602  0.8496 -0.3671 -1.2445
19042SOL     OW58576   0.310   5.838   5.596  0.0338 -0.0061 -0.3679
19042SOL    HW158577   0.331   5.745   5.591  1.0708  0.1415  0.6878
19042SOL    HW258578   0.370   5.872   5.662 -0.6799  1.3171 -0.3685
19043SOL     OW58579   6.432   3.013   8.856 -0.1808 -0.0581  0.5056
19043SOL    HW158580   6.515   3.013   8.905 -0.6123 -1.3048  1.2745
19043SOL    HW258581   6.365   3.027   8.923 -0.6289  0.5774 -0.0654
19044SOL     OW58582   5.902   3.871   4.360 -0.0172  0.3782  0.0959
19044SOL    HW158583   5.969   3.938   4.349  0.7323 -0.2461  0.7600
19044SOL    HW258584   5.875   3.878   4.451 -0.2092  0.0326  0.0699
19045SOL     OW58585   3.928   2.171   5.384 -0.3583 -0.3525 -0.1557
19045SOL    HW158586   3.850   2.147   5.434 -1.8959  0.9276 -1.8048
19045SOL    HW258587   3.894   2.220   5.309  2.0150 -0.1964 -1.2107
19046SOL     OW58588   0.102   8.923   2.787  0.2857 -0.0962 -0.1169
19046SOL    HW158589   0.148   8.891   2.709  2.5410 -0.9955  1.4601
19046SOL    HW258590   0.011   8.935   2.758  1.1370  0.3250 -3.0400
19047SOL     OW58591   5.970   6.455   6.918 -0.6899 -0.1880 -0.5861
19047SOL    HW158592   5.874   6.458   6.920 -0.6707  0.5456  0.9013
19047SOL    HW258593   5.991   6.389   6.852 -2.2530 -1.6996  0.3339
19048SOL     OW58594   1.847   6.732   8.708  0.0977 -0.1757  0.0242
19048SOL    HW158595   1.857   6.773   8.621  0.3325  1.5471  0.8150
19048SOL    HW258596   1.828   6.640   8.689  1.7166 -0.2030 -1.8420
19049SOL     OW58597   9.247   7.119   0.747 -0.3473 -0.1317  1.0141
19049SOL    HW158598   9.327   7.086   0.705 -0.1512  2.1357 -0.5695
19049SOL    HW258599   9.176   7.080   0.697 -0.1171  1.6973 -0.8654
19050SOL     OW58600   3.037   6.503   0.985  0.0373  0.7177  0.6123
19050SOL    HW158601   3.131   6.520   0.976  0.1397  0.2347  0.7730
19050SOL    HW258602   2.997   6.552   0.913  0.5386 -0.2041 -0.3257
19051SOL     OW58603   1.643   1.917   3.616 -0.1905  0.5977  0.0740
19051SOL    HW158604   1.666   1.929   3.524 -1.1637 -0.1394 -0.2880
19051SOL    HW258605   1.642   2.005   3.653 -1.7531  1.1247 -1.1206
19052SOL     OW58606   7.920   5.783   1.921  0.6885  0.3585  0.5749
19052SOL    HW158607   7.869   5.864   1.920 -1.1797 -0.7383 -0.7319
19052SOL    HW258608   7.937   5.764   1.829  2.2119 -0.0934  0.9247
19053SOL     OW58609   6.466   2.389   6.672 -0.5445  0.4265  0.7820
19053SOL    HW158610   6.547   2.427   6.638  0.0869  0.0340  1.8139
19053SOL    HW258611   6.400   2.413   6.607  0.4559  0.4346 -0.2652
19054SOL     OW58612   1.486   5.791   7.260  0.1005 -0.1069  0.4976
19054SOL    HW158613   1.442   5.732   7.198  0.0412  0.6548 -0.2093
19054SOL    HW258614   1.445   5.877   7.244  1.8873  0.6510 -0.2488
19055SOL     OW58615   3.964   3.562   7.208 -0.0960  0.4553 -0.0639
19055SOL    HW158616   3.897   3.547   7.142 -0.8080  0.9352  0.5397
19055SOL    HW258617   4.044   3.577   7.157 -0.6568  0.9663 -0.8296
19056SOL     OW58618   0.503   5.929   5.332  0.0277 -0.1933  0.0370
19056SOL    HW158619   0.543   5.968   5.255 -0.3801 -0.3928 -0.2805
19056SOL    HW258620   0.545   5.844   5.342 -0.8832 -0.7602 -0.7856
19057SOL     OW58621   1.133   3.120   2.217 -0.1163 -0.2699  0.3286
19057SOL    HW158622   1.125   3.212   2.242  1.6937 -0.5816  2.3082
19057SOL    HW258623   1.214   3.115   2.167  2.0922 -1.3138  3.6959
19058SOL     OW58624   2.604   8.551   4.384  0.6507 -0.4002  0.0270
19058SOL    HW158625   2.656   8.553   4.464 -0.5703 -1.9737  0.9048
19058SOL    HW258626   2.562   8.638   4.381  0.5563 -0.3934  1.2019
19059SOL     OW58627   8.358   6.182   8.363  0.0322  0.1468 -0.5141
19059SOL    HW158628   8.442   6.203   8.322  0.7726 -0.0725  0.8428
19059SOL    HW258629   8.324   6.109   8.311  0.4146  0.5849 -1.3977
19060SOL     OW58630   8.129   4.391   0.121 -0.3088  0.1328 -0.5112
19060SOL    HW158631   8.220   4.419   0.109  0.3838 -0.8287  1.9773
19060SOL    HW258632   8.081   4.473   0.138  0.6217  0.4126  0.9176
19061SOL     OW58633   8.328   6.625   3.865 -0.1901 -0.1312 -0.4017
19061SOL    HW158634   8.369   6.711   3.864  0.0801 -0.2415 -2.4749
19061SOL    HW258635   8.390   6.569   3.913 -1.5291  1.2541  3.3182
19062SOL     OW58636   6.753   2.782   6.252  0.3140  0.0423 -0.0645
19062SOL    HW158637   6.763   2.840   6.177  1.0542  1.6741  1.2258
19062SOL    HW258638   6.813   2.817   6.318  0.0815 -1.6438  1.1233
19063SOL     OW58639   8.149   2.188   3.423  0.2957  0.6015  0.3621
19063SOL    HW158640   8.231   2.209   3.469  0.4340 -0.9467  0.8929
19063SOL    HW258641   8.161   2.097   3.394 -1.1845  0.3916  0.3457
19064SOL     OW58642   4.890   8.779   6.769 -0.6177  0.0867  0.3985
19064SOL    HW158643   4.947   8.732   6.831  1.3123  0.9141 -0.6402
19064SOL    HW258644   4.805   8.783   6.813  0.4197 -0.1672  2.5816
19065SOL     OW58645   5.637   4.020   1.425 -0.2816 -0.1440  0.5028
19065SOL    HW158646   5.635   4.110   1.390  0.7099 -0.0710  0.6203
19065SOL    HW258647   5.553   3.983   1.399 -0.3582  0.5504 -0.2790
19066SOL     OW58648   3.002   5.436   0.882 -0.2219  0.4478  0.8979
19066SOL    HW158649   2.964   5.358   0.923  1.7942  0.0882  2.2683
19066SOL    HW258650   2.958   5.509   0.925 -1.6330  0.0854  0.1095
19067SOL     OW58651   0.645   1.763   7.575  0.2562  0.2870 -0.9267
19067SOL    HW158652   0.595   1.798   7.501 -0.2172 -0.3004 -0.9001
19067SOL    HW258653   0.586   1.697   7.614  0.9420 -0.2121 -0.7163
19068SOL     OW58654   1.654   0.997   3.928  0.2810  0.0292 -0.2198
19068SOL    HW158655   1.576   1.052   3.916  0.1129 -0.3261 -0.7860
19068SOL    HW258656   1.718   1.055   3.969  0.0214  0.5788 -0.5783
19069SOL     OW58657   0.190   7.373   7.077 -0.1154 -0.7189  0.5347
19069SOL    HW158658   0.246   7.448   7.095 -1.1558  0.1448  0.2644
19069SOL    HW258659   0.230   7.301   7.126  0.0177  0.3723  2.1052
19070SOL     OW58660   0.348   7.666   9.080  0.3569  0.0166  0.0293
19070SOL    HW158661   0.387   7.657   8.993 -0.0149  2.0065 -0.3986
19070SOL    HW258662   0.276   7.603   9.082  1.2602 -1.0634 -0.5417
19071SOL     OW58663   1.712   3.643   1.739  0.3698 -0.6472  0.1054
19071SOL    HW158664   1.776   3.662   1.671 -0.0352  0.2725 -0.0392
19071SOL    HW258665   1.763   3.632   1.819  0.7423 -0.4015 -0.0998
19072SOL     OW58666   0.342   1.017   7.866  0.0972  0.0168 -0.1370
19072SOL    HW158667   0.299   1.055   7.942  0.5986  2.0655 -0.8194
19072SOL    HW258668   0.339   1.085   7.799  1.3685 -1.0147 -1.3299
19073SOL     OW58669   8.326   4.568   2.609 -0.0867 -0.5541  0.4699
19073SOL    HW158670   8.339   4.663   2.605  0.4286 -0.5845  1.1950
19073SOL    HW258671   8.378   4.533   2.537 -0.3352 -0.2868  0.1557
19074SOL     OW58672   1.494   3.135   4.257  0.2801  0.2183  0.4300
19074SOL    HW158673   1.544   3.213   4.280  0.7058  0.4720 -1.2087
19074SOL    HW258674   1.405   3.155   4.286  0.2570  1.5908 -0.4765
19075SOL     OW58675   3.211   0.548   0.644 -1.1172  0.0145  0.3767
19075SOL    HW158676   3.157   0.496   0.703 -1.6886 -0.0389 -0.1885
19075SOL    HW258677   3.160   0.628   0.629 -0.3558  0.6599  1.0501
19076SOL     OW58678   7.203   4.180   1.313  0.3340  0.4669  0.5562
19076SOL    HW158679   7.149   4.231   1.252 -0.0478 -1.4582 -0.8145
19076SOL    HW258680   7.265   4.134   1.257  0.4015 -0.8642  1.6813
19077SOL     OW58681   1.910   5.373   7.164 -0.0020  0.5394  0.2260
19077SOL    HW158682   1.883   5.323   7.241  1.1662  1.1577  1.0682
19077SOL    HW258683   1.976   5.318   7.121  0.3108  0.7700  0.4085
19078SOL     OW58684   6.552   7.822   0.852  0.2237  0.1334 -0.0868
19078SOL    HW158685   6.586   7.766   0.922  1.4809  1.1464  0.1434
19078SOL    HW258686   6.624   7.828   0.789 -0.2308  0.7361 -0.5601
19079SOL     OW58687   5.757   3.445   0.747  0.4933  0.6321  0.7348
19079SOL    HW158688   5.810   3.524   0.757  0.3647  0.6125  1.6284
19079SOL    HW258689   5.700   3.444   0.824  0.5654 -0.3887  0.7864
19080SOL     OW58690   8.794   1.150   8.504 -0.0704  0.5004 -0.0952
19080SOL    HW158691   8.731   1.121   8.439  2.2602 -2.2736 -1.3401
19080SOL    HW258692   8.848   1.214   8.458 -0.9437  1.7058  0.4954
19081SOL     OW58693   1.401   2.687   1.270 -0.5983 -0.2033  0.5673
19081SOL    HW158694   1.324   2.722   1.224  0.3608  0.1470 -0.8448
19081SOL    HW258695   1.375   2.598   1.295 -1.7330  0.1788  0.8246
19082SOL     OW58696   7.955   2.319   5.338 -0.4511  0.4793  0.1372
19082SOL    HW158697   7.899   2.244   5.358  1.0492 -0.4736  0.8799
19082SOL    HW258698   7.918   2.390   5.391 -0.7465 -0.2354  0.9190
19083SOL     OW58699   0.952   1.436   2.626 -0.0294 -0.0464 -0.4994
19083SOL    HW158700   0.910   1.521   2.612  1.0288  0.3687 -1.2359
19083SOL    HW258701   1.009   1.424   2.550  2.7266  0.3446  1.3811
19084SOL     OW58702   2.916   8.873   3.966  0.3141  0.2565  0.0834
19084SOL    HW158703   2.939   8.821   3.889 -0.0147  2.2130 -1.3988
19084SOL    HW258704   2.821   8.876   3.966  0.3319  1.0918 -0.0354
19085SOL     OW58705   1.747   4.533   1.174  0.0352  0.0792 -0.0922
19085SOL    HW158706   1.802   4.455   1.165 -0.9830 -0.5160 -1.7664
19085SOL    HW258707   1.754   4.558   1.266  0.5742 -1.8474  0.4252
19086SOL     OW58708   9.103   1.851   4.943  0.3255 -0.2693  0.4684
19086SOL    HW158709   9.105   1.782   4.876 -1.2382  0.0928  0.0138
19086SOL    HW258710   9.011   1.877   4.948  0.8560  1.6762  0.7551
19087SOL     OW58711   5.120   7.069   0.647  0.1205 -0.3028 -0.1113
19087SOL    HW158712   5.162   7.145   0.687 -0.3595 -0.3551  0.4921
19087SOL    HW258713   5.076   7.024   0.719  0.6470 -1.3279 -0.4056
19088SOL     OW58714   2.230   1.996   5.562 -0.3734 -0.0764  0.7536
19088SOL    HW158715   2.303   2.000   5.624 -0.6578 -1.4782  1.2087
19088SOL    HW258716   2.164   1.942   5.605 -0.9212 -0.3943 -0.4339
19089SOL     OW58717   2.330   8.690   9.108 -0.3939  0.1041 -0.5863
19089SOL    HW158718   2.418   8.672   9.140 -1.3917  0.3324  2.5934
19089SOL    HW258719   2.292   8.604   9.092 -0.2288 -0.0524 -0.1304
19090SOL     OW58720   4.008   7.729   5.081  0.1988 -1.1489  0.1121
19090SOL    HW158721   4.049   7.795   5.137 -0.6933 -1.4741  1.1804
19090SOL    HW258722   4.049   7.742   4.995 -1.2587  2.1165 -0.2760
19091SOL     OW58723   6.514   4.445   2.379 -0.0176 -0.0601  0.0923
19091SOL    HW158724   6.441   4.417   2.324  0.4988 -0.7321 -0.2686
19091SOL    HW258725   6.501   4.398   2.462  0.1954 -0.4734 -0.1017
19092SOL     OW58726   4.280   3.033   9.220  0.5824  0.1624 -0.2742
19092SOL    HW158727   4.271   3.057   9.312  1.6303  1.5816 -0.5091
19092SOL    HW258728   4.202   3.069   9.178  0.2155 -0.2876  0.0233
19093SOL     OW58729   7.029   7.979   0.431 -0.4355  0.2704 -0.2777
19093SOL    HW158730   7.113   8.023   0.445 -0.8622  0.9668  0.1175
19093SOL    HW258731   6.979   7.997   0.510 -1.1354  0.2589 -0.7104
19094SOL     OW58732   2.732   0.515   4.160 -0.1580 -0.1044  0.5133
19094SOL    HW158733   2.814   0.564   4.171  0.3434 -0.9027  0.4010
19094SOL    HW258734   2.758   0.433   4.120 -1.0585 -0.2618  0.2202
19095SOL     OW58735   6.959   1.348   2.636  0.2161 -0.0871 -0.2067
19095SOL    HW158736   7.051   1.371   2.647  0.1280  0.3347 -0.3380
19095SOL    HW258737   6.920   1.425   2.595 -0.2701 -0.1293  0.1716
19096SOL     OW58738   8.892   2.684   6.690 -0.0102  0.4805 -0.1613
19096SOL    HW158739   8.983   2.687   6.717  0.5926  0.7645 -2.0818
19096SOL    HW258740   8.890   2.729   6.606 -2.0445  1.0646  0.1442
19097SOL     OW58741   1.753   3.124   0.994  0.4888  0.3570 -0.3073
19097SOL    HW158742   1.747   3.080   0.909 -1.7170  0.7300 -0.3968
19097SOL    HW258743   1.694   3.075   1.051 -0.7476  2.1732  0.0397
19098SOL     OW58744   2.691   6.825   2.890  0.0092  0.2362  0.0631
19098SOL    HW158745   2.704   6.731   2.899  1.6673  0.3802 -0.4909
19098SOL    HW258746   2.638   6.850   2.966 -2.1048 -1.4048 -0.7495
19099SOL     OW58747   5.550   0.402   7.562 -0.4730 -0.1101 -0.0383
19099SOL    HW158748   5.502   0.367   7.487 -1.0088  0.2595  0.1226
19099SOL    HW258749   5.481   0.435   7.620 -0.0963 -0.8813  0.8628
19100SOL     OW58750   2.935   7.511   2.973  0.0367  0.4399  0.5756
19100SOL    HW158751   2.840   7.514   2.988 -0.0358 -2.1046  1.2143
19100SOL    HW258752   2.964   7.602   2.979 -2.2884  1.2300  0.8058
19101SOL     OW58753   0.362   6.842   5.761  0.3982  0.0006  0.3564
19101SOL    HW158754   0.305   6.770   5.733  0.6985  0.4261 -1.4644
19101SOL    HW258755   0.314   6.885   5.832 -0.6388 -0.8477  0.1858
19102SOL     OW58756   1.489   7.384   6.509  0.7253 -0.5193  0.3304
19102SOL    HW158757   1.584   7.372   6.503  1.7169  2.9934  4.0899
19102SOL    HW258758   1.473   7.465   6.461  0.0894  0.0659  1.4880
19103SOL     OW58759   1.211   3.937   7.905  0.1306 -0.4890  0.1002
19103SOL    HW158760   1.254   3.871   7.850  1.9275 -0.3843  1.2938
19103SOL    HW258761   1.250   3.925   7.992 -1.8541  0.0473  1.1278
19104SOL     OW58762   3.344   5.044   1.767 -0.6445  0.3233  0.2402
19104SOL    HW158763   3.251   5.023   1.777 -1.0400  0.8039 -2.0386
19104SOL    HW258764   3.364   5.027   1.675  0.9492  2.3891  0.1119
19105SOL     OW58765   5.844   7.968   8.262 -0.4807  0.0559 -0.5685
19105SOL    HW158766   5.929   7.960   8.306 -1.0256  1.2230  0.7712
19105SOL    HW258767   5.854   7.917   8.182  1.8308  0.9860 -0.9604
19106SOL     OW58768   6.403   6.459   6.795 -0.0078  0.0041 -0.7129
19106SOL    HW158769   6.465   6.494   6.731 -0.1379  0.7701 -0.4324
19106SOL    HW258770   6.317   6.487   6.762 -0.0202  1.0620  0.1963
19107SOL     OW58771   8.830   7.360   0.199  0.3035 -0.1118 -0.1769
19107SOL    HW158772   8.822   7.288   0.136 -0.4477 -0.0380 -0.1740
19107SOL    HW258773   8.774   7.429   0.163 -0.6414 -0.2936  0.8880
19108SOL     OW58774   3.046   6.050   3.212  0.0666  0.0841 -0.0108
19108SOL    HW158775   3.077   5.986   3.147 -0.7193  0.8448 -1.1687
19108SOL    HW258776   3.114   6.117   3.213 -0.2300  0.4010 -0.5529
19109SOL     OW58777   2.882   1.112   1.086 -0.1774  0.2497 -0.3564
19109SOL    HW158778   2.955   1.172   1.075 -1.8000  2.3283 -0.3667
19109SOL    HW258779   2.882   1.091   1.180 -0.5347  1.6243 -0.0180
19110SOL     OW58780   5.074   6.127   4.364 -0.1383  0.2140 -0.2695
19110SOL    HW158781   5.106   6.037   4.376 -2.4953 -0.6665 -0.0249
19110SOL    HW258782   5.016   6.122   4.287  1.2950  2.0329 -1.5705
19111SOL     OW58783   1.181   4.239   3.772  0.4015  0.0732 -0.2734
19111SOL    HW158784   1.215   4.328   3.781 -1.5300  0.8666 -0.2989
19111SOL    HW258785   1.254   4.183   3.799  1.4144  1.6709  0.5009
19112SOL     OW58786   2.224   8.838   5.594  0.2021 -0.1045  0.0809
19112SOL    HW158787   2.138   8.876   5.608  0.7313  1.5182 -0.8803
19112SOL    HW258788   2.224   8.810   5.502  0.8653  0.3731 -0.0730
19113SOL     OW58789   8.093   9.020   7.557 -0.0731  0.2510  0.1402
19113SOL    HW158790   8.011   9.039   7.604  1.0686  1.2379  1.8585
19113SOL    HW258791   8.161   9.026   7.625  1.5072  0.1904 -1.3778
19114SOL     OW58792   4.566   8.261   3.837  0.4027  0.8501 -0.7307
19114SOL    HW158793   4.501   8.298   3.896  2.4969  1.6830  1.2095
19114SOL    HW258794   4.647   8.257   3.889  2.0464  0.3200 -3.1325
19115SOL     OW58795   2.332   9.119   7.126  0.2009  0.3723 -0.2198
19115SOL    HW158796   2.256   9.065   7.101  0.3847 -0.1560  0.3385
19115SOL    HW258797   2.293   9.194   7.171 -0.0156  0.2659 -0.2230
19116SOL     OW58798   3.452   1.743   6.169  0.0693  0.3531 -0.4166
19116SOL    HW158799   3.461   1.705   6.082  0.7718  0.6624 -0.4869
19116SOL    HW258800   3.426   1.833   6.153  0.4630  0.4879 -0.3245
19117SOL     OW58801   5.144   8.582   5.647 -0.2196  0.3637 -0.0993
19117SOL    HW158802   5.123   8.572   5.739 -0.3950 -0.7522 -0.2479
19117SOL    HW258803   5.080   8.645   5.614  1.4439  2.8459  1.0667
19118SOL     OW58804   2.785   1.833   3.336 -0.3675 -0.0315  0.0767
19118SOL    HW158805   2.690   1.828   3.332 -0.6426  3.1560  0.5473
19118SOL    HW258806   2.812   1.855   3.247 -0.1673  0.1236  0.1748
19119SOL     OW58807   5.567   1.764   3.520  0.5541  0.9258 -0.6078
19119SOL    HW158808   5.498   1.704   3.492 -0.3095  0.7318  1.7052
19119SOL    HW258809   5.648   1.714   3.509  0.0041 -0.0814 -0.2241
19120SOL     OW58810   6.499   2.443   9.049  0.8126  0.4979  0.1318
19120SOL    HW158811   6.459   2.386   9.116  0.7780 -1.4564 -1.4533
19120SOL    HW258812   6.433   2.510   9.032 -0.4158 -0.6984  0.0013
19121SOL     OW58813   5.378   7.794   2.138  0.4222 -0.7765  0.0376
19121SOL    HW158814   5.409   7.884   2.123 -0.1360 -0.6523 -0.3957
19121SOL    HW258815   5.411   7.772   2.225 -2.0359  1.0231  1.5701
19122SOL     OW58816   8.871   1.855   7.025  0.6245  0.2170  0.3307
19122SOL    HW158817   8.810   1.827   7.092  0.0208  0.3039 -0.1732
19122SOL    HW258818   8.835   1.821   6.943  1.4732 -0.0896  0.0712
19123SOL     OW58819   8.926   5.726   6.227  0.5770 -0.5220 -0.5023
19123SOL    HW158820   8.973   5.679   6.296 -0.0958  0.4991  0.6778
19123SOL    HW258821   8.994   5.770   6.177  1.0114 -0.6409 -0.0229
19124SOL     OW58822   4.660   2.688   3.519 -0.0833  0.4459 -0.5296
19124SOL    HW158823   4.653   2.662   3.427 -0.9010 -0.8521 -0.1249
19124SOL    HW258824   4.676   2.607   3.566  1.8197  1.2630  0.3665
19125SOL     OW58825   6.025   7.775   6.433 -0.5330 -0.3907  0.0001
19125SOL    HW158826   6.065   7.830   6.365  1.3741 -0.5432  0.9328
19125SOL    HW258827   5.982   7.838   6.492  1.4809  0.1597  0.9624
19126SOL     OW58828   6.513   3.901   3.995 -0.5544  0.1912  0.0918
19126SOL    HW158829   6.608   3.913   4.001 -0.5105 -0.4145  0.9106
19126SOL    HW258830   6.498   3.815   4.036 -1.3479 -0.1837 -0.9550
19127SOL     OW58831   0.561   9.074   2.027  0.1539 -0.6431 -0.2635
19127SOL    HW158832   0.607   9.001   2.069  0.0240 -0.0265  1.0095
19127SOL    HW258833   0.597   9.152   2.069  0.3230  0.0487 -1.6298
19128SOL     OW58834   6.773   2.614   7.339 -0.5568 -0.6611 -0.3299
19128SOL    HW158835   6.752   2.686   7.398  1.2126 -0.6535  0.3638
19128SOL    HW258836   6.769   2.536   7.395 -0.9559 -0.9190 -0.7123
19129SOL     OW58837   0.137   7.061   5.369  0.1221 -0.2351 -0.2441
19129SOL    HW158838   0.139   7.092   5.459 -0.3664  0.9321 -0.6192
19129SOL    HW258839   0.214   7.006   5.361  0.0776 -0.5020  0.9333
19130SOL     OW58840   6.727   7.871   2.874  0.4459 -0.3781  0.1941
19130SOL    HW158841   6.751   7.950   2.923 -0.9228 -0.6306  1.3610
19130SOL    HW258842   6.767   7.799   2.924 -0.9519 -0.6369  0.9929
19131SOL     OW58843   1.501   7.416   9.147  0.0717 -0.3860 -0.5863
19131SOL    HW158844   1.517   7.491   9.204 -0.4199 -0.1187 -0.7927
19131SOL    HW258845   1.556   7.346   9.183  1.7336  0.4906 -1.2881
19132SOL     OW58846   1.729   8.446   1.472 -0.1792 -0.0332  0.1988
19132SOL    HW158847   1.792   8.471   1.540 -0.7204 -0.5353  0.9036
19132SOL    HW258848   1.773   8.377   1.423 -0.3209 -0.6688  0.9469
19133SOL     OW58849   0.879   4.468   0.592  0.3526 -0.0910 -0.3225
19133SOL    HW158850   0.828   4.422   0.525 -0.3402  0.8898 -0.4971
19133SOL    HW258851   0.844   4.435   0.675  0.9598 -1.0354 -0.4243
19134SOL     OW58852   6.672   8.846   1.681  0.0465 -0.0475 -0.3708
19134SOL    HW158853   6.712   8.923   1.642  1.0037 -0.2407  0.2029
19134SOL    HW258854   6.727   8.826   1.757  0.5734 -2.0228 -1.2024
19135SOL     OW58855   0.348   3.699   4.544  0.1972  0.4013 -0.5829
19135SOL    HW158856   0.365   3.763   4.475 -0.9601  1.8177  0.3937
19135SOL    HW258857   0.420   3.710   4.606 -0.1555  0.9887 -0.2687
19136SOL     OW58858   4.751   6.133   1.901 -0.0455  0.1472  0.5008
19136SOL    HW158859   4.795   6.189   1.965  0.4815 -0.2789  0.5174
19136SOL    HW258860   4.819   6.109   1.839 -0.9565  2.1456 -1.3722
19137SOL     OW58861   3.867   0.064   8.226  0.3748 -0.1903 -0.0630
19137SOL    HW158862   3.896  -0.007   8.169  2.4252 -0.1388  0.8186
19137SOL    HW258863   3.816   0.122   8.169 -0.4112 -1.7770 -1.0412
19138SOL     OW58864   6.355   6.775   7.897  0.2105 -0.0022 -0.0840
19138SOL    HW158865   6.336   6.723   7.819 -0.4114  0.4114 -0.2212
19138SOL    HW258866   6.270   6.787   7.939  0.0379  2.2075 -0.8981
19139SOL     OW58867   6.279   8.417   7.453  0.5225 -0.4332 -0.0536
19139SOL    HW158868   6.264   8.330   7.415 -0.3243 -1.0846  1.6909
19139SOL    HW258869   6.316   8.468   7.380  2.7253 -2.7081 -0.7057
19140SOL     OW58870   4.510   3.165   4.935 -0.2407  0.4142 -0.0546
19140SOL    HW158871   4.470   3.120   5.009  0.6575 -0.2319  0.0506
19140SOL    HW258872   4.480   3.256   4.942  0.7782  0.6549  1.8038
19141SOL     OW58873   7.567   0.187   2.415  0.0281 -0.9357 -0.0793
19141SOL    HW158874   7.557   0.266   2.468 -0.2323 -1.9085  1.3801
19141SOL    HW258875   7.491   0.187   2.356 -0.6028 -0.6846  0.7178
19142SOL     OW58876   4.382   4.309   7.383 -0.5185  0.4646 -0.1215
19142SOL    HW158877   4.452   4.259   7.424 -1.2487 -1.1630 -0.7586
19142SOL    HW258878   4.422   4.394   7.363  1.3658 -0.4864 -0.6974
19143SOL     OW58879   2.261   5.623   4.687  0.1189  0.0826  0.4385
19143SOL    HW158880   2.272   5.562   4.760  2.4176  1.4231  1.3160
19143SOL    HW258881   2.268   5.710   4.727  2.7556  0.8751 -1.4488
19144SOL     OW58882   8.920   5.422   3.262  0.1065  0.1833  0.4024
19144SOL    HW158883   8.858   5.494   3.273 -0.3384 -0.2468  0.7559
19144SOL    HW258884   8.934   5.416   3.167  1.2322  1.6338  0.4483
19145SOL     OW58885   0.167   7.745   7.244  0.0083 -0.2690 -0.3647
19145SOL    HW158886   0.125   7.743   7.158 -0.8039  2.6531 -0.1409
19145SOL    HW258887   0.095   7.739   7.306  0.5152 -1.4238  0.1510
19146SOL     OW58888   2.749   3.289   3.393 -0.6541  0.2688 -0.3127
19146SOL    HW158889   2.716   3.206   3.358 -0.6315  0.3691 -0.5778
19146SOL    HW258890   2.672   3.345   3.396 -0.7269  0.1469  0.1454
19147SOL     OW58891   5.401   2.870   4.295 -0.0272 -0.5227 -0.2875
19147SOL    HW158892   5.382   2.950   4.344  2.1730 -0.2516  0.1976
19147SOL    HW258893   5.368   2.800   4.351 -0.4953 -0.0591  0.0349
19148SOL     OW58894   7.410   4.562   0.371 -0.4735  0.2139 -0.7648
19148SOL    HW158895   7.398   4.578   0.277  1.6108  1.7770 -0.8441
19148SOL    HW258896   7.424   4.649   0.408  0.2831 -0.5142  0.7466
19149SOL     OW58897   0.478   2.549   9.007 -0.4905 -0.2027 -0.4771
19149SOL    HW158898   0.546   2.489   8.977  0.1814  0.2249  0.1604
19149SOL    HW258899   0.495   2.631   8.961  0.8477  0.6132  1.3333
19150SOL     OW58900   5.362   5.868   6.132  0.0420 -0.1066 -0.3823
19150SOL    HW158901   5.366   5.846   6.039  0.4790  0.1460 -0.4282
19150SOL    HW258902   5.446   5.911   6.149  0.2087 -0.6717  0.2587
19151SOL     OW58903   2.191   2.199   0.567 -0.3119  0.3672 -0.1387
19151SOL    HW158904   2.223   2.241   0.647  1.1734 -0.3884 -0.2922
19151SOL    HW258905   2.100   2.178   0.586 -0.5331  1.8962  0.6394
19152SOL     OW58906   3.938   4.845   4.404 -0.2088 -0.1618 -0.2124
19152SOL    HW158907   3.846   4.818   4.405 -0.5207  0.8546  0.5835
19152SOL    HW258908   3.940   4.921   4.345 -0.1619  0.6634  0.8116
19153SOL     OW58909   0.048   5.843   1.524 -0.5911  0.0578  0.0390
19153SOL    HW158910   0.109   5.889   1.466 -0.9547 -0.1699 -0.5321
19153SOL    HW258911  -0.016   5.804   1.465 -0.2286 -1.2829  0.4932
19154SOL     OW58912   3.240   0.281   6.353  0.1732 -0.2499 -0.4169
19154SOL    HW158913   3.173   0.225   6.392  1.1004  0.3469  2.2566
19154SOL    HW258914   3.235   0.362   6.402  0.6870  1.0565 -2.4014
19155SOL     OW58915   1.044   3.959   3.151 -0.4537 -0.0808 -0.0582
19155SOL    HW158916   1.035   4.011   3.072  0.9897  0.0256 -0.1856
19155SOL    HW258917   1.002   4.011   3.219 -0.0226  0.7372 -0.4049
19156SOL     OW58918   4.137   8.043   4.769 -0.2049 -0.3149 -0.8804
19156SOL    HW158919   4.223   8.045   4.728 -0.2424 -0.2216 -0.9539
19156SOL    HW258920   4.145   8.100   4.845 -0.7834  1.3725 -2.0180
19157SOL     OW58921   7.125   8.612   5.686  0.0639 -0.5368  0.2306
19157SOL    HW158922   7.059   8.681   5.693  0.6103  0.2545 -1.6821
19157SOL    HW258923   7.113   8.559   5.765 -0.9631  1.2140  1.3187
19158SOL     OW58924   1.161   7.353   2.642 -0.2123  0.0473 -0.0390
19158SOL    HW158925   1.100   7.413   2.684 -0.8145 -0.9976  0.6276
19158SOL    HW258926   1.150   7.270   2.689 -0.1707 -0.8899 -1.5923
19159SOL     OW58927   9.010   3.968   0.235  0.2054  0.0188 -0.0195
19159SOL    HW158928   8.962   3.973   0.153 -1.0284  0.5139  0.7056
19159SOL    HW258929   8.943   3.968   0.303  0.9750 -3.6223  0.9670
19160SOL     OW58930   2.987   5.696   8.967 -0.1326  0.1218 -0.4848
19160SOL    HW158931   2.953   5.756   9.034 -0.0219  0.4740 -0.7437
19160SOL    HW258932   2.978   5.745   8.885 -1.5521 -0.8153 -0.9206
19161SOL     OW58933   3.982   7.570   2.421  0.3149 -0.4068 -0.6800
19161SOL    HW158934   3.982   7.551   2.327 -1.1502 -1.0788 -0.5587
19161SOL    HW258935   3.900   7.617   2.436 -0.7396 -2.5130  0.6661
19162SOL     OW58936   4.320   6.059   3.575 -0.1580 -0.3541  0.3016
19162SOL    HW158937   4.330   5.987   3.512  0.9087  0.5510 -0.6207
19162SOL    HW258938   4.382   6.039   3.645 -0.5315 -0.7925  0.5096
19163SOL     OW58939   8.969   1.526   7.025 -0.2318 -0.1291  0.0232
19163SOL    HW158940   9.049   1.527   6.974  0.7563 -0.8255  1.4753
19163SOL    HW258941   8.990   1.574   7.105 -1.4756  0.2482  0.1569
19164SOL     OW58942   4.157   2.001   2.410  0.2868 -0.4663  0.1021
19164SOL    HW158943   4.131   2.077   2.463 -3.1673 -1.0671 -0.5145
19164SOL    HW258944   4.107   1.928   2.447 -0.1747 -1.4444 -2.2923
19165SOL     OW58945   1.542   5.070   2.291 -0.3450  0.6508  0.9241
19165SOL    HW158946   1.602   5.130   2.247 -0.3756 -0.4823 -0.7313
19165SOL    HW258947   1.462   5.121   2.302 -0.5863  0.7771 -1.0294
19166SOL     OW58948   4.610   4.623   1.103  0.2094  0.5291 -0.2598
19166SOL    HW158949   4.600   4.673   1.185 -2.8302 -0.6362  0.2227
19166SOL    HW258950   4.564   4.676   1.038  1.0166  0.5597 -0.8108
19167SOL     OW58951   3.314   8.320   0.976 -0.4262 -0.3808  0.2587
19167SOL    HW158952   3.281   8.351   1.060 -2.5152 -0.0673 -0.6231
19167SOL    HW258953   3.243   8.265   0.941  0.0131  0.1996 -1.6808
19168SOL     OW58954   5.669   6.864   4.037  0.2470  0.3081 -0.4224
19168SOL    HW158955   5.702   6.954   4.042  0.3687  0.2389  0.1904
19168SOL    HW258956   5.691   6.827   4.123  0.5861 -0.4388 -0.8254
19169SOL     OW58957   2.939   8.492   8.113 -0.1230  0.3890  0.1107
19169SOL    HW158958   2.961   8.399   8.103 -3.8739 -0.6856  0.3307
19169SOL    HW258959   3.002   8.537   8.056 -0.4843 -2.6405 -3.0593
19170SOL     OW58960   6.333   9.080   5.453  0.3184 -0.7558  0.2761
19170SOL    HW158961   6.390   9.052   5.381 -2.2508 -0.9831 -1.7978
19170SOL    HW258962   6.287   9.156   5.420 -0.1363 -0.1562  2.1504
19171SOL     OW58963   4.107   0.592   4.732  0.1928 -0.7664 -0.8066
19171SOL    HW158964   4.032   0.606   4.675 -1.9016 -0.8568  1.7598
19171SOL    HW258965   4.127   0.499   4.724 -2.4098 -1.6121  1.1401
19172SOL     OW58966   2.909   2.450   8.513  0.0607  0.0328  0.5375
19172SOL    HW158967   2.955   2.397   8.447  0.9649  0.5283  0.7500
19172SOL    HW258968   2.817   2.441   8.491  0.1484 -1.9893  0.8237
19173SOL     OW58969   8.395   8.639   5.934 -0.4961 -0.1658 -0.3855
19173SOL    HW158970   8.405   8.552   5.972 -0.2109  0.3387  0.7398
19173SOL    HW258971   8.482   8.660   5.898  0.3645  0.8558  2.0587
19174SOL     OW58972   7.179   2.267   3.393 -0.1364  0.7003 -0.2410
19174SOL    HW158973   7.198   2.281   3.486 -2.0688 -1.2332  0.5356
19174SOL    HW258974   7.118   2.337   3.370  0.2913  1.1397 -0.0548
19175SOL     OW58975   4.928   5.621   3.153 -0.2350  0.2697 -0.2945
19175SOL    HW158976   4.991   5.655   3.089 -0.8870  2.0428 -0.0345
19175SOL    HW258977   4.878   5.556   3.104  0.5285  0.2235 -1.0442
19176SOL     OW58978   6.770   1.159   2.573  0.2094  0.2337  0.2677
19176SOL    HW158979   6.685   1.183   2.610  0.6547 -0.0922  1.5486
19176SOL    HW258980   6.823   1.238   2.583 -0.2784  0.8613 -1.6905
19177SOL     OW58981   4.929   1.547   3.522 -0.4177 -0.0247  0.0392
19177SOL    HW158982   4.886   1.514   3.601  0.5942 -0.0023  0.6197
19177SOL    HW258983   4.905   1.485   3.454  1.4147 -2.0197  1.0947
19178SOL     OW58984   3.243   2.323   8.118  0.7456 -0.5001  0.3094
19178SOL    HW158985   3.305   2.342   8.188  1.0682 -1.9936  0.4604
19178SOL    HW258986   3.273   2.376   8.044  3.1202 -2.2674 -0.1011
19179SOL     OW58987   4.830   6.882   3.340  0.1397 -0.1859  0.2074
19179SOL    HW158988   4.871   6.798   3.320  0.3489  0.1281 -0.7435
19179SOL    HW258989   4.745   6.859   3.378  0.8506 -0.8360  1.4516
19180SOL     OW58990   0.528   0.863   3.546 -0.5981 -0.6476 -0.2610
19180SOL    HW158991   0.556   0.797   3.610 -2.0497 -0.7546  0.3030
19180SOL    HW258992   0.518   0.814   3.464 -1.4128 -1.1010  0.0922
19181SOL     OW58993   0.077   2.388   5.888  0.0331  0.3993  0.3098
19181SOL    HW158994   0.052   2.377   5.796  1.7445  0.6163 -0.2176
19181SOL    HW258995   0.036   2.470   5.914  1.5739  1.6648 -1.0547
19182SOL     OW58996   3.382   2.042   5.029 -0.0584 -0.8379 -0.6196
19182SOL    HW158997   3.361   1.973   5.092 -2.5900 -1.6342 -2.1888
19182SOL    HW258998   3.334   2.119   5.060  0.2831 -0.6620 -0.5238
19183SOL     OW58999   7.084   3.706   3.771  0.4146 -0.3745 -0.1608
19183SOL    HW159000   7.097   3.611   3.769 -0.9828 -0.6573  1.6063
19183SOL    HW259001   6.990   3.717   3.762  0.7120  0.9997 -2.3053
19184SOL     OW59002   0.559   5.912   4.141 -0.5514  0.1435 -0.0649
19184SOL    HW159003   0.586   5.997   4.107 -0.3684  0.3512  0.5845
19184SOL    HW259004   0.472   5.897   4.104 -0.3487  0.3481 -0.6345
19185SOL     OW59005   2.638   8.418   6.276 -0.0367 -0.2546  0.7341
19185SOL    HW159006   2.668   8.427   6.366  0.6618  0.6075  0.4264
19185SOL    HW259007   2.606   8.328   6.270  2.2120 -1.1380  1.1875
19186SOL     OW59008   6.254   6.988   8.158  0.3833  0.1506 -0.8122
19186SOL    HW159009   6.184   6.985   8.223  0.3396 -0.6613 -0.8809
19186SOL    HW259010   6.318   7.050   8.193  1.2833 -1.6524  0.9576
19187SOL     OW59011   2.909   1.668   4.145 -0.5945  0.0596 -0.6434
19187SOL    HW159012   2.953   1.600   4.196 -0.8429  0.8921  0.7542
19187SOL    HW259013   2.935   1.750   4.188 -2.3481  0.6604 -0.6500
19188SOL     OW59014   6.572   4.920   6.520 -0.2889 -0.2506  0.2707
19188SOL    HW159015   6.588   4.944   6.428  0.7116 -1.2956  0.1442
19188SOL    HW259016   6.497   4.860   6.516  0.8499 -1.7208 -0.1157
19189SOL     OW59017   4.233   8.139   8.562  0.2065  0.1470  0.6308
19189SOL    HW159018   4.275   8.176   8.640 -0.3636 -0.5379  1.2743
19189SOL    HW259019   4.161   8.086   8.596 -0.2433  0.0830 -0.3835
19190SOL     OW59020   8.749   0.953   7.253 -0.8935 -0.2885  0.5621
19190SOL    HW159021   8.679   0.932   7.191  0.7727 -3.1833 -0.5543
19190SOL    HW259022   8.809   0.879   7.247  1.0724  0.9155  3.2405
19191SOL     OW59023   6.869   6.750   4.004  0.2789 -0.0821 -0.2056
19191SOL    HW159024   6.814   6.683   3.961 -0.3714  0.7072 -0.6403
19191SOL    HW259025   6.862   6.730   4.097  0.4478 -0.8861 -0.3557
19192SOL     OW59026   0.498   6.518   0.746  0.0486  0.0995 -0.1355
19192SOL    HW159027   0.590   6.493   0.734  0.1866  0.5614 -0.0805
19192SOL    HW259028   0.462   6.452   0.805  1.2155  1.7028  2.5458
19193SOL     OW59029   2.819   3.724   6.002 -0.2454  0.6128 -0.0366
19193SOL    HW159030   2.744   3.727   5.944  0.2756  1.6355 -0.6774
19193SOL    HW259031   2.891   3.762   5.951  0.0158  2.4128  1.5683
19194SOL     OW59032   1.661   4.841   4.741  0.7475 -0.1496 -0.3081
19194SOL    HW159033   1.569   4.830   4.766  0.4757  0.1038 -1.1800
19194SOL    HW259034   1.705   4.765   4.780  0.3391  0.2036  0.8967
19195SOL     OW59035   3.693   3.406   1.779 -0.1296 -0.5733 -0.0368
19195SOL    HW159036   3.693   3.376   1.870  1.3063 -0.2181  0.1087
19195SOL    HW259037   3.786   3.415   1.757 -0.4707  0.7596 -1.0667
19196SOL     OW59038   2.780   5.342   7.315 -0.4188 -0.1686 -0.6616
19196SOL    HW159039   2.743   5.256   7.298 -1.8968  0.4185 -0.5814
19196SOL    HW259040   2.786   5.348   7.410 -0.6056 -0.0599 -0.6576
19197SOL     OW59041   6.966   6.904   8.645 -0.1741 -0.0122  0.3190
19197SOL    HW159042   6.914   6.972   8.600  0.4626  0.3994  0.1957
19197SOL    HW259043   6.998   6.849   8.574  0.6455  0.5065  0.2709
19198SOL     OW59044   4.141   3.878   3.532 -0.1531  0.3076  0.3125
19198SOL    HW159045   4.080   3.822   3.580  0.0464  0.3939  0.6747
19198SOL    HW259046   4.123   3.966   3.563 -0.2866  0.4156 -0.0627
19199SOL     OW59047   3.499   3.020   5.160 -0.2967 -0.2743 -0.3980
19199SOL    HW159048   3.526   3.080   5.091  0.6558 -1.9046 -1.5075
19199SOL    HW259049   3.413   2.988   5.133 -0.4255 -0.0676 -0.2397
19200SOL     OW59050   5.211   7.594   1.238 -0.0867 -0.1449 -0.1488
19200SOL    HW159051   5.160   7.597   1.158  0.2055 -0.2096 -0.3402
19200SOL    HW259052   5.154   7.550   1.302 -0.0118 -0.8285 -0.5479
19201SOL     OW59053   1.057   0.014   8.184 -0.0817 -0.1391 -0.0998
19201SOL    HW159054   1.035   0.058   8.102  0.5792 -0.2081 -0.3229
19201SOL    HW259055   1.153   0.005   8.181 -0.0722 -0.2880  0.6035
19202SOL     OW59056   6.842   7.245   2.638 -0.1591 -0.1124 -0.7066
19202SOL    HW159057   6.927   7.267   2.600  0.2489  1.1342  0.8123
19202SOL    HW259058   6.785   7.317   2.613 -0.0900  0.3249  0.3459
19203SOL     OW59059   9.239   6.434   7.386  0.1036  0.0342  1.0357
19203SOL    HW159060   9.303   6.482   7.333 -1.6535  1.7285  0.2817
19203SOL    HW259061   9.238   6.346   7.350  1.0954  0.3411  0.2249
19204SOL     OW59062   3.588   5.255   7.864  0.1988 -0.6810  0.0349
19204SOL    HW159063   3.518   5.274   7.926 -0.4671 -2.0433 -0.2729
19204SOL    HW259064   3.576   5.319   7.794 -0.4572 -0.6299  0.1939
19205SOL     OW59065   3.146   6.122   5.814  0.0393 -0.4706  0.0986
19205SOL    HW159066   3.131   6.030   5.838  0.2417 -0.2602  1.0926
19205SOL    HW259067   3.240   6.126   5.792  0.1946 -0.3630  0.7600
19206SOL     OW59068   7.488   0.417   9.186 -0.4871 -0.2827  0.3715
19206SOL    HW159069   7.473   0.325   9.165 -1.0434 -0.5081  1.6989
19206SOL    HW259070   7.418   0.464   9.140 -0.6673 -0.5922  0.3303
19207SOL     OW59071   0.458   2.647   6.158  0.1105  0.1275  0.0770
19207SOL    HW159072   0.403   2.574   6.131 -0.3291 -0.5400  2.4753
19207SOL    HW259073   0.421   2.723   6.113 -0.9176 -0.7759 -0.6480
19208SOL     OW59074   0.769   3.063   6.003 -0.6682 -0.4469 -0.4794
19208SOL    HW159075   0.791   2.980   6.045  1.3626  0.6694  0.8189
19208SOL    HW259076   0.706   3.104   6.063  0.1845 -0.0164  0.1352
19209SOL     OW59077   3.827   2.388   4.917 -0.2647  0.1974 -0.8928
19209SOL    HW159078   3.737   2.373   4.888 -0.3294 -0.8156 -0.2452
19209SOL    HW259079   3.830   2.480   4.942 -1.9667 -0.3486  1.7871
19210SOL     OW59080   1.678   0.987   5.163 -0.0968 -0.0236  0.2896
19210SOL    HW159081   1.729   1.068   5.164 -0.0398 -0.0639  1.4749
19210SOL    HW259082   1.600   1.007   5.215 -1.0797 -0.1207 -1.0757
19211SOL     OW59083   3.671   1.961   6.054 -0.8572 -0.7371 -0.8278
19211SOL    HW159084   3.693   1.897   5.986  1.0997 -1.9098  0.8091
19211SOL    HW259085   3.740   1.951   6.120 -0.4331  3.0516 -0.4392
19212SOL     OW59086   1.427   2.064   2.798 -0.0905  0.3181 -0.0080
19212SOL    HW159087   1.460   2.114   2.873 -1.1596  1.0727 -0.0247
19212SOL    HW259088   1.334   2.052   2.816 -0.4845  1.0024 -1.4788
19213SOL     OW59089   7.760   5.674   9.152 -0.3546  0.0931  0.2640
19213SOL    HW159090   7.727   5.642   9.069 -1.9946  0.6774  0.6549
19213SOL    HW259091   7.791   5.596   9.198 -0.1198 -0.3210 -0.5752
19214SOL     OW59092   4.689   0.698   1.697 -0.0625  0.1752  0.5078
19214SOL    HW159093   4.744   0.711   1.775 -0.1329 -0.8985  0.7471
19214SOL    HW259094   4.618   0.641   1.727  0.0081 -0.3915 -0.3827
19215SOL     OW59095   2.783   8.831   3.450  0.3615  0.0453  0.0805
19215SOL    HW159096   2.851   8.794   3.506  1.2537  0.6116 -0.5937
19215SOL    HW259097   2.736   8.754   3.417 -1.3335 -0.2522  2.9138
19216SOL     OW59098   3.530   4.764   2.188 -0.1161 -0.0555  0.6263
19216SOL    HW159099   3.613   4.811   2.195  0.2258  1.1105 -5.5008
19216SOL    HW259100   3.554   4.672   2.195  1.5621  0.3022  0.0836
19217SOL     OW59101   2.596   0.291   8.538 -0.1113  0.1882  0.0907
19217SOL    HW159102   2.641   0.260   8.617  1.1080  0.0105 -0.6605
19217SOL    HW259103   2.651   0.362   8.505  1.8309 -2.4807 -2.9739
19218SOL     OW59104   5.115   4.814   6.382  0.5103  0.5040 -0.4011
19218SOL    HW159105   5.095   4.883   6.445  0.1948  1.2345 -1.2675
19218SOL    HW259106   5.203   4.835   6.351  0.4140  0.5244 -0.6629
19219SOL     OW59107   9.121   6.685   6.870  0.1363  0.4687  0.2156
19219SOL    HW159108   9.038   6.720   6.838  0.3475  0.1115 -0.7833
19219SOL    HW259109   9.184   6.756   6.854  0.0749  0.6445  0.7366
19220SOL     OW59110   1.055   1.656   3.695  0.5908 -0.0546  0.0549
19220SOL    HW159111   1.051   1.675   3.789 -2.2027  0.5534 -0.0884
19220SOL    HW259112   1.061   1.561   3.690  0.4010 -0.1192  0.8585
19221SOL     OW59113   6.699   5.671   1.889 -0.3392  0.6162  0.2193
19221SOL    HW159114   6.665   5.702   1.972 -0.4398  1.4554 -0.1237
19221SOL    HW259115   6.776   5.618   1.912 -0.2973  0.9429  0.8349
19222SOL     OW59116   5.533   6.458   4.821  0.3741  0.1171 -0.3484
19222SOL    HW159117   5.472   6.418   4.760  1.0410 -0.3357 -0.7368
19222SOL    HW259118   5.618   6.453   4.777  1.0609 -1.2004  1.0388
19223SOL     OW59119   4.550   5.772   8.322  0.0982  0.5422  0.2410
19223SOL    HW159120   4.619   5.752   8.386 -1.1841  0.4247  1.6615
19223SOL    HW259121   4.513   5.855   8.352 -0.2835  0.6832 -0.5971
19224SOL     OW59122   9.250   8.817   5.508 -0.1361 -0.7115  0.0720
19224SOL    HW159123   9.239   8.727   5.538 -1.4317 -0.7001 -0.3411
19224SOL    HW259124   9.313   8.854   5.570 -0.3850 -1.5905  0.8901
19225SOL     OW59125   5.422   5.875   6.407 -0.6573 -0.1035  0.2666
19225SOL    HW159126   5.365   5.945   6.438  0.1267  0.2578  0.9183
19225SOL    HW259127   5.371   5.831   6.339 -0.7826  1.6939 -0.8548
19226SOL     OW59128   2.707   0.077   0.446  0.1946 -0.2510 -0.4892
19226SOL    HW159129   2.682   0.004   0.390 -1.1168 -0.1057 -0.1234
19226SOL    HW259130   2.722   0.038   0.531  0.8214 -0.2746 -0.6064
19227SOL     OW59131   8.373   1.373   3.364  0.4202 -0.2064 -0.2315
19227SOL    HW159132   8.308   1.386   3.433  1.5940 -0.3592  0.9403
19227SOL    HW259133   8.440   1.439   3.381  1.6409 -1.4280 -0.0750
19228SOL     OW59134   5.092   3.697   8.278 -0.3830 -0.1699 -0.6297
19228SOL    HW159135   5.007   3.730   8.306  0.1993 -1.4612  3.1474
19228SOL    HW259136   5.149   3.774   8.281 -1.0549  0.4009 -1.7454
19229SOL     OW59137   0.507   8.818   6.032  0.1531  0.6493 -0.0954
19229SOL    HW159138   0.594   8.802   6.069  0.9691  0.5852 -1.9091
19229SOL    HW259139   0.470   8.730   6.020 -0.3727  0.6980  1.1304
19230SOL     OW59140   5.059   9.237   8.704  0.4605 -0.1748 -0.2035
19230SOL    HW159141   5.091   9.326   8.689 -0.0319  0.1477  0.6500
19230SOL    HW259142   5.101   9.210   8.786  0.1973 -0.5375 -0.1867
19231SOL     OW59143   4.772   8.279   3.299  0.7711 -0.0066  0.2474
19231SOL    HW159144   4.755   8.219   3.372  0.9807  0.5102  0.7268
19231SOL    HW259145   4.690   8.328   3.289  1.3043  1.1581  1.3121
19232SOL     OW59146   3.008   5.796   2.151  0.0685  0.3249 -1.0119
19232SOL    HW159147   2.968   5.727   2.099  0.3280  0.3127 -1.1959
19232SOL    HW259148   3.035   5.752   2.232 -0.0184  0.2708 -1.0125
19233SOL     OW59149   4.599   8.762   1.990  0.5578 -0.8004  0.4027
19233SOL    HW159150   4.504   8.772   1.994  0.4189 -1.6099 -0.4528
19233SOL    HW259151   4.631   8.804   2.069 -0.2497  2.2318 -0.7551
19234SOL     OW59152   5.398   5.621   1.269 -0.4970 -0.3687 -0.1969
19234SOL    HW159153   5.317   5.578   1.243 -1.4130  0.9561  0.3562
19234SOL    HW259154   5.409   5.599   1.361 -0.2458 -0.4963 -0.2544
19235SOL     OW59155   5.820   2.321   3.278  0.2852 -0.3043 -0.5971
19235SOL    HW159156   5.895   2.261   3.286 -1.1978 -2.1152  0.6235
19235SOL    HW259157   5.755   2.270   3.230 -0.3263  1.0955 -1.2831
19236SOL     OW59158   7.926   7.196   3.609 -0.3377 -0.2014 -0.1593
19236SOL    HW159159   7.974   7.267   3.652 -1.5907 -0.4310  1.7688
19236SOL    HW259160   7.971   7.117   3.638  1.1702 -0.2681 -2.4493
19237SOL     OW59161   0.445   0.597   7.278 -0.6272 -0.3169  0.0025
19237SOL    HW159162   0.425   0.505   7.296  0.1734 -0.4215  0.3805
19237SOL    HW259163   0.378   0.645   7.328 -0.9363 -0.6832 -0.0512
19238SOL     OW59164   1.334   7.751   4.526  0.1039  0.2104 -0.1442
19238SOL    HW159165   1.319   7.667   4.570 -1.1406  1.4753  2.0429
19238SOL    HW259166   1.393   7.798   4.585 -1.8412  2.0706  0.4534
19239SOL     OW59167   0.025   4.600   9.179 -0.2857 -1.2573 -0.2182
19239SOL    HW159168   0.088   4.658   9.222 -1.3164  0.1090 -0.5013
19239SOL    HW259169   0.078   4.552   9.115  0.6566 -0.9235  0.2796
19240SOL     OW59170   3.583   5.756   7.028  0.1858  0.6392 -0.0880
19240SOL    HW159171   3.542   5.774   7.113 -0.5319 -0.1052 -0.2694
19240SOL    HW259172   3.558   5.831   6.974 -0.1473  0.6581  0.0867
19241SOL     OW59173   5.640   8.115   4.821 -0.0991  0.0008 -0.2689
19241SOL    HW159174   5.577   8.096   4.752  0.7043  1.8650 -1.5804
19241SOL    HW259175   5.622   8.205   4.847  0.1284 -0.4074  1.4252
19242SOL     OW59176   2.415   4.994   3.474  0.8246 -0.2064 -0.6898
19242SOL    HW159177   2.477   5.035   3.414  2.3047 -0.8937  0.2934
19242SOL    HW259178   2.434   4.900   3.469  0.4259 -0.3544  0.2222
19243SOL     OW59179   7.491   5.605   1.592 -0.1710  0.0956  0.5683
19243SOL    HW159180   7.415   5.572   1.543 -0.1084  0.6973  0.0623
19243SOL    HW259181   7.542   5.527   1.612  1.9421  0.0620 -3.8186
19244SOL     OW59182   4.778   6.305   2.677  0.2357 -0.3404  0.0369
19244SOL    HW159183   4.847   6.301   2.743 -0.8685 -1.5051  1.1846
19244SOL    HW259184   4.707   6.353   2.720  0.7146  1.9670 -1.5669
19245SOL     OW59185   8.200   1.297   6.071 -0.3069 -0.1797 -0.3152
19245SOL    HW159186   8.217   1.349   6.149 -0.0704  0.0285 -0.5060
19245SOL    HW259187   8.287   1.273   6.039 -0.3906  0.1817 -0.8160
19246SOL     OW59188   2.732   8.733   8.653 -0.2914  0.0216 -0.1220
19246SOL    HW159189   2.744   8.710   8.560 -2.9206  2.3934 -1.1880
19246SOL    HW259190   2.649   8.780   8.655  0.6548  1.8425  3.1376
19247SOL     OW59191   1.246   2.304   6.937  0.4898  0.0754 -0.2707
19247SOL    HW159192   1.153   2.318   6.920  0.5443 -1.1321 -1.7423
19247SOL    HW259193   1.270   2.372   7.000 -0.8695  1.7988 -1.5386
19248SOL     OW59194   2.967   3.952   4.085 -0.5702 -0.2962 -0.0673
19248SOL    HW159195   2.905   4.021   4.112 -0.6194 -0.0014 -0.9189
19248SOL    HW259196   3.045   3.968   4.139 -0.5862  0.4288 -0.2435
19249SOL     OW59197   6.706   9.081   8.662  0.5724  0.2725 -0.1833
19249SOL    HW159198   6.743   9.164   8.630 -0.0812  0.7903  0.3662
19249SOL    HW259199   6.624   9.107   8.705  1.1908 -0.4537  1.4883
19250SOL     OW59200   2.688   8.945   3.004 -0.2058 -0.4811 -0.0499
19250SOL    HW159201   2.597   8.960   2.980 -0.2656  2.7214  1.6586
19250SOL    HW259202   2.738   8.983   2.932 -0.2820  0.2598  0.2782
19251SOL     OW59203   5.857   7.353   8.387  0.3382  0.2591  0.1408
19251SOL    HW159204   5.891   7.431   8.344 -0.6258  1.0862  0.8153
19251SOL    HW259205   5.788   7.386   8.445 -0.9705 -1.2186 -0.5036
19252SOL     OW59206   6.834   8.890   0.744  0.4519 -0.1873  0.3693
19252SOL    HW159207   6.789   8.973   0.728  0.3524 -0.3852 -0.4243
19252SOL    HW259208   6.817   8.870   0.836  0.5254  0.6972  0.5790
19253SOL     OW59209   4.704   1.266   0.695 -0.6343  0.0317  1.0743
19253SOL    HW159210   4.783   1.318   0.710  0.1999 -0.5148 -0.9675
19253SOL    HW259211   4.685   1.226   0.779  1.0139  0.5459  1.7375
19254SOL     OW59212   9.051   6.314   4.939  0.1388  0.1342 -0.1798
19254SOL    HW159213   8.988   6.337   4.871  0.2947  2.2608  0.3275
19254SOL    HW259214   9.076   6.398   4.978 -0.4426 -1.0420  2.9539
19255SOL     OW59215   5.784   4.600   8.941 -0.2306 -0.1488  0.1691
19255SOL    HW159216   5.712   4.540   8.960  0.4166 -1.6276 -1.6940
19255SOL    HW259217   5.863   4.546   8.946  0.2326 -0.0866 -3.4843
19256SOL     OW59218   6.543   0.479   8.520 -0.2419  0.6202 -0.5391
19256SOL    HW159219   6.458   0.434   8.527 -0.5633  1.0523 -1.4387
19256SOL    HW259220   6.570   0.494   8.610 -2.5323  3.0983 -0.1587
19257SOL     OW59221   4.103   1.331   3.035  0.3886  0.4703 -1.0564
19257SOL    HW159222   4.154   1.273   3.092 -1.1087  0.4938  0.4187
19257SOL    HW259223   4.035   1.275   2.998 -0.4871  1.0274 -0.3720
19258SOL     OW59224   4.857   4.117   3.691  0.5881  0.2327  0.0470
19258SOL    HW159225   4.897   4.044   3.738 -0.1506 -0.3687 -0.2447
19258SOL    HW259226   4.880   4.102   3.599  2.3889  1.6276  0.1931
19259SOL     OW59227   1.897   4.648   2.836  0.1920  0.1306  0.2069
19259SOL    HW159228   1.985   4.638   2.872 -0.2382 -1.4180  0.9348
19259SOL    HW259229   1.883   4.567   2.786 -0.8297  0.3382  0.1459
19260SOL     OW59230   5.169   8.491   5.063  0.6721  0.1361 -0.3613
19260SOL    HW159231   5.227   8.417   5.078  0.3756  0.2348  1.5629
19260SOL    HW259232   5.088   8.468   5.110 -0.3472  0.6009 -1.8266
19261SOL     OW59233   9.071   3.916   8.389  0.6093  0.2490  0.2576
19261SOL    HW159234   9.159   3.878   8.379  0.3402 -0.5613  0.8239
19261SOL    HW259235   9.071   3.952   8.478  0.2587 -0.0811  0.3961
19262SOL     OW59236   0.153   8.030   8.325 -0.7748 -0.3148 -0.2828
19262SOL    HW159237   0.215   8.085   8.277 -0.6823  1.4130  1.6223
19262SOL    HW259238   0.069   8.044   8.282 -0.5325  0.4819 -0.5140
19263SOL     OW59239   7.981   1.515   3.176 -0.5133  0.1040  0.6464
19263SOL    HW159240   8.044   1.576   3.216  0.1725  0.0361 -0.2780
19263SOL    HW259241   7.946   1.465   3.249  0.4403  0.2192  1.2004
19264SOL     OW59242   8.396   4.846   9.117  0.0971 -0.5832  0.2789
19264SOL    HW159243   8.326   4.847   9.182  0.2605 -2.2891  0.5499
19264SOL    HW259244   8.353   4.866   9.034  0.0347  2.5149  0.9490
19265SOL     OW59245   8.394   2.234   2.304  0.5277 -0.2360 -0.2721
19265SOL    HW159246   8.344   2.313   2.324 -0.8336 -1.1681  0.1929
19265SOL    HW259247   8.438   2.254   2.221 -1.7297  0.1968 -1.4598
19266SOL     OW59248   3.402   0.021   7.520 -0.3602 -0.1413  0.4321
19266SOL    HW159249   3.326  -0.000   7.573  1.1173 -3.0799  1.6128
19266SOL    HW259250   3.404  -0.046   7.451  0.2533  0.9075 -0.6293
19267SOL     OW59251   5.735   0.923   4.503  0.1693  0.1342  0.4322
19267SOL    HW159252   5.727   0.832   4.475 -1.0117 -0.1612  1.6549
19267SOL    HW259253   5.808   0.922   4.564  0.5104  0.1296  0.0341
19268SOL     OW59254   1.639   2.573   4.859 -0.5773 -0.5338  0.1919
19268SOL    HW159255   1.707   2.524   4.906 -0.6590 -0.1499  0.7277
19268SOL    HW259256   1.579   2.507   4.825 -0.1661 -0.8516  0.0820
19269SOL     OW59257   4.392   1.221   8.424 -0.5764 -0.1290  0.0155
19269SOL    HW159258   4.311   1.237   8.376 -1.1640  1.5609  1.4595
19269SOL    HW259259   4.382   1.133   8.459 -1.6620 -0.0627 -0.0965
19270SOL     OW59260   8.958   1.081   4.392 -0.1362 -0.1645 -0.5053
19270SOL    HW159261   8.880   1.065   4.445  0.0387 -2.5913 -0.8693
19270SOL    HW259262   9.028   1.096   4.457 -0.4205 -0.5246 -0.1089
19271SOL     OW59263   7.806   2.757   7.281 -0.1944  0.3349  0.2076
19271SOL    HW159264   7.828   2.836   7.329  0.3162 -0.2562  0.9814
19271SOL    HW259265   7.792   2.786   7.191  0.6370  1.2117  0.3454
19272SOL     OW59266   4.276   6.136   8.260  0.8251  0.1034 -0.1702
19272SOL    HW159267   4.319   6.082   8.327  2.0646  0.2036 -0.8669
19272SOL    HW259268   4.194   6.164   8.302  1.5220  0.0923  1.2783
19273SOL     OW59269   1.966   0.571   4.685  0.4258 -0.1066  0.0033
19273SOL    HW159270   1.883   0.618   4.680  1.1753  1.1271 -2.7280
19273SOL    HW259271   1.942   0.481   4.704 -1.5397  0.2306 -0.6851
19274SOL     OW59272   3.712   8.655   1.837  0.7451  0.2340  0.0615
19274SOL    HW159273   3.802   8.651   1.870  1.2916  1.9777 -1.0410
19274SOL    HW259274   3.699   8.748   1.818 -1.6464  0.1788  1.0982
19275SOL     OW59275   9.225   6.290   4.300  0.8181  0.5968  0.2845
19275SOL    HW159276   9.269   6.253   4.377  1.2938  1.6067  0.5174
19275SOL    HW259277   9.291   6.286   4.231  0.6467  0.4105  0.1282
19276SOL     OW59278   1.917   8.804   6.759  0.3930 -0.0174  0.3015
19276SOL    HW159279   1.879   8.788   6.672  0.7808  0.3985  0.0554
19276SOL    HW259280   1.855   8.763   6.819 -0.9068  1.3457 -0.0376
19277SOL     OW59281   6.375   7.780   2.133  0.1099  0.0495 -0.1713
19277SOL    HW159282   6.405   7.693   2.161  2.3456  0.0219 -2.3203
19277SOL    HW259283   6.439   7.841   2.170 -0.7033  0.6690  0.2406
19278SOL     OW59284   4.181   6.365   1.195 -0.2486 -0.6725 -0.2966
19278SOL    HW159285   4.259   6.310   1.183 -0.6613 -1.5001  0.5978
19278SOL    HW259286   4.136   6.362   1.111  0.0264 -1.2493 -0.4320
19279SOL     OW59287   7.556   1.502   9.102 -0.0203 -0.4651  0.0380
19279SOL    HW159288   7.641   1.466   9.076  0.4915  0.6514  0.1283
19279SOL    HW259289   7.550   1.586   9.057 -0.6790 -0.1271  0.7270
19280SOL     OW59290   1.095   0.084   7.179  0.0704 -0.6940  0.2803
19280SOL    HW159291   1.138   0.168   7.162  1.8338 -1.0979  2.2377
19280SOL    HW259292   1.002   0.106   7.185  0.3792  0.9449 -0.2341
19281SOL     OW59293   4.624   4.803   8.328 -0.3458  0.3497 -0.3749
19281SOL    HW159294   4.665   4.780   8.244 -0.2739 -0.8052 -0.0396
19281SOL    HW259295   4.539   4.840   8.303 -0.3465 -0.0313 -0.9647
19282SOL     OW59296   2.503   7.718   9.007  0.4439  0.7442 -0.3569
19282SOL    HW159297   2.412   7.739   9.027  0.1486 -1.3150  0.7589
19282SOL    HW259298   2.544   7.705   9.093  1.0833 -0.9718 -0.8780
19283SOL     OW59299   0.571   3.821   7.542  0.7927 -0.8120  0.1962
19283SOL    HW159300   0.595   3.912   7.529 -0.5160 -0.5653 -0.6400
19283SOL    HW259301   0.653   3.777   7.566  1.4422  0.5548  0.5348
19284SOL     OW59302   6.750   4.193   0.214  0.0585  0.2685  0.5062
19284SOL    HW159303   6.715   4.157   0.132 -0.3609  2.4485 -0.3422
19284SOL    HW259304   6.706   4.278   0.224  2.1732  1.3247  1.5197
19285SOL     OW59305   9.061   2.486   4.642 -0.1610 -0.1054  0.0490
19285SOL    HW159306   9.104   2.531   4.569 -0.3127 -0.8968 -0.5437
19285SOL    HW259307   9.000   2.551   4.678  1.9192  1.2610  1.3091
19286SOL     OW59308   6.499   6.529   4.924 -0.8181  0.1184 -0.1276
19286SOL    HW159309   6.534   6.462   4.864 -1.1046 -0.9708  0.8778
19286SOL    HW259310   6.420   6.561   4.880 -0.3166  0.2863 -0.9292
19287SOL     OW59311   6.925   1.215   5.223  0.5623 -0.4331  0.5104
19287SOL    HW159312   7.005   1.265   5.205  1.3781 -1.9100 -0.1845
19287SOL    HW259313   6.854   1.277   5.207  1.5127  0.4548 -0.4568
19288SOL     OW59314   1.451   1.022   5.286  0.3102  0.8660  0.0235
19288SOL    HW159315   1.447   1.060   5.374 -0.9393  1.1989 -0.1580
19288SOL    HW259316   1.362   0.992   5.269  0.5472  0.7606 -1.1094
19289SOL     OW59317   5.178   1.795   6.373  0.2083  0.3907  0.2225
19289SOL    HW159318   5.110   1.855   6.404 -2.2018 -0.8130 -2.2786
19289SOL    HW259319   5.142   1.708   6.389  0.1073 -0.2807 -2.9534
19290SOL     OW59320   8.272   0.677   7.102  0.2915  0.1304  0.5136
19290SOL    HW159321   8.359   0.667   7.063 -0.8486 -1.5149 -1.8360
19290SOL    HW259322   8.249   0.768   7.084  1.1394  0.3155  0.3104
19291SOL     OW59323   5.026   0.787   8.087 -0.6792  0.1623 -0.0923
19291SOL    HW159324   5.095   0.777   8.152 -0.5236  0.2685 -0.2411
19291SOL    HW259325   4.945   0.767   8.134 -0.8372  2.5280  0.7531
19292SOL     OW59326   6.664   5.225   8.153 -0.1047  0.0487 -0.4724
19292SOL    HW159327   6.569   5.235   8.147 -0.0784  0.2278 -0.5909
19292SOL    HW259328   6.679   5.187   8.240 -0.2628  0.2982 -0.3373
19293SOL     OW59329   3.792   0.143   3.876  0.3027 -0.0466  0.2007
19293SOL    HW159330   3.770   0.170   3.965 -0.6416 -0.9572  0.2665
19293SOL    HW259331   3.708   0.118   3.837  0.2653  2.7158 -1.8248
19294SOL     OW59332   0.799   3.630   3.390 -0.1278 -0.8976 -0.1125
19294SOL    HW159333   0.800   3.694   3.461  1.1010 -1.5585  0.4958
19294SOL    HW259334   0.832   3.678   3.314 -0.9920 -0.3188 -0.1366
19295SOL     OW59335   1.824   0.401   7.242  0.0008  0.5856  0.1322
19295SOL    HW159336   1.874   0.363   7.315  0.6788 -0.2400 -0.7341
19295SOL    HW259337   1.732   0.390   7.269  0.2240 -0.2177  0.6324
19296SOL     OW59338   8.001   6.895   6.150 -0.0528 -0.4596  0.1225
19296SOL    HW159339   8.083   6.941   6.170 -0.3968  0.1573  0.1394
19296SOL    HW259340   8.028   6.820   6.097  0.3459  0.9211 -1.7416
19297SOL     OW59341   6.452   2.818   6.961  0.1366 -0.1002 -0.4522
19297SOL    HW159342   6.381   2.868   6.919 -0.4664 -1.0450 -0.5810
19297SOL    HW259343   6.526   2.830   6.902 -0.1166  0.2966 -0.7023
19298SOL     OW59344   7.820   8.400   4.769 -0.0116 -0.4514  0.0757
19298SOL    HW159345   7.763   8.400   4.693  1.4046 -1.3610 -1.0280
19298SOL    HW259346   7.774   8.454   4.834 -2.2375 -1.3983 -0.6399
19299SOL     OW59347   1.120   0.276   6.396 -0.3393  0.4737 -0.2471
19299SOL    HW159348   1.197   0.236   6.356 -0.1107  1.1447 -0.4871
19299SOL    HW259349   1.136   0.370   6.391  0.0365  0.5823  2.0717
19300SOL     OW59350   2.181   1.307   7.877 -0.3535  0.3318 -0.1689
19300SOL    HW159351   2.259   1.271   7.918 -0.1113  0.2409 -0.7040
19300SOL    HW259352   2.212   1.349   7.797 -0.7739  0.8155 -0.0897
19301SOL     OW59353   8.659   8.441   8.960 -0.6825 -0.2614  0.2239
19301SOL    HW159354   8.752   8.433   8.940 -0.7380 -0.6379  0.1076
19301SOL    HW259355   8.634   8.355   8.993 -0.4408  0.5328  2.6733
19302SOL     OW59356   0.883   3.114   2.601 -0.3740 -0.6294 -0.2052
19302SOL    HW159357   0.865   3.040   2.659 -0.8841  0.4188  1.0042
19302SOL    HW259358   0.962   3.088   2.554 -0.1354 -1.6543  0.7155
19303SOL     OW59359   8.617   6.864   6.759 -0.0348  0.0773 -0.1070
19303SOL    HW159360   8.608   6.940   6.817 -0.2977  1.3157 -1.6767
19303SOL    HW259361   8.695   6.818   6.791  1.3883  2.1729 -0.3066
19304SOL     OW59362   5.573   0.059   2.647  0.7469  0.3861  0.4651
19304SOL    HW159363   5.565   0.126   2.716 -1.9761 -0.6879  1.3204
19304SOL    HW259364   5.575   0.110   2.566 -0.4881  1.6051  1.1307
19305SOL     OW59365   7.145   5.441   4.534  0.2960  0.4020  0.0920
19305SOL    HW159366   7.211   5.410   4.472  1.3617 -0.4245  1.5716
19305SOL    HW259367   7.187   5.513   4.580  0.0184  0.1394  0.7710
19306SOL     OW59368   5.600   6.592   7.786  0.0639  0.5757  0.1649
19306SOL    HW159369   5.535   6.660   7.803  0.0264  0.9980 -1.4626
19306SOL    HW259370   5.559   6.537   7.719  1.0134  0.3202 -0.2260
19307SOL     OW59371   4.273   7.247   4.586 -0.1140 -0.0407  0.7329
19307SOL    HW159372   4.359   7.262   4.627  0.0054 -0.2869  0.5768
19307SOL    HW259373   4.282   7.162   4.543  0.7247  1.4864 -2.3556
19308SOL     OW59374   5.567   2.214   2.416  0.5169  0.0008 -0.0853
19308SOL    HW159375   5.573   2.181   2.326 -1.1064 -0.7286  0.0541
19308SOL    HW259376   5.476   2.239   2.427  0.2297 -1.6509  1.9371
19309SOL     OW59377   4.901   2.115   4.730 -0.0578  0.5978 -0.3845
19309SOL    HW159378   4.897   2.021   4.751  0.4351  0.5974 -0.2656
19309SOL    HW259379   4.842   2.126   4.656  0.6744 -0.0028 -1.0836
19310SOL     OW59380   2.960   8.697   4.488 -0.1325 -0.2582 -0.4010
19310SOL    HW159381   3.005   8.614   4.475 -1.1231 -0.7626 -0.6651
19310SOL    HW259382   2.890   8.677   4.550  0.9611  0.8617  1.2976
19311SOL     OW59383   7.345   0.962   6.372  0.4955  0.3033 -0.6376
19311SOL    HW159384   7.287   1.036   6.358  0.7719  0.8851  1.0872
19311SOL    HW259385   7.405   0.963   6.297 -0.4666  0.8700 -1.4147
19312SOL     OW59386   2.437   0.955   4.680  0.0945  0.0659 -0.2778
19312SOL    HW159387   2.423   1.043   4.717 -1.7235 -0.0917 -0.4737
19312SOL    HW259388   2.438   0.897   4.756 -0.9410  0.0398 -0.2642
19313SOL     OW59389   5.357   7.769   5.041 -0.2737 -0.2843 -0.4114
19313SOL    HW159390   5.299   7.727   5.103  1.3902 -2.5129 -0.2564
19313SOL    HW259391   5.339   7.726   4.958 -1.1940  1.4099 -1.1448
19314SOL     OW59392   5.511   8.162   3.730 -0.6131  0.1316  0.5134
19314SOL    HW159393   5.535   8.245   3.688 -1.3989 -0.2061 -0.6503
19314SOL    HW259394   5.417   8.169   3.745 -0.5980 -0.3654  0.8398
19315SOL     OW59395   8.339   7.560   1.271  0.3968  0.5972  0.2400
19315SOL    HW159396   8.407   7.583   1.333  0.8399  0.9668 -0.3743
19315SOL    HW259397   8.314   7.471   1.295 -1.3903  1.6273  2.6988
19316SOL     OW59398   5.508   5.290   2.099  0.1638  0.1532 -0.3857
19316SOL    HW159399   5.469   5.357   2.042  0.6409  0.5129 -0.2915
19316SOL    HW259400   5.479   5.207   2.061  1.4049  0.3508 -1.8330
19317SOL     OW59401   8.655   4.723   4.658 -0.0952 -0.1245 -0.0630
19317SOL    HW159402   8.647   4.806   4.704 -0.6436 -0.4739  0.4944
19317SOL    HW259403   8.748   4.703   4.660 -0.0304  0.2078  0.2887
19318SOL     OW59404   7.248   9.182   9.267 -0.3967 -0.0855  0.0385
19318SOL    HW159405   7.194   9.198   9.189 -3.4386 -1.9673  1.5650
19318SOL    HW259406   7.231   9.257   9.323 -2.7800 -1.3198  1.1074
19319SOL     OW59407   1.663   6.488   2.455 -0.3635 -0.2885 -0.0063
19319SOL    HW159408   1.703   6.572   2.479 -0.8267 -0.7960  2.8670
19319SOL    HW259409   1.738   6.431   2.436  0.1398 -0.1111  1.3257
19320SOL     OW59410   2.914   0.194   4.818  1.0019 -0.4197 -0.4401
19320SOL    HW159411   2.972   0.245   4.873  1.7905 -0.0129 -1.6021
19320SOL    HW259412   2.861   0.142   4.879 -0.6810  2.6106  0.8707
19321SOL     OW59413   1.781   5.681   0.719 -0.0199 -0.0972 -0.0495
19321SOL    HW159414   1.742   5.764   0.748 -0.5450 -1.3127  3.1378
19321SOL    HW259415   1.875   5.696   0.724 -0.1030  0.1690  1.1607
19322SOL     OW59416   0.977   7.557   4.044  0.0444  0.0313 -0.2727
19322SOL    HW159417   1.032   7.545   3.967  0.2030  1.1129 -0.3458
19322SOL    HW259418   0.940   7.470   4.061  2.1588 -0.8759  0.0738
19323SOL     OW59419   8.221   3.721   0.283 -0.0814 -0.4200  0.0241
19323SOL    HW159420   8.288   3.659   0.253  2.2175  2.0072 -0.1865
19323SOL    HW259421   8.217   3.787   0.213 -0.2117  1.2812  1.5733
19324SOL     OW59422   5.430   8.216   7.997 -0.1705  0.0550 -0.1156
19324SOL    HW159423   5.434   8.310   7.976 -0.1189 -0.0301 -0.4993
19324SOL    HW259424   5.413   8.213   8.091  0.0573  0.4489 -0.0593
19325SOL     OW59425   7.933   5.965   1.321 -0.1662  0.1538 -0.1529
19325SOL    HW159426   7.919   5.870   1.328 -0.0025  0.1683  0.4662
19325SOL    HW259427   7.880   5.991   1.246 -1.6253 -0.1644  0.7151
19326SOL     OW59428   8.456   4.774   3.928  0.0763 -0.1378 -0.0804
19326SOL    HW159429   8.542   4.815   3.916 -0.9335  2.0112 -0.5163
19326SOL    HW259430   8.397   4.848   3.942 -1.9604 -1.4536 -1.3423
19327SOL     OW59431   7.615   0.980   6.999  0.0925 -0.1860 -0.0867
19327SOL    HW159432   7.684   0.916   7.017 -0.1842 -0.7963 -1.1283
19327SOL    HW259433   7.568   0.944   6.924 -0.0270  1.2946 -0.7487
19328SOL     OW59434   7.141   1.772   4.425  0.1609 -0.3988 -0.7444
19328SOL    HW159435   7.142   1.866   4.408  0.3852 -0.1692  0.4114
19328SOL    HW259436   7.059   1.758   4.474  2.0277 -0.0144  2.8619
19329SOL     OW59437   8.588   1.263   2.721  0.2178 -0.2193 -1.0077
19329SOL    HW159438   8.517   1.320   2.750  0.8390  2.5301 -4.2357
19329SOL    HW259439   8.637   1.243   2.800 -1.9099  1.0493  0.7371
19330SOL     OW59440   4.725   1.158   4.800 -0.5801  0.5356 -0.4618
19330SOL    HW159441   4.651   1.108   4.835 -1.0377  2.1664  1.0559
19330SOL    HW259442   4.796   1.144   4.862 -0.9436  2.2838  0.4222
19331SOL     OW59443   4.741   5.807   0.764 -0.1528  0.4766 -0.1206
19331SOL    HW159444   4.655   5.806   0.722 -0.2554 -1.2913  0.0484
19331SOL    HW259445   4.722   5.832   0.855 -0.3110  1.3436 -0.3826
19332SOL     OW59446   4.359   3.333   7.868  0.3715  0.2636  0.2231
19332SOL    HW159447   4.305   3.345   7.790 -0.8263 -1.7366  0.6778
19332SOL    HW259448   4.448   3.323   7.835  0.5973  3.5346 -0.5525
19333SOL     OW59449   8.284   4.647   1.714  0.2869  0.1417 -0.0599
19333SOL    HW159450   8.226   4.633   1.789  0.4625 -0.7958 -0.0972
19333SOL    HW259451   8.352   4.706   1.748 -0.4711  0.9505  0.0841
19334SOL     OW59452   9.225   1.945   6.266  0.3910 -0.5153  0.0143
19334SOL    HW159453   9.141   1.899   6.260 -0.3463  0.2800  2.8544
19334SOL    HW259454   9.202   2.038   6.269  1.7513  0.1240 -3.6435
19335SOL     OW59455   0.676   2.008   1.820 -0.5417  0.2403 -0.3286
19335SOL    HW159456   0.711   2.005   1.731 -3.2084  0.9080 -1.5180
19335SOL    HW259457   0.696   2.096   1.851  2.0779 -0.6010  0.5566
19336SOL     OW59458   4.729   1.572   2.815  0.1652 -0.0667  0.2473
19336SOL    HW159459   4.775   1.554   2.733  0.3650  0.2220  0.2940
19336SOL    HW259460   4.670   1.645   2.793  2.0046  1.7266  0.9629
19337SOL     OW59461   1.534   4.710   8.298 -0.4236 -0.1834  0.1269
19337SOL    HW159462   1.515   4.629   8.251  1.2813  0.6254 -2.1434
19337SOL    HW259463   1.526   4.778   8.232  2.4396  0.9846  0.8266
19338SOL     OW59464   5.925   0.244   2.907  0.2593 -0.2139 -0.3206
19338SOL    HW159465   5.867   0.176   2.940  0.5780 -0.5695 -0.4855
19338SOL    HW259466   5.965   0.206   2.829  0.6792  0.0389 -0.2331
19339SOL     OW59467   2.390   3.566   7.875  0.1227 -0.1447  0.1975
19339SOL    HW159468   2.371   3.654   7.909 -0.6268 -0.1445 -0.1976
19339SOL    HW259469   2.318   3.548   7.814  0.3711 -0.9593  0.1349
19340SOL     OW59470   7.215   6.040   4.192  0.1356 -0.1107 -0.4636
19340SOL    HW159471   7.226   5.969   4.255 -1.7822  0.6800  0.8853
19340SOL    HW259472   7.293   6.094   4.201  1.0714 -1.3887 -0.6751
19341SOL     OW59473   2.617   0.991   5.066 -0.2231 -0.1007 -0.0526
19341SOL    HW159474   2.656   1.070   5.029  2.9703 -1.4142  0.1251
19341SOL    HW259475   2.601   1.013   5.158  0.9880  0.2636  0.0894
19342SOL     OW59476   2.461   2.264   1.582 -0.1368 -0.0143 -0.2177
19342SOL    HW159477   2.391   2.313   1.624  0.1386  0.7549 -0.6316
19342SOL    HW259478   2.427   2.245   1.494  0.1483  0.3342 -0.4086
19343SOL     OW59479   7.777   8.460   1.380 -0.6453  0.0942  0.8220
19343SOL    HW159480   7.809   8.369   1.378 -0.1783  0.2577  0.6194
19343SOL    HW259481   7.696   8.458   1.329  1.5533  0.6022 -3.0775
19344SOL     OW59482   3.343   2.311   5.292 -0.5443 -0.4680 -0.0454
19344SOL    HW159483   3.411   2.376   5.308  0.2262 -1.0550 -0.8706
19344SOL    HW259484   3.276   2.358   5.242  0.9472 -0.7819 -2.4739
19345SOL     OW59485   0.995   8.457   4.006  0.1872 -0.0315  0.0360
19345SOL    HW159486   0.954   8.417   4.083  0.6396  0.0158  0.3089
19345SOL    HW259487   1.089   8.440   4.018  0.4100  1.2165  0.2293
19346SOL     OW59488   1.076   7.567   8.541  0.0439  0.5093 -0.8962
19346SOL    HW159489   1.105   7.591   8.453  0.4820  0.3547 -0.7982
19346SOL    HW259490   1.061   7.473   8.536  1.2766  0.2696 -0.4910
19347SOL     OW59491   5.911   0.639   7.270  0.2213  0.3162 -0.4164
19347SOL    HW159492   5.941   0.696   7.340 -1.2833  1.3021 -0.5397
19347SOL    HW259493   5.838   0.590   7.307  0.6564 -0.5850 -0.7159
19348SOL     OW59494   7.485   7.907   6.660 -0.3023 -0.2065 -0.0388
19348SOL    HW159495   7.529   7.986   6.628 -0.4485 -0.6143 -1.2719
19348SOL    HW259496   7.411   7.894   6.601 -1.1968 -0.4144  1.0758
19349SOL     OW59497   7.903   7.218   7.635  0.1790  0.2760  0.2070
19349SOL    HW159498   7.832   7.239   7.574 -0.8763  0.7604  1.5536
19349SOL    HW259499   7.875   7.137   7.677  2.3199 -1.7953 -2.0182
19350SOL     OW59500   5.984   1.905   9.161 -0.0632  0.3186  0.8804
19350SOL    HW159501   5.973   1.996   9.191 -1.0760  0.0872  1.2730
19350SOL    HW259502   5.971   1.853   9.240  0.8122 -0.1566  0.7100
19351SOL     OW59503   3.003   1.789   7.991 -0.3780 -0.5117  0.2681
19351SOL    HW159504   3.096   1.770   7.974 -0.1920 -0.7656  1.4437
19351SOL    HW259505   2.991   1.879   7.960  0.2839 -0.4500  0.1718
19352SOL     OW59506   0.873   8.931   5.741 -0.6220  0.3925  0.3788
19352SOL    HW159507   0.884   8.857   5.800  0.2969 -0.4087 -0.7750
19352SOL    HW259508   0.866   8.893   5.654 -1.4529  1.5862 -0.1196
19353SOL     OW59509   6.516   8.189   0.767  0.1533  0.1901 -0.4260
19353SOL    HW159510   6.456   8.251   0.726 -0.4827 -0.3672 -0.3518
19353SOL    HW259511   6.598   8.201   0.720 -0.1304  0.6720 -0.8060
19354SOL     OW59512   8.870   2.971   7.679 -0.1981 -0.3068 -0.3210
19354SOL    HW159513   8.805   2.937   7.618 -0.9129 -0.7177  0.6341
19354SOL    HW259514   8.943   2.910   7.674 -0.3495 -0.4657 -0.5881
19355SOL     OW59515   0.439   1.790   3.709 -0.4473 -0.5666 -0.6472
19355SOL    HW159516   0.429   1.757   3.798  0.7405  1.5026  0.3423
19355SOL    HW259517   0.484   1.721   3.662 -0.0360 -1.2413  0.6934
19356SOL     OW59518   4.355   0.488   1.792  0.3396  0.6005 -0.5376
19356SOL    HW159519   4.378   0.502   1.700 -0.0096 -0.1764 -0.7500
19356SOL    HW259520   4.345   0.393   1.800 -3.4056  0.8424 -0.6292
19357SOL     OW59521   3.563   8.028   8.485 -0.6925  0.1681  0.1708
19357SOL    HW159522   3.505   8.007   8.411 -0.7395  0.7308  0.0457
19357SOL    HW259523   3.528   7.976   8.558 -1.7588  0.9980  0.2729
19358SOL     OW59524   5.746   7.541   7.939 -0.4804 -0.1197 -0.0618
19358SOL    HW159525   5.669   7.496   7.974 -0.3810 -1.8027 -1.8145
19358SOL    HW259526   5.710   7.613   7.886 -1.0461 -1.9407 -2.3207
19359SOL     OW59527   2.672   3.775   2.931  0.8242  0.2170  0.5890
19359SOL    HW159528   2.604   3.751   2.994 -0.3321  0.3342 -0.5569
19359SOL    HW259529   2.736   3.825   2.981 -0.6486  1.3222  1.4364
19360SOL     OW59530   1.127   5.414   2.934  0.7002  0.0975  0.2535
19360SOL    HW159531   1.057   5.408   2.999  0.2278  0.7144 -0.1824
19360SOL    HW259532   1.166   5.327   2.932 -1.8945 -1.1334 -1.5089
19361SOL     OW59533   8.406   5.147   7.561 -0.3314  0.0600 -0.4291
19361SOL    HW159534   8.417   5.068   7.614  0.9686  0.6211  0.1680
19361SOL    HW259535   8.491   5.160   7.520 -0.5564  1.1261 -0.5768
19362SOL     OW59536   6.234   6.622   0.620  0.0001  0.3715  0.4658
19362SOL    HW159537   6.210   6.532   0.597 -2.0889  1.3565 -1.6024
19362SOL    HW259538   6.165   6.651   0.680 -0.2194  1.0712 -0.1136
19363SOL     OW59539   1.869   0.618   3.217 -0.0863  0.1343 -0.3685
19363SOL    HW159540   1.797   0.680   3.210 -0.6081 -0.5072 -0.8609
19363SOL    HW259541   1.947   0.669   3.197 -0.5088  0.6179 -0.8122
19364SOL     OW59542   0.518   6.059   1.360  0.3215  0.5641  0.0933
19364SOL    HW159543   0.571   5.987   1.396  0.9772  1.8504  1.8108
19364SOL    HW259544   0.433   6.020   1.343  0.5875 -0.5755  1.2341
19365SOL     OW59545   3.332   2.989   1.440 -0.3571 -0.2824 -0.5291
19365SOL    HW159546   3.236   2.995   1.446 -0.3493 -1.1992  1.3570
19365SOL    HW259547   3.363   3.075   1.468 -0.6095 -0.1577 -0.6244
19366SOL     OW59548   0.979   2.569   2.591  0.3999  0.1433  0.2352
19366SOL    HW159549   0.936   2.497   2.636  1.8039 -1.2769 -0.6066
19366SOL    HW259550   1.070   2.563   2.617  0.5523  1.6145  0.1145
19367SOL     OW59551   3.219   5.551   2.642 -0.7200 -0.0416 -0.0215
19367SOL    HW159552   3.246   5.466   2.605  0.2139  0.2499 -0.0467
19367SOL    HW259553   3.186   5.600   2.567 -1.5014 -0.4654  0.0356
19368SOL     OW59554   3.647   7.242   8.232  0.2135  0.5806 -0.1027
19368SOL    HW159555   3.623   7.165   8.181  0.9986  0.2417  0.0304
19368SOL    HW259556   3.739   7.258   8.211  0.7702  0.0225  1.6992
19369SOL     OW59557   4.431   6.520   3.966  0.1804 -0.0778  0.3679
19369SOL    HW159558   4.475   6.604   3.970 -1.0671  0.5885  0.6231
19369SOL    HW259559   4.456   6.476   4.047  0.6826  0.1209  0.3236
19370SOL     OW59560   5.536   1.779   0.997 -0.0819  0.3226 -0.4684
19370SOL    HW159561   5.583   1.822   0.925  1.6927  0.8733  0.9438
19370SOL    HW259562   5.601   1.720   1.036 -0.5219  1.0853  1.5422
19371SOL     OW59563   3.031   8.008   3.772 -0.1966 -0.0078 -0.2259
19371SOL    HW159564   3.075   8.013   3.688  0.8183 -0.3764  0.2665
19371SOL    HW259565   3.061   7.926   3.810  0.2857  0.7068  0.9912
19372SOL     OW59566   6.390   5.734   5.466  0.3907 -0.0209 -0.5395
19372SOL    HW159567   6.367   5.784   5.545  0.2762  1.3612 -1.4128
19372SOL    HW259568   6.321   5.668   5.459 -2.1086  2.5122 -1.7644
19373SOL     OW59569   1.529   9.173   6.809 -0.0665  0.8162 -0.0719
19373SOL    HW159570   1.538   9.088   6.766 -0.4401 -0.5300  2.3115
19373SOL    HW259571   1.619   9.196   6.834 -0.3053 -1.1356  3.1218
19374SOL     OW59572   2.756   8.538   8.426  0.1271 -0.0452 -0.0727
19374SOL    HW159573   2.716   8.472   8.370 -0.5856 -0.2600  0.6651
19374SOL    HW259574   2.766   8.614   8.369 -1.2371 -0.0252 -0.3258
19375SOL     OW59575   3.096   0.102   9.190  0.7261  0.4630  0.2750
19375SOL    HW159576   3.074   0.146   9.272  2.3002  1.8373 -0.0021
19375SOL    HW259577   3.011   0.088   9.148 -0.0845  0.0417  1.9523
19376SOL     OW59578   7.026   2.417   3.254  0.1919 -0.5621 -0.5537
19376SOL    HW159579   6.930   2.410   3.256  0.2276 -1.5015  2.5051
19376SOL    HW259580   7.043   2.504   3.217 -1.7734 -0.6547 -1.8487
19377SOL     OW59581   1.165   1.987   2.925 -0.2618 -0.2565  0.0602
19377SOL    HW159582   1.165   1.989   3.021  0.5027  1.5315  0.0521
19377SOL    HW259583   1.145   1.896   2.903 -2.5397 -0.2927  1.8845
19378SOL     OW59584   8.049   9.272   6.998 -0.4148 -0.4268 -0.8673
19378SOL    HW159585   7.990   9.260   7.072 -3.2202 -0.8115 -2.9884
19378SOL    HW259586   8.069   9.366   6.998  0.9849 -0.6604  1.2232
19379SOL     OW59587   0.002   6.875   2.947 -0.2614  0.1967 -0.4489
19379SOL    HW159588   0.059   6.831   3.009 -0.5695  1.1981  0.5887
19379SOL    HW259589  -0.053   6.806   2.910  0.4720 -0.5215 -0.2014
19380SOL     OW59590   6.716   9.257   0.178  0.4000 -0.4931  0.2096
19380SOL    HW159591   6.780   9.297   0.236 -0.0628 -1.4017  1.3728
19380SOL    HW259592   6.769   9.207   0.115  0.8613 -1.3902  1.2703
19381SOL     OW59593   1.123   7.206   6.269  0.1283  0.1425  0.0968
19381SOL    HW159594   1.036   7.245   6.260  0.4850  1.1310  0.6896
19381SOL    HW259595   1.179   7.260   6.213  0.8293  1.2217  1.7541
19382SOL     OW59596   3.867   6.082   7.447  0.0462 -0.6230 -0.5022
19382SOL    HW159597   3.852   6.010   7.508  1.0699 -0.0835  0.4195
19382SOL    HW259598   3.961   6.102   7.455 -0.2848  1.0591 -0.4396
19383SOL     OW59599   0.755   0.404   0.917 -0.2251  0.3731 -0.4625
19383SOL    HW159600   0.736   0.373   1.005  0.4574 -0.8036 -0.7109
19383SOL    HW259601   0.698   0.354   0.860  1.2108 -0.8246 -0.9090
19384SOL     OW59602   5.484   9.139   3.076 -0.5762 -0.0647 -0.1626
19384SOL    HW159603   5.478   9.234   3.087  0.7333  0.0167  0.0020
19384SOL    HW259604   5.403   9.105   3.115 -0.7241  0.9316  0.4340
19385SOL     OW59605   0.906   0.531   1.510 -0.1324 -0.6350 -0.1100
19385SOL    HW159606   0.894   0.500   1.600  0.4023 -1.5130 -0.3207
19385SOL    HW259607   0.947   0.617   1.520  0.9770 -1.2042  0.4972
19386SOL     OW59608   5.547   8.699   6.158  0.4433  0.2873  0.3881
19386SOL    HW159609   5.599   8.770   6.196 -0.3271  0.8814  0.3571
19386SOL    HW259610   5.604   8.622   6.163  0.9816  0.7270  1.1795
19387SOL     OW59611   7.040   9.197   9.076 -0.0834 -0.0434  0.5602
19387SOL    HW159612   7.033   9.112   9.033 -0.6688  1.0879 -1.7276
19387SOL    HW259613   6.989   9.257   9.021  1.5645  2.1018  1.2120
19388SOL     OW59614   5.607   4.307   0.323  0.2513  0.2342  0.0770
19388SOL    HW159615   5.588   4.221   0.360 -0.5720 -0.3694 -1.6821
19388SOL    HW259616   5.591   4.368   0.395 -0.7363 -0.9396  0.8814
19389SOL     OW59617   5.735   3.671   2.799 -0.1325 -0.1739 -0.3217
19389SOL    HW159618   5.828   3.694   2.798 -0.6818  2.5608 -3.1444
19389SOL    HW259619   5.733   3.579   2.772  1.7425 -0.1506 -0.6611
19390SOL     OW59620   0.438   9.034   5.832  0.1268  0.1170  0.2220
19390SOL    HW159621   0.468   8.967   5.894 -0.1552  0.9585  1.2971
19390SOL    HW259622   0.362   9.073   5.875 -0.4840  0.2709 -0.9693
19391SOL     OW59623   6.239   1.407   3.888 -0.1566 -0.6503  0.2573
19391SOL    HW159624   6.325   1.446   3.901  0.2815 -1.9436  1.3658
19391SOL    HW259625   6.177   1.474   3.918  0.3106  0.9038 -1.9444
19392SOL     OW59626   7.144   3.518   8.589  0.1978  0.2582 -0.1235
19392SOL    HW159627   7.137   3.424   8.571  0.4259  0.4535 -1.2731
19392SOL    HW259628   7.133   3.560   8.504 -2.6283  1.4488  0.7211
19393SOL     OW59629   6.270   8.873   2.404 -0.1765 -0.2466  0.0804
19393SOL    HW159630   6.209   8.853   2.333  0.0950 -0.9390  0.0355
19393SOL    HW259631   6.270   8.969   2.409 -0.1597 -0.1859 -0.8911
19394SOL     OW59632   6.909   6.940   0.163 -0.3899  0.0677  0.1197
19394SOL    HW159633   6.936   6.884   0.090 -0.8866 -0.2363  0.1673
19394SOL    HW259634   6.874   7.018   0.121 -2.2917 -0.8138 -0.0475
19395SOL     OW59635   2.193   6.421   2.161 -0.0505 -0.0911  0.0854
19395SOL    HW159636   2.237   6.367   2.227 -2.2408  0.5958  2.2609
19395SOL    HW259637   2.101   6.398   2.168 -0.5630  1.3005 -1.5126
19396SOL     OW59638   7.722   1.689   0.319  0.0633  0.5963  0.6168
19396SOL    HW159639   7.667   1.670   0.243  0.3155 -0.7536  0.7445
19396SOL    HW259640   7.668   1.744   0.375 -0.6987  0.3095  0.1749
19397SOL     OW59641   7.255   2.326   1.198 -0.4339  0.6965  0.1497
19397SOL    HW159642   7.327   2.291   1.147  0.4924  0.0462  1.8290
19397SOL    HW259643   7.284   2.319   1.289 -2.5308  0.5882  0.8677
19398SOL     OW59644   8.670   3.575   7.514 -0.1173 -0.5414  0.4313
19398SOL    HW159645   8.608   3.525   7.567 -0.7418  1.2779  1.5349
19398SOL    HW259646   8.635   3.664   7.514  2.4504  0.5628  1.0479
19399SOL     OW59647   0.062   5.242   1.744  0.0714  0.1678  0.1798
19399SOL    HW159648   0.156   5.224   1.755  0.0074  0.2265  0.8719
19399SOL    HW259649   0.025   5.160   1.713  0.3672  0.1733 -0.1962
19400SOL     OW59650   8.984   7.110   0.227 -0.8982 -0.3935 -0.4920
19400SOL    HW159651   8.907   7.130   0.280  0.2947  2.5654  0.3520
19400SOL    HW259652   8.968   7.152   0.143  0.0919  1.1025  0.0110
19401SOL     OW59653   8.459   9.088   7.322 -0.0733  0.0062 -0.1029
19401SOL    HW159654   8.538   9.041   7.295 -1.1302 -0.8219 -1.9262
19401SOL    HW259655   8.407   9.096   7.242 -1.8900  0.4465  1.0637
19402SOL     OW59656   4.870   2.731   1.449  0.1918 -0.5018  0.1591
19402SOL    HW159657   4.894   2.765   1.536  0.7377 -0.6700  0.0792
19402SOL    HW259658   4.953   2.725   1.402 -0.3044  1.7023 -1.1461
19403SOL     OW59659   1.204   0.137   0.667 -0.5635 -0.6369 -0.3061
19403SOL    HW159660   1.150   0.214   0.681 -1.8188 -1.2341 -1.6334
19403SOL    HW259661   1.270   0.141   0.737 -1.1174  1.1470  0.1701
19404SOL     OW59662   2.927   2.066   5.081 -0.1120 -0.4258 -0.3323
19404SOL    HW159663   2.839   2.040   5.110 -1.5600  0.2572 -3.6172
19404SOL    HW259664   2.947   2.004   5.011  1.6555  0.0371 -0.2732
19405SOL     OW59665   6.109   2.417   9.231  0.2213 -0.3137 -0.2072
19405SOL    HW159666   6.143   2.506   9.224 -0.2024  0.2447  2.9524
19405SOL    HW259667   6.185   2.364   9.255  0.2781 -0.6085 -1.0231
19406SOL     OW59668   3.092   0.404   0.849  0.0257  0.0763 -0.1458
19406SOL    HW159669   3.018   0.442   0.896 -0.1004  0.4302 -0.6265
19406SOL    HW259670   3.081   0.310   0.860  0.4197  0.1682  1.1755
19407SOL     OW59671   1.495   8.606   5.178  0.0656  0.3460 -0.1789
19407SOL    HW159672   1.547   8.620   5.258 -1.1497 -0.5234  0.8013
19407SOL    HW259673   1.408   8.640   5.200 -0.3230 -0.0169 -1.0959
19408SOL     OW59674   1.770   3.565   6.618  0.2606  0.3427 -0.3798
19408SOL    HW159675   1.751   3.578   6.711  0.2740  1.7476 -0.5409
19408SOL    HW259676   1.686   3.578   6.574 -0.4227 -3.2132 -0.4240
19409SOL     OW59677   6.145   4.422   7.297  0.1139 -0.5676  0.5562
19409SOL    HW159678   6.077   4.375   7.249  0.0717  0.0401  0.0164
19409SOL    HW259679   6.108   4.437   7.384 -0.9107  0.7644 -0.0800
19410SOL     OW59680   2.664   4.301   4.544  0.1338 -0.1749 -0.0459
19410SOL    HW159681   2.598   4.328   4.608  0.5000  0.4845  0.0651
19410SOL    HW259682   2.733   4.367   4.552  0.3421 -0.2850 -0.8775
19411SOL     OW59683   2.498   5.723   6.880 -0.2292  0.0457  0.3378
19411SOL    HW159684   2.580   5.687   6.915 -0.4668  0.5368  1.4538
19411SOL    HW259685   2.453   5.758   6.957 -1.1638  0.4289 -0.3669
19412SOL     OW59686   0.450   7.455   4.706  0.2077  0.3488  0.3925
19412SOL    HW159687   0.383   7.442   4.773  0.0528 -1.9719 -0.1324
19412SOL    HW259688   0.419   7.532   4.657 -1.4037  0.0976  0.9439
19413SOL     OW59689   3.834   4.444   4.142  0.2757  0.0880  0.0544
19413SOL    HW159690   3.816   4.410   4.055  0.3550  0.3415 -0.0628
19413SOL    HW259691   3.779   4.522   4.149  0.9717  0.6035 -0.1259
19414SOL     OW59692   5.653   1.540   1.136 -0.4455  0.1169  0.4056
19414SOL    HW159693   5.644   1.478   1.063 -0.8237 -2.5208  2.5369
19414SOL    HW259694   5.744   1.533   1.163 -0.3052  1.0894  0.2147
19415SOL     OW59695   3.915   4.228   0.628  0.2814  0.1263 -0.2384
19415SOL    HW159696   4.005   4.222   0.660 -0.1186 -1.3571  0.6823
19415SOL    HW259697   3.909   4.162   0.559 -0.0459  0.4098 -0.4916
19416SOL     OW59698   4.927   7.818   7.178  0.3574  0.4406 -0.0836
19416SOL    HW159699   4.945   7.895   7.231  1.3378 -0.3496  0.8006
19416SOL    HW259700   4.877   7.850   7.103  1.2980  2.0299 -0.0768
19417SOL     OW59701   6.735   0.976   6.028  0.3330  0.1560 -0.6395
19417SOL    HW159702   6.778   1.013   5.951 -0.4107 -3.2195 -2.9239
19417SOL    HW259703   6.742   0.881   6.015 -0.4126 -0.5616  3.1955
19418SOL     OW59704   3.566   1.891   0.247  0.0804 -0.3797 -0.2109
19418SOL    HW159705   3.542   1.850   0.164 -2.1220  0.7266 -0.1871
19418SOL    HW259706   3.540   1.827   0.314  0.3888 -0.6108 -0.3105
19419SOL     OW59707   7.958   2.695   2.397  0.2178  0.1214 -0.3803
19419SOL    HW159708   7.963   2.606   2.433 -0.4494  0.3844  0.3954
19419SOL    HW259709   7.897   2.688   2.324  0.3148 -0.0968 -0.4394
19420SOL     OW59710   1.874   9.088   2.639  0.2332 -0.6295  0.3485
19420SOL    HW159711   1.838   9.173   2.664 -2.1924 -1.9985  1.8781
19420SOL    HW259712   1.962   9.088   2.679  1.4289  2.0891 -1.9412
19421SOL     OW59713   8.687   7.469   4.391  0.2452  0.8011 -0.3431
19421SOL    HW159714   8.654   7.531   4.456 -0.9628  1.0340 -1.1487
19421SOL    HW259715   8.768   7.510   4.359 -0.1573  1.6341 -0.3425
19422SOL     OW59716   5.314   7.279   9.208 -0.6529  0.0851  0.1948
19422SOL    HW159717   5.383   7.245   9.151 -0.7994 -1.3030  0.8252
19422SOL    HW259718   5.241   7.219   9.196 -1.1747  0.5890  0.7890
19423SOL     OW59719   1.315   4.753   1.541 -0.2400  0.3198 -0.1904
19423SOL    HW159720   1.224   4.765   1.516 -0.7443  1.4793  1.9645
19423SOL    HW259721   1.355   4.839   1.530  0.6861 -0.2266 -1.3219
19424SOL     OW59722   6.592   5.664   3.996 -0.2503  0.0976 -0.6017
19424SOL    HW159723   6.502   5.673   3.967 -0.5368 -0.6289  0.0323
19424SOL    HW259724   6.638   5.627   3.921 -0.7904 -0.8961 -0.4613
19425SOL     OW59725   8.551   0.287   4.817 -0.1431 -0.5947 -0.1951
19425SOL    HW159726   8.481   0.319   4.759 -1.0644  1.0936  1.7365
19425SOL    HW259727   8.506   0.231   4.880 -0.1220  1.8197  2.0799
19426SOL     OW59728   6.825   5.212   7.940 -0.0785  0.0317 -0.1982
19426SOL    HW159729   6.913   5.185   7.965  0.0987 -0.0394 -0.8881
19426SOL    HW259730   6.784   5.239   8.023  0.3817 -0.5094  0.2168
19427SOL     OW59731   1.352   8.380   5.839 -0.2560 -0.3461  0.0586
19427SOL    HW159732   1.352   8.467   5.799  0.4070 -0.5702 -0.4567
19427SOL    HW259733   1.404   8.391   5.919  0.9385 -0.5223 -0.6532
19428SOL     OW59734   0.246   9.150   7.540 -0.0170 -1.0045  0.0609
19428SOL    HW159735   0.188   9.180   7.470 -0.0012 -0.9654  0.0648
19428SOL    HW259736   0.334   9.173   7.510 -0.0588 -0.4248  0.3811
19429SOL     OW59737   4.382   3.799   1.867  0.0190 -0.1567 -0.1195
19429SOL    HW159738   4.467   3.834   1.893  0.8168 -1.4317 -0.8993
19429SOL    HW259739   4.331   3.876   1.841  0.5157  0.7444  1.4601
19430SOL     OW59740   4.039   6.254   5.661  0.1460  0.4637  0.0853
19430SOL    HW159741   4.103   6.246   5.589 -0.1013  1.0846 -0.2101
19430SOL    HW259742   4.002   6.166   5.670  0.8359  0.1621  0.0672
19431SOL     OW59743   8.262   4.717   2.891 -0.4096  0.3528 -0.3471
19431SOL    HW159744   8.272   4.626   2.861 -0.0938  0.4152 -0.4425
19431SOL    HW259745   8.344   4.759   2.865 -0.5561  0.6651 -0.3011
19432SOL     OW59746   7.471   0.947   8.283  0.0743  0.5508 -0.2050
19432SOL    HW159747   7.548   0.990   8.319  0.1669  0.3832 -0.2013
19432SOL    HW259748   7.409   1.018   8.267 -0.4054  0.5178  1.3377
19433SOL     OW59749   7.852   0.680   1.883 -0.0051  0.6789  0.3951
19433SOL    HW159750   7.829   0.674   1.976 -0.7166  1.1177  0.2556
19433SOL    HW259751   7.943   0.652   1.879  0.7078  2.6469  1.5253
19434SOL     OW59752   2.197   4.402   4.839  0.0479 -0.1602 -0.0192
19434SOL    HW159753   2.157   4.317   4.856  0.3455 -0.3541 -0.2783
19434SOL    HW259754   2.135   4.466   4.876 -0.8310 -0.4206 -0.9870
19435SOL     OW59755   1.214   5.345   6.642  0.4762  0.0345 -0.1733
19435SOL    HW159756   1.135   5.323   6.593  0.4431  1.2346 -0.7084
19435SOL    HW259757   1.273   5.270   6.629  0.2849  0.1024 -1.6681
19436SOL     OW59758   4.115   5.648   0.981 -0.2697  0.2954  0.2218
19436SOL    HW159759   4.197   5.632   1.029 -1.0041 -0.2562  1.3356
19436SOL    HW259760   4.125   5.737   0.946  1.5327 -0.4253 -1.2059
19437SOL     OW59761   6.505   1.507   3.873  0.2271  0.1465 -0.1951
19437SOL    HW159762   6.465   1.592   3.887  0.9538  0.1566  2.2131
19437SOL    HW259763   6.592   1.514   3.913  1.1335 -1.1154 -1.7797
19438SOL     OW59764   5.214   2.963   4.837 -0.2415  0.3249  0.3293
19438SOL    HW159765   5.290   2.918   4.800  0.7786  1.8459  0.5251
19438SOL    HW259766   5.174   2.897   4.894 -0.5967 -1.3506 -1.6956
19439SOL     OW59767   7.441   2.860   0.593  0.1230  0.0954 -0.3340
19439SOL    HW159768   7.493   2.861   0.672  2.4407 -3.0780 -1.6372
19439SOL    HW259769   7.494   2.908   0.529 -0.7596  0.8288 -0.5390
19440SOL     OW59770   0.885   3.950   9.103  0.4392  0.2408 -0.0063
19440SOL    HW159771   0.928   3.865   9.096  1.8642  0.8945  0.5410
19440SOL    HW259772   0.955   4.014   9.093 -0.9623  1.4879 -3.2005
19441SOL     OW59773   9.115   2.700   4.433  0.0368 -0.5016  0.3290
19441SOL    HW159774   9.053   2.726   4.501 -0.7232  0.3801 -0.6563
19441SOL    HW259775   9.197   2.742   4.457 -0.2009 -0.2809  0.7569
19442SOL     OW59776   1.791   5.189   0.235 -0.1950 -0.2495 -0.2503
19442SOL    HW159777   1.785   5.118   0.299 -0.2372  1.5991  1.9312
19442SOL    HW259778   1.803   5.145   0.151  1.5892 -2.7857  1.1923
19443SOL     OW59779   2.604   7.090   4.311  0.0457 -0.2594  0.7572
19443SOL    HW159780   2.632   7.115   4.223  0.2093 -0.6640  0.6910
19443SOL    HW259781   2.509   7.080   4.304  0.0707 -0.3875  0.6006
19444SOL     OW59782   2.094   1.962   0.081  0.0292  0.2498 -0.0847
19444SOL    HW159783   2.140   1.902   0.139 -0.6945  2.8267  3.5065
19444SOL    HW259784   2.140   1.954  -0.003  2.2753 -2.4984  1.2232
19445SOL     OW59785   2.615   1.125   8.616 -0.2908  0.0041  0.8200
19445SOL    HW159786   2.665   1.143   8.536  0.5787 -0.4703  1.2368
19445SOL    HW259787   2.601   1.031   8.615 -0.4117  0.0175  1.1485
19446SOL     OW59788   4.314   5.018   2.673  0.4361  0.0506 -0.1119
19446SOL    HW159789   4.308   5.063   2.589  1.7897  1.2880  0.4067
19446SOL    HW259790   4.276   5.080   2.736 -0.5739 -0.8640  0.2170
19447SOL     OW59791   8.581   4.187   1.342  0.0113 -0.0623 -0.5475
19447SOL    HW159792   8.563   4.099   1.309 -2.0270  0.5769 -1.2823
19447SOL    HW259793   8.495   4.228   1.350  0.9447  2.1065 -0.8991
19448SOL     OW59794   6.146   1.279   2.049 -0.1826 -0.0626 -0.6419
19448SOL    HW159795   6.075   1.270   2.113  0.3506  1.0015  0.1339
19448SOL    HW259796   6.223   1.244   2.094  0.0916  0.1969 -0.9067
19449SOL     OW59797   0.602   3.994   5.547 -0.7186 -0.1448  0.1872
19449SOL    HW159798   0.562   3.913   5.578 -0.9487 -0.1018  0.0084
19449SOL    HW259799   0.555   4.014   5.466 -0.3944 -0.0447  0.0234
19450SOL     OW59800   9.199   8.096   1.049 -0.4945  0.0547 -0.5285
19450SOL    HW159801   9.262   8.029   1.021 -0.9076  0.0308 -1.4482
19450SOL    HW259802   9.127   8.047   1.088  0.9012  0.1644  2.4284
19451SOL     OW59803   2.427   6.466   0.373  0.0184  0.2886  0.2547
19451SOL    HW159804   2.474   6.410   0.434  1.3704  1.0490 -0.0588
19451SOL    HW259805   2.338   6.432   0.374  0.6171 -1.3638  0.6684
19452SOL     OW59806   3.423   4.798   0.319 -0.2017 -0.0376  0.6203
19452SOL    HW159807   3.342   4.748   0.310  0.5675 -1.1344 -0.8800
19452SOL    HW259808   3.440   4.831   0.230  0.8230  0.4338  0.9785
19453SOL     OW59809   5.941   0.154   8.861  0.1130 -0.1655  0.1130
19453SOL    HW159810   5.866   0.103   8.890  0.8289 -1.9335 -0.9616
19453SOL    HW259811   6.004   0.147   8.933  0.9035 -2.4173 -0.6964
19454SOL     OW59812   3.244   4.526   0.696 -0.1420  0.0746 -0.0374
19454SOL    HW159813   3.233   4.431   0.701 -1.0999  0.1972  0.4125
19454SOL    HW259814   3.278   4.551   0.782  1.8169 -0.0495 -0.7354
19455SOL     OW59815   3.335   3.426   8.236 -0.4639 -0.2441  0.3106
19455SOL    HW159816   3.418   3.378   8.228  0.0315  0.5392  0.6409
19455SOL    HW259817   3.333   3.483   8.159 -0.3877  0.1968  0.6322
19456SOL     OW59818   4.508   2.794   0.763  0.2920  0.4084  0.3868
19456SOL    HW159819   4.416   2.799   0.786  0.2610 -0.6344  0.5725
19456SOL    HW259820   4.550   2.757   0.841  0.8063  0.5171  0.1683
19457SOL     OW59821   5.922   2.627   5.520  0.0687  0.5885 -0.5244
19457SOL    HW159822   5.937   2.720   5.532  0.6285  0.3437  0.9269
19457SOL    HW259823   5.846   2.608   5.576  0.8324 -0.0638  0.3246
19458SOL     OW59824   8.704   4.891   4.360 -0.6386 -0.2291 -0.5097
19458SOL    HW159825   8.728   4.942   4.283 -2.0474  0.8836 -0.2605
19458SOL    HW259826   8.743   4.938   4.433 -3.2009  1.5022 -0.1190
19459SOL     OW59827   2.729   3.643   1.830 -0.1147  0.2033 -0.0217
19459SOL    HW159828   2.729   3.635   1.925 -1.2258 -2.0308 -0.1466
19459SOL    HW259829   2.816   3.677   1.808  0.7435 -0.7857  1.6955
19460SOL     OW59830   2.237   8.845   4.591  0.0955  0.2494 -0.0427
19460SOL    HW159831   2.179   8.779   4.628 -0.5079  1.6076  1.6067
19460SOL    HW259832   2.291   8.798   4.528 -0.1236 -1.8565  1.2388
19461SOL     OW59833   7.140   2.624   4.532  0.9389  0.0767  0.2193
19461SOL    HW159834   7.121   2.531   4.538  0.5195  0.1777  0.4769
19461SOL    HW259835   7.182   2.647   4.615 -0.2280  0.4011  0.7435
19462SOL     OW59836   3.387   7.983   3.759  0.6980 -0.3283  0.8559
19462SOL    HW159837   3.381   7.996   3.664  0.4394  0.7841  1.0117
19462SOL    HW259838   3.474   7.947   3.774  0.6950 -0.6191  0.1869
19463SOL     OW59839   8.955   6.667   3.681 -0.2206  0.4545 -0.0458
19463SOL    HW159840   8.961   6.595   3.744 -0.1765  0.7075  0.2383
19463SOL    HW259841   8.865   6.699   3.690  0.1953  1.4269  0.9252
19464SOL     OW59842   8.430   5.529   8.893  0.4625  0.0552 -0.0298
19464SOL    HW159843   8.378   5.471   8.949  0.3045  1.4455  1.3152
19464SOL    HW259844   8.508   5.548   8.945  0.3389  1.3354 -0.2977
19465SOL     OW59845   3.531   2.711   1.948 -0.3588 -0.0739  0.1908
19465SOL    HW159846   3.548   2.629   1.994 -0.4277 -0.9885 -1.3488
19465SOL    HW259847   3.598   2.771   1.981  0.7133 -1.2188  0.1883
19466SOL     OW59848   1.175   7.461   1.695 -0.4336 -0.2074  0.7722
19466SOL    HW159849   1.160   7.466   1.790 -0.0759  0.6675  0.7981
19466SOL    HW259850   1.160   7.551   1.664  1.9086  0.1386  0.3948
19467SOL     OW59851   5.236   1.709   5.675  0.0692 -0.2152  0.2888
19467SOL    HW159852   5.157   1.755   5.704 -1.2098 -2.0303 -0.1823
19467SOL    HW259853   5.235   1.717   5.580  0.3567 -0.4179  0.2674
19468SOL     OW59854   3.704   0.295   5.066 -0.4050 -0.4271 -0.5687
19468SOL    HW159855   3.739   0.211   5.097  1.1527  1.3514  3.0250
19468SOL    HW259856   3.759   0.318   4.991  1.4936 -0.9818  0.6131
19469SOL     OW59857   0.019   3.697   0.708  0.0799 -0.4157  0.0465
19469SOL    HW159858  -0.053   3.666   0.654 -0.9521  0.6982  0.7297
19469SOL    HW259859   0.082   3.732   0.645 -1.9569  2.6648 -0.4949
19470SOL     OW59860   1.656   3.428   5.252  0.5209  0.0476 -0.4338
19470SOL    HW159861   1.717   3.379   5.306  0.6129  1.5476  0.8806
19470SOL    HW259862   1.709   3.460   5.179  0.5494 -1.3734 -1.0834
19471SOL     OW59863   5.987   1.235   3.844 -0.2024 -0.7849 -0.2529
19471SOL    HW159864   5.932   1.302   3.805  0.4738  0.3985  0.7419
19471SOL    HW259865   6.061   1.283   3.882  1.2680 -2.2509 -1.0758
19472SOL     OW59866   4.067   0.185   0.813 -0.2517 -0.1874 -0.1405
19472SOL    HW159867   4.037   0.276   0.809 -0.6491 -0.3454 -0.7226
19472SOL    HW259868   4.098   0.165   0.725  0.9054 -0.2636  0.2552
19473SOL     OW59869   0.279   2.920   0.610  0.6600 -0.4353  1.1248
19473SOL    HW159870   0.327   2.976   0.671 -0.6992  1.5089  0.4899
19473SOL    HW259871   0.306   2.951   0.523 -0.9065 -0.0217  0.7632
19474SOL     OW59872   6.377   1.776   1.935  0.0726  0.3486  0.7883
19474SOL    HW159873   6.423   1.745   2.013  0.7115  1.0212  0.6916
19474SOL    HW259874   6.406   1.717   1.865 -1.2534 -0.8747  1.2200
19475SOL     OW59875   3.628   1.889   2.362  0.1769  0.4883 -0.6045
19475SOL    HW159876   3.579   1.971   2.350 -0.1529  0.4537  0.3816
19475SOL    HW259877   3.566   1.821   2.335 -0.4858  0.4232  0.9432
19476SOL     OW59878   4.813   3.115   7.704  0.4627  0.4587 -0.2535
19476SOL    HW159879   4.760   3.080   7.633  1.3842  0.5009 -0.9929
19476SOL    HW259880   4.815   3.045   7.769 -0.3196  0.3844 -0.2996
19477SOL     OW59881   0.764   3.232   1.150  0.3035 -0.2491  0.2478
19477SOL    HW159882   0.846   3.245   1.197  0.1687 -1.4451  0.8679
19477SOL    HW259883   0.704   3.198   1.216 -0.5674  0.1982 -0.2986
19478SOL     OW59884   3.316   7.506   3.761  0.4485 -0.2980  0.0366
19478SOL    HW159885   3.394   7.485   3.709  0.3924 -1.0411  0.2391
19478SOL    HW259886   3.319   7.445   3.835 -0.0893 -0.0371  0.2775
19479SOL     OW59887   3.266   8.364   5.654  0.0445 -0.3388  0.1194
19479SOL    HW159888   3.310   8.284   5.626 -0.7613 -0.4692 -0.8256
19479SOL    HW259889   3.205   8.335   5.723  0.5245 -0.3606  0.5365
19480SOL     OW59890   6.768   3.327   1.691  0.5218 -0.0416  0.2803
19480SOL    HW159891   6.774   3.396   1.625 -2.5027 -0.4921 -0.6349
19480SOL    HW259892   6.747   3.373   1.772  1.0830  0.2976  0.2356
19481SOL     OW59893   0.354   3.844   8.992  0.1309  0.0538  0.0181
19481SOL    HW159894   0.436   3.810   9.030  0.1470 -1.0488 -0.9263
19481SOL    HW259895   0.285   3.806   9.047  0.1834 -0.9109 -0.5546
19482SOL     OW59896   2.403   7.451   1.816 -0.1853  0.0083 -0.0910
19482SOL    HW159897   2.356   7.378   1.777  0.2032 -0.2209 -0.1315
19482SOL    HW259898   2.383   7.526   1.760 -0.7112 -0.0261  0.0397
19483SOL     OW59899   2.254   1.655   8.119 -0.5240  0.4209  0.4958
19483SOL    HW159900   2.310   1.586   8.153  0.9052 -0.1561 -2.6099
19483SOL    HW259901   2.195   1.610   8.058 -0.1903  1.7741 -0.8890
19484SOL     OW59902   8.212   8.123   6.017  0.1219 -0.4541 -0.3286
19484SOL    HW159903   8.146   8.085   6.075 -0.2321  0.6713  0.0221
19484SOL    HW259904   8.280   8.056   6.012  0.0661 -0.6777  1.2289
19485SOL     OW59905   0.825   8.384   5.911  0.4093 -0.2658 -0.4582
19485SOL    HW159906   0.762   8.426   5.852  1.0035  0.8448 -0.3350
19485SOL    HW259907   0.789   8.297   5.927 -1.2555  0.4391 -0.1623
19486SOL     OW59908   5.975   6.760   0.739 -0.3769 -0.6880  0.1503
19486SOL    HW159909   5.911   6.735   0.806  0.4410 -0.2826  1.1192
19486SOL    HW259910   5.994   6.852   0.758 -0.1883 -0.5508 -0.6966
19487SOL     OW59911   1.378   6.932   5.350 -0.2807  0.2275  0.0771
19487SOL    HW159912   1.406   6.860   5.406 -0.4913 -0.4701 -0.7128
19487SOL    HW259913   1.309   6.895   5.295 -0.6641  1.1317 -0.0710
19488SOL     OW59914   4.961   1.469   5.073 -0.4414 -0.4424  0.2780
19488SOL    HW159915   4.950   1.456   4.979 -0.7258 -0.7667  0.3516
19488SOL    HW259916   4.931   1.386   5.112 -0.7152 -0.1590  0.6770
19489SOL     OW59917   0.786   8.774   6.494  0.0796  0.3531  0.1228
19489SOL    HW159918   0.703   8.815   6.467 -0.2181 -0.2576  0.0922
19489SOL    HW259919   0.854   8.834   6.464 -0.2920  0.1650 -1.1313
19490SOL     OW59920   0.306   4.444   2.658  0.1670 -0.0341  0.3152
19490SOL    HW159921   0.248   4.380   2.617  0.8655 -0.1930 -0.4431
19490SOL    HW259922   0.248   4.517   2.680 -0.5616 -0.7304  0.7965
19491SOL     OW59923   2.944   1.415   1.251  0.1675  0.1584 -0.1619
19491SOL    HW159924   2.958   1.507   1.275  0.9117 -0.1062  0.4530
19491SOL    HW259925   2.860   1.415   1.204 -1.4857  0.7055  2.5680
19492SOL     OW59926   2.295   2.213   4.343  0.0920  0.0684  0.1180
19492SOL    HW159927   2.201   2.205   4.326  0.0535  0.4316  0.1666
19492SOL    HW259928   2.325   2.122   4.353 -0.1829 -0.0646 -0.2728
19493SOL     OW59929   2.238   4.616   1.813 -0.4057  0.0955  0.3484
19493SOL    HW159930   2.227   4.685   1.748  1.3017 -0.3256 -0.4630
19493SOL    HW259931   2.191   4.541   1.776  0.4510 -0.1049 -0.3958
19494SOL     OW59932   9.160   8.673   2.235 -0.2306 -0.3053  0.0895
19494SOL    HW159933   9.238   8.623   2.211  1.1816  2.2345 -1.0161
19494SOL    HW259934   9.152   8.740   2.166 -1.9053  1.0822  1.5279
19495SOL     OW59935   6.448   4.020   2.959  0.3094 -0.3266 -0.1736
19495SOL    HW159936   6.432   4.094   2.902  0.9993  0.3665  0.5069
19495SOL    HW259937   6.400   4.040   3.040  1.0771 -0.2643  0.2805
19496SOL     OW59938   0.298   6.621   5.206  0.1598 -0.8977  0.2154
19496SOL    HW159939   0.352   6.621   5.285  1.2470  0.2528 -0.4974
19496SOL    HW259940   0.336   6.689   5.151 -1.9313 -0.1333 -0.3841
19497SOL     OW59941   1.992   8.212   3.333 -0.2579 -0.2605  0.1337
19497SOL    HW159942   1.948   8.273   3.274  1.3634 -0.3135 -1.1893
19497SOL    HW259943   2.036   8.150   3.276  2.7828  0.6780  1.2753
19498SOL     OW59944   3.957   8.961   1.231  0.4701 -0.2412 -0.0047
19498SOL    HW159945   3.986   8.898   1.165 -0.9271  0.2063 -1.1150
19498SOL    HW259946   4.024   8.958   1.300  1.2060 -1.8049 -0.7489
19499SOL     OW59947   7.665   8.189   8.839  0.0226 -0.1338 -0.4224
19499SOL    HW159948   7.617   8.264   8.802 -0.7635 -0.0811  0.6433
19499SOL    HW259949   7.741   8.228   8.881 -0.4349  0.1007  0.2114
19500SOL     OW59950   8.876   2.617   5.331  0.2621  0.0465 -0.1876
19500SOL    HW159951   8.891   2.711   5.321 -0.3180  0.1128 -0.5017
19500SOL    HW259952   8.783   2.610   5.353  0.7088 -0.3430  1.7101
19501SOL     OW59953   0.058   2.646   4.567  0.3108  0.1357  0.4930
19501SOL    HW159954   0.147   2.646   4.602  0.9842 -2.0927 -1.0646
19501SOL    HW259955   0.057   2.578   4.500 -2.9197 -0.8594  1.3438
19502SOL     OW59956   7.311   5.737   2.254  0.0157 -0.1999 -0.2388
19502SOL    HW159957   7.228   5.690   2.261  0.7801 -1.6164 -0.2921
19502SOL    HW259958   7.338   5.752   2.345 -0.4023  0.4833 -0.2198
19503SOL     OW59959   2.579   7.601   4.885  0.2953 -0.1180  0.0084
19503SOL    HW159960   2.668   7.591   4.853 -0.6204 -0.9654 -2.4979
19503SOL    HW259961   2.574   7.693   4.913  1.5005  0.3918 -1.3371
19504SOL     OW59962   6.024   3.441   1.778  0.6692  0.1614  0.3384
19504SOL    HW159963   6.108   3.415   1.816  0.7106  0.8664  0.7433
19504SOL    HW259964   6.022   3.536   1.787 -0.3542  0.1167  0.7090
19505SOL     OW59965   5.538   4.875   1.218 -0.1617 -0.2911  0.0324
19505SOL    HW159966   5.445   4.891   1.231 -0.6996 -1.4340 -1.9884
19505SOL    HW259967   5.563   4.935   1.148  0.9389  0.7873  1.2828
19506SOL     OW59968   3.755   0.180   7.991  0.1584  0.5035 -0.1937
19506SOL    HW159969   3.672   0.133   7.999  0.0035  1.0409  2.1235
19506SOL    HW259970   3.737   0.252   7.932 -1.4362  1.3362  1.2197
19507SOL     OW59971   2.214   6.785   1.812 -0.1127  0.9582  0.7985
19507SOL    HW159972   2.174   6.727   1.746  2.5504 -0.4441  0.2685
19507SOL    HW259973   2.223   6.729   1.889  0.1386  1.4751  1.1399
19508SOL     OW59974   3.795   3.316   0.262  0.4695  0.2753 -0.1459
19508SOL    HW159975   3.757   3.234   0.294  2.0402 -0.0867  0.9117
19508SOL    HW259976   3.737   3.384   0.296  0.4872 -0.2816  1.0663
19509SOL     OW59977   0.785   0.528   5.220 -0.6008  0.0407  0.3865
19509SOL    HW159978   0.817   0.453   5.170  0.6612 -0.6917  2.2035
19509SOL    HW259979   0.690   0.513   5.228 -0.8937  0.3293 -1.9383
19510SOL     OW59980   8.670   1.197   3.982 -0.0202 -0.5009 -0.3721
19510SOL    HW159981   8.751   1.237   3.952 -0.8214  0.1006 -1.8075
19510SOL    HW259982   8.610   1.270   3.996 -0.2313 -0.9048  1.0618
19511SOL     OW59983   5.462   0.009   7.639 -0.3085 -0.1687 -0.2614
19511SOL    HW159984   5.527   0.074   7.611 -0.9115 -0.3509 -2.2842
19511SOL    HW259985   5.479  -0.003   7.732  0.7457  1.8227 -0.1272
19512SOL     OW59986   7.089   1.869   3.563  0.1019  0.2151  0.1968
19512SOL    HW159987   7.016   1.899   3.616 -0.1216  1.5290 -0.7964
19512SOL    HW259988   7.158   1.847   3.626 -1.1620 -1.1657  1.1431
19513SOL     OW59989   9.169   0.521   5.619  0.1332  0.0348  0.6746
19513SOL    HW159990   9.172   0.426   5.616  1.2324  0.0734 -0.1089
19513SOL    HW259991   9.116   0.541   5.696  0.1269 -1.2048  1.0100
19514SOL     OW59992   4.799   5.336   0.805  0.5457 -0.2115 -0.0619
19514SOL    HW159993   4.725   5.373   0.854  0.5116 -1.4489  0.8548
19514SOL    HW259994   4.848   5.412   0.775 -0.8547  0.6299 -0.3174
19515SOL     OW59995   6.380   4.275   0.548 -0.2423  0.1921 -0.1043
19515SOL    HW159996   6.425   4.238   0.472  0.3132  0.2901  0.1738
19515SOL    HW259997   6.337   4.354   0.514  0.6145  0.6512 -0.1722
19516SOL     OW59998   0.966   2.727   2.925  0.7571 -0.4763  0.1856
19516SOL    HW159999   0.900   2.789   2.894  0.4992 -0.9606 -0.2656
19516SOL    HW260000   0.972   2.742   3.019  0.7796  0.3008  0.0653
19517SOL     OW60001   5.089   1.539   0.089  0.7537  0.6192  0.0232
19517SOL    HW160002   5.171   1.525   0.041 -0.0751  0.2363 -1.3356
19517SOL    HW260003   5.042   1.456   0.082 -0.4734  1.3369 -0.6878
19518SOL     OW60004   0.815   7.212   7.893  0.6495 -0.2702  0.2127
19518SOL    HW160005   0.821   7.230   7.987  0.9033  1.7013 -0.1450
19518SOL    HW260006   0.905   7.221   7.861  0.2912  0.9288 -0.5095
19519SOL     OW60007   7.250   0.815   3.943  0.1027  0.1346  0.1287
19519SOL    HW160008   7.192   0.766   4.001 -0.0201 -0.1824 -0.2555
19519SOL    HW260009   7.284   0.887   3.997  1.1583 -1.0105  1.0277
19520SOL     OW60010   6.068   5.160   0.755 -0.2613 -0.7508  0.1903
19520SOL    HW160011   5.995   5.106   0.724  0.6466 -1.7982 -0.1698
19520SOL    HW260012   6.031   5.211   0.827 -1.9701  0.4508 -1.4047
19521SOL     OW60013   7.185   0.494   0.541 -0.0729  0.4128 -0.0044
19521SOL    HW160014   7.238   0.565   0.577 -1.0478  0.9866  0.3322
19521SOL    HW260015   7.249   0.425   0.521  1.1721  2.0641 -2.2051
19522SOL     OW60016   6.137   4.107   8.872  0.0060 -0.2968  0.1483
19522SOL    HW160017   6.076   4.170   8.910  1.4524  0.6922  0.9230
19522SOL    HW260018   6.159   4.049   8.945  0.2155 -0.4636 -0.0464
19523SOL     OW60019   6.539   6.492   1.139 -0.1625  0.4272  0.1441
19523SOL    HW160020   6.549   6.470   1.047  1.2507  0.8944  0.1577
19523SOL    HW260021   6.491   6.575   1.139 -0.1827  0.4154 -0.1733
19524SOL     OW60022   3.064   5.715   6.062 -0.2366 -0.1475  0.3360
19524SOL    HW160023   3.082   5.672   6.146  0.2576  1.3420  1.0273
19524SOL    HW260024   2.997   5.660   6.021 -2.3207  0.3886  2.7924
19525SOL     OW60025   4.487   5.400   6.294 -0.4769  0.2494  0.0938
19525SOL    HW160026   4.568   5.354   6.273 -0.7446 -0.9655  1.5493
19525SOL    HW260027   4.445   5.415   6.209  1.1401  0.7026 -0.6618
19526SOL     OW60028   6.770   5.728   4.396  0.3426 -0.7568 -0.4462
19526SOL    HW160029   6.793   5.638   4.374 -0.6631 -0.9220 -0.8815
19526SOL    HW260030   6.735   5.764   4.315  2.8866  0.7907 -0.9610
19527SOL     OW60031   7.567   3.223   8.072  0.2698  0.3636  0.7354
19527SOL    HW160032   7.614   3.140   8.085 -0.5576 -0.6376 -2.0815
19527SOL    HW260033   7.501   3.224   8.142  1.9355 -0.0354  2.4083
19528SOL     OW60034   0.456   6.548   8.809 -0.6206 -0.4707 -0.1216
19528SOL    HW160035   0.362   6.538   8.825 -0.5629 -1.5855 -0.3693
19528SOL    HW260036   0.466   6.532   8.715 -0.3080  0.7670 -0.3204
19529SOL     OW60037   6.491   9.092   5.703  0.4420 -0.0615  0.0386
19529SOL    HW160038   6.410   9.114   5.657  0.1849  0.1316  0.5792
19529SOL    HW260039   6.514   9.004   5.672 -0.5535 -0.5670  0.6787
19530SOL     OW60040   7.353   6.874   1.050  0.4202 -0.3375  0.2463
19530SOL    HW160041   7.350   6.947   1.112  0.7814 -1.5463  1.7556
19530SOL    HW260042   7.397   6.910   0.973 -0.2690  1.2836  0.5645
19531SOL     OW60043   3.512   3.063   2.267 -0.7589  0.6235 -0.1965
19531SOL    HW160044   3.527   3.155   2.245 -2.4080  1.3990  1.6160
19531SOL    HW260045   3.447   3.034   2.203 -1.1342  1.1057 -0.0487
19532SOL     OW60046   3.776   6.793   3.461 -0.1612  0.4886  0.3148
19532SOL    HW160047   3.862   6.785   3.419 -0.4282 -1.4693  0.0614
19532SOL    HW260048   3.793   6.844   3.540  0.4704  3.7587 -1.7234
19533SOL     OW60049   5.173   5.353   0.117 -0.0962  0.5289 -0.1425
19533SOL    HW160050   5.095   5.311   0.155 -0.6121  1.2737 -0.3470
19533SOL    HW260051   5.171   5.327   0.025  1.5890 -1.9230  0.4305
19534SOL     OW60052   5.679   3.459   8.649 -0.6883 -0.1147 -0.0349
19534SOL    HW160053   5.729   3.476   8.569 -0.5547  0.3309  0.1434
19534SOL    HW260054   5.633   3.376   8.631  0.1799 -0.5766 -0.1616
19535SOL     OW60055   5.968   2.268   2.694  0.0030  0.2651  0.0534
19535SOL    HW160056   5.917   2.343   2.725  0.2714  0.7491 -0.6290
19535SOL    HW260057   5.918   2.192   2.722 -1.5881  0.7250 -1.3535
19536SOL     OW60058   1.219   8.342   9.045  0.2372  0.4650 -0.8111
19536SOL    HW160059   1.234   8.419   8.991  3.1203  1.2786  0.9107
19536SOL    HW260060   1.298   8.289   9.034  1.1573  0.8572  2.7159
19537SOL     OW60061   9.096   0.435   7.247 -0.2912 -0.6192 -0.1232
19537SOL    HW160062   9.002   0.422   7.231 -0.5533 -1.1631  1.6804
19537SOL    HW260063   9.108   0.530   7.240 -1.0394 -0.5123 -0.0631
19538SOL     OW60064   4.455   7.133   5.207 -0.3703  0.2855  0.4410
19538SOL    HW160065   4.418   7.104   5.124  1.8727  0.6389 -0.7740
19538SOL    HW260066   4.439   7.060   5.267 -1.9367 -0.0231 -0.3123
19539SOL     OW60067   1.129   3.121   0.458  0.0957  0.1883 -0.2009
19539SOL    HW160068   1.184   3.081   0.391 -0.5010  0.0801 -0.6391
19539SOL    HW260069   1.041   3.121   0.419 -0.8661 -2.5871  1.7194
19540SOL     OW60070   2.729   8.519   1.835  0.0958 -0.3190  0.5340
19540SOL    HW160071   2.745   8.427   1.815  1.3890 -0.0100  0.0516
19540SOL    HW260072   2.677   8.551   1.761 -0.4106 -0.6727  0.7340
19541SOL     OW60073   5.066   6.398   4.348 -0.2934 -0.0271 -0.2682
19541SOL    HW160074   5.105   6.406   4.261  0.9607  0.2543  0.3009
19541SOL    HW260075   5.092   6.310   4.377 -0.5409 -0.0440 -0.1021
19542SOL     OW60076   0.503   2.116   3.372  0.1012  0.0985  0.0581
19542SOL    HW160077   0.461   2.097   3.456  2.1388  1.9788  1.6153
19542SOL    HW260078   0.514   2.211   3.372  0.6630  0.0693 -2.1023
19543SOL     OW60079   3.846   8.879   3.485  0.6626 -0.3565 -0.5153
19543SOL    HW160080   3.752   8.874   3.502  0.6314  0.7026 -0.3239
19543SOL    HW260081   3.884   8.811   3.541  0.1272  0.0560  0.3684
19544SOL     OW60082   7.277   2.432   3.129  0.3015 -0.5879 -0.5853
19544SOL    HW160083   7.227   2.391   3.199 -0.2659  2.0842  0.7233
19544SOL    HW260084   7.346   2.480   3.174  1.6405 -1.0084 -2.1023
19545SOL     OW60085   2.492   8.195   0.508  0.0668 -0.0751 -0.0148
19545SOL    HW160086   2.585   8.206   0.525  0.1105  1.7967 -1.1863
19545SOL    HW260087   2.455   8.171   0.593  1.3343  1.2740  0.9763
19546SOL     OW60088   2.485   1.328   7.342 -0.4002  0.0423  0.7910
19546SOL    HW160089   2.456   1.391   7.408  2.5235  0.8286  1.4751
19546SOL    HW260090   2.575   1.353   7.323 -0.6545 -1.0137 -2.5542
19547SOL     OW60091   3.351   8.076   5.648 -0.0818  0.0700  0.0180
19547SOL    HW160092   3.408   8.106   5.719 -0.9498  1.7637  0.0604
19547SOL    HW260093   3.270   8.049   5.691 -0.7662  1.4958 -0.3021
19548SOL     OW60094   8.247   1.564   7.047 -0.0383  0.6253  0.2502
19548SOL    HW160095   8.322   1.609   7.008  0.3396 -2.2180 -2.6633
19548SOL    HW260096   8.273   1.472   7.051 -2.3097 -0.0420  2.0023
19549SOL     OW60097   4.355   6.939   5.366 -0.2388 -0.3651 -0.5301
19549SOL    HW160098   4.323   6.973   5.449 -0.7404  0.5017 -1.0605
19549SOL    HW260099   4.277   6.902   5.324 -0.6700  1.8285 -1.8623
19550SOL     OW60100   4.609   3.386   3.059  0.5686  0.1774  0.2661
19550SOL    HW160101   4.695   3.429   3.058  0.8766 -0.0788  3.6624
19550SOL    HW260102   4.627   3.296   3.031  1.4636  0.0855  1.0945
19551SOL     OW60103   7.807   3.263   1.546 -0.8007 -0.2637 -0.3200
19551SOL    HW160104   7.726   3.299   1.582 -0.1032  1.2670 -0.1993
19551SOL    HW260105   7.794   3.264   1.451 -1.0281 -0.2912 -0.2879
19552SOL     OW60106   4.696   1.443   2.343 -0.1876 -0.1317  0.3798
19552SOL    HW160107   4.685   1.366   2.287 -1.2509  0.0696  0.2773
19552SOL    HW260108   4.727   1.409   2.427 -0.7637 -0.6835  0.3718
19553SOL     OW60109   0.222   2.073   3.860  0.1449  0.0804  0.2685
19553SOL    HW160110   0.270   2.100   3.939  1.3856 -0.0931 -0.3894
19553SOL    HW260111   0.161   2.144   3.843  0.9547  0.8589  0.5170
19554SOL     OW60112   0.806   5.225   0.536  0.0126 -0.2095  0.1492
19554SOL    HW160113   0.791   5.245   0.629 -1.1424 -0.8335  0.1160
19554SOL    HW260114   0.883   5.170   0.536 -0.7155 -1.2651  0.8883
19555SOL     OW60115   3.865   3.159   1.806 -0.2567 -0.2647 -0.2821
19555SOL    HW160116   3.960   3.153   1.809  0.1532  3.1779 -2.0065
19555SOL    HW260117   3.840   3.109   1.729  0.2898 -0.1429 -0.5409
19556SOL     OW60118   2.704   2.613   7.943  0.1474 -0.1504 -0.4619
19556SOL    HW160119   2.792   2.650   7.944 -0.0239  0.2505 -0.0035
19556SOL    HW260120   2.689   2.589   7.851 -0.5798  2.9178 -1.2657
19557SOL     OW60121   1.210   3.333   6.514 -0.2914 -0.0718 -0.5500
19557SOL    HW160122   1.293   3.375   6.495  1.5834 -3.6372 -1.0302
19557SOL    HW260123   1.187   3.285   6.434 -1.6645 -0.9065  0.2902
19558SOL     OW60124   1.504   8.644   6.335 -0.1088 -0.2116 -0.0176
19558SOL    HW160125   1.511   8.605   6.423  0.2311  0.8587  0.4406
19558SOL    HW260126   1.455   8.724   6.348 -1.4409 -0.8263 -1.0860
19559SOL     OW60127   0.601   6.407   5.334 -0.4296 -0.7909 -0.5554
19559SOL    HW160128   0.546   6.330   5.321 -1.2906 -0.0890 -1.1558
19559SOL    HW260129   0.573   6.444   5.418 -1.6325  0.1593 -1.3509
19560SOL     OW60130   1.790   2.352   1.136 -0.3592  0.4428 -0.2637
19560SOL    HW160131   1.698   2.331   1.148 -0.0423 -0.2997  1.0634
19560SOL    HW260132   1.836   2.289   1.191  0.9206  1.1240 -0.5183
19561SOL     OW60133   4.999   3.445   3.536 -0.0492 -0.0399 -0.9626
19561SOL    HW160134   5.082   3.482   3.567 -0.8956  1.3274 -0.1871
19561SOL    HW260135   5.006   3.351   3.553  2.4798 -0.4824 -3.6365
19562SOL     OW60136   9.169   6.693   7.508  0.0055 -0.1155 -0.3682
19562SOL    HW160137   9.103   6.747   7.464  0.1794  0.7858  0.4427
19562SOL    HW260138   9.151   6.604   7.478 -0.6950  0.2983 -1.2385
19563SOL     OW60139   0.798   3.857   0.947  1.1087 -0.0329 -0.0038
19563SOL    HW160140   0.792   3.909   1.027  0.5850 -0.6938  0.4022
19563SOL    HW260141   0.712   3.862   0.907  1.3863  0.3429 -0.5638
19564SOL     OW60142   3.168   0.593   5.836 -0.2101 -0.1725  0.1186
19564SOL    HW160143   3.080   0.574   5.867 -0.2313  0.6427  0.5956
19564SOL    HW260144   3.175   0.547   5.753 -1.5104  0.7388 -0.5206
19565SOL     OW60145   3.889   5.892   5.888 -0.4315 -0.0894  0.2538
19565SOL    HW160146   3.922   5.847   5.965  0.0034  0.9996  0.7209
19565SOL    HW260147   3.844   5.824   5.838 -0.0444 -0.9707  1.0750
19566SOL     OW60148   7.578   8.524   5.999 -0.0660  0.5643 -0.0462
19566SOL    HW160149   7.623   8.573   6.068  0.5722 -1.6523  1.2250
19566SOL    HW260150   7.494   8.569   5.988  1.1040  2.8368 -0.1312
19567SOL     OW60151   3.845   7.597   4.190 -0.2842 -0.0958 -0.2058
19567SOL    HW160152   3.778   7.666   4.184 -0.7234 -0.4218  0.8911
19567SOL    HW260153   3.906   7.629   4.256 -0.6552 -0.8857  0.5346
19568SOL     OW60154   4.537   8.336   2.613  0.3159  0.0769 -0.0157
19568SOL    HW160155   4.560   8.274   2.544  1.7028  1.1215 -0.5300
19568SOL    HW260156   4.509   8.281   2.686 -2.1745 -1.0570 -1.6793
19569SOL     OW60157   3.371   3.529   2.229 -0.4586 -0.4552  0.1218
19569SOL    HW160158   3.318   3.570   2.298 -1.8345 -1.8637 -0.0173
19569SOL    HW260159   3.329   3.558   2.148 -0.7195 -1.1713 -0.0056
19570SOL     OW60160   3.280   5.584   5.072 -0.1959  0.5368  0.1429
19570SOL    HW160161   3.269   5.527   4.996  0.8327  1.0382 -0.4007
19570SOL    HW260162   3.279   5.524   5.147 -0.1955 -0.0816 -0.3462
19571SOL     OW60163   4.109   5.115   8.831  0.0232  0.3223  0.1844
19571SOL    HW160164   4.125   5.021   8.842 -2.4945 -0.2294 -0.2354
19571SOL    HW260165   4.025   5.120   8.786  0.5927  2.7909 -0.7679
19572SOL     OW60166   2.034   6.423   1.646 -0.0891 -0.1844  0.1813
19572SOL    HW160167   2.079   6.424   1.730 -0.9905 -0.8262  0.6972
19572SOL    HW260168   2.090   6.369   1.590 -0.0442 -0.7206  0.7204
19573SOL     OW60169   7.193   6.446   7.479  0.3130  0.2412 -0.2824
19573SOL    HW160170   7.170   6.360   7.444 -1.6669  0.9023 -0.6949
19573SOL    HW260171   7.255   6.426   7.550 -1.2137 -1.6579  0.6118
19574SOL     OW60172   4.375   8.717   6.727  0.1975  0.1027  0.3534
19574SOL    HW160173   4.342   8.681   6.809 -0.7203 -4.0116 -1.5651
19574SOL    HW260174   4.298   8.749   6.681  0.1584 -0.8543 -0.2824
19575SOL     OW60175   6.106   2.032   2.156  0.0031 -0.0350  0.3084
19575SOL    HW160176   6.021   2.040   2.112 -0.9678 -1.0519  1.9022
19575SOL    HW260177   6.103   1.946   2.198  0.9536  0.7797  2.1623
19576SOL     OW60178   7.082   6.754   6.504  0.1190  0.1730 -0.5046
19576SOL    HW160179   7.064   6.725   6.593 -2.2933 -0.9361 -1.2538
19576SOL    HW260180   7.134   6.683   6.466  2.5714  1.3693  0.3863
19577SOL     OW60181   6.415   6.476   3.536 -0.1407 -0.2695 -0.2086
19577SOL    HW160182   6.362   6.439   3.465 -0.6218 -0.4159  0.2197
19577SOL    HW260183   6.363   6.462   3.614  0.2505  0.1687  0.1368
19578SOL     OW60184   7.561   3.766   4.047  0.0344 -0.2443  0.7441
19578SOL    HW160185   7.507   3.687   4.048  1.5449 -1.3270  1.5467
19578SOL    HW260186   7.521   3.822   3.981 -0.1602 -2.3697 -1.0796
19579SOL     OW60187   0.482   0.071   0.310  0.3278 -0.4839  0.0562
19579SOL    HW160188   0.566   0.065   0.356  0.9854 -1.5977 -1.2212
19579SOL    HW260189   0.436   0.143   0.354  2.9005  1.8183 -0.7070
19580SOL     OW60190   8.087   3.813   5.430 -0.9596  0.1997  0.6533
19580SOL    HW160191   8.113   3.756   5.358  2.1482  0.3130  1.5592
19580SOL    HW260192   8.049   3.753   5.495  5.3436 -1.8962  3.1225
19581SOL     OW60193   8.791   7.633   0.090 -0.4897  0.4515  0.5236
19581SOL    HW160194   8.714   7.689   0.091 -3.2245 -2.9448  0.6984
19581SOL    HW260195   8.817   7.630  -0.003 -0.4627  1.7488  0.4817
19582SOL     OW60196   4.959   4.088   3.074  0.0101 -0.0529 -0.1570
19582SOL    HW160197   4.929   4.018   3.016 -0.7767  0.8413 -0.8541
19582SOL    HW260198   5.047   4.108   3.043 -0.4059  0.4222 -1.0573
19583SOL     OW60199   4.513   7.367   4.196 -0.2659  0.0725 -0.5214
19583SOL    HW160200   4.423   7.337   4.208 -0.1689 -0.6653 -1.5151
19583SOL    HW260201   4.549   7.373   4.284 -0.9093 -0.8381 -0.1875
19584SOL     OW60202   8.901   0.123   1.252 -0.9269  0.2173  0.4986
19584SOL    HW160203   8.901   0.140   1.346  0.4859  0.8990  0.3997
19584SOL    HW260204   8.809   0.123   1.228 -1.2620  1.6556  1.6154
19585SOL     OW60205   0.536   3.794   2.404 -0.1358 -0.1508 -0.2457
19585SOL    HW160206   0.486   3.732   2.352 -0.4904 -0.2554  0.2188
19585SOL    HW260207   0.543   3.872   2.348 -1.8017  0.2907  0.1212
19586SOL     OW60208   6.943   5.363   7.219 -0.4569  0.1992  0.1282
19586SOL    HW160209   6.863   5.377   7.168  1.2711  1.7203 -2.3591
19586SOL    HW260210   6.997   5.441   7.201  1.7647 -0.9727  1.3527
19587SOL     OW60211   1.626   0.823   8.928  0.0987  0.0789  0.5054
19587SOL    HW160212   1.593   0.853   9.013  0.7085 -0.2983  0.8876
19587SOL    HW260213   1.679   0.895   8.895 -0.4648  0.3843  0.2486
19588SOL     OW60214   7.930   5.971   3.030 -0.1765 -0.1558 -0.3237
19588SOL    HW160215   7.949   6.038   3.094  0.1988 -0.3489 -0.2326
19588SOL    HW260216   7.851   6.002   2.985 -1.5861 -0.9137  1.5092
19589SOL     OW60217   4.646   0.672   6.069  0.2960  0.7951 -0.1996
19589SOL    HW160218   4.703   0.661   6.145  0.6745 -0.7181 -0.6725
19589SOL    HW260219   4.559   0.684   6.106  0.4794  0.0755  0.4833
19590SOL     OW60220   8.155   3.924   3.270 -0.1955  0.1657  0.0606
19590SOL    HW160221   8.125   4.001   3.319 -1.6359  1.0653 -2.0683
19590SOL    HW260222   8.076   3.871   3.257  0.3785 -0.6457 -0.2337
19591SOL     OW60223   1.065   8.488   6.965 -0.3980 -0.0058 -0.4514
19591SOL    HW160224   0.971   8.471   6.975 -0.2152 -1.9415 -1.6558
19591SOL    HW260225   1.106   8.435   7.034 -0.0638 -1.3488 -1.6378
19592SOL     OW60226   6.906   8.651   3.345 -0.4529  0.0888 -0.3767
19592SOL    HW160227   6.979   8.704   3.313  0.1328  1.3522  2.6655
19592SOL    HW260228   6.828   8.704   3.326 -0.3440 -0.0717 -1.3284
19593SOL     OW60229   4.490   2.491   2.942  0.0836 -0.2993 -0.2065
19593SOL    HW160230   4.401   2.481   2.907  0.2070 -0.6106 -0.4411
19593SOL    HW260231   4.479   2.486   3.037 -0.0047 -1.7170 -0.2566
19594SOL     OW60232   3.685   0.635   3.290  0.3008  0.1586  0.8772
19594SOL    HW160233   3.676   0.693   3.215  1.2760  0.5995  1.0905
19594SOL    HW260234   3.654   0.550   3.258  1.9401  0.0086 -0.4398
19595SOL     OW60235   9.276   2.953   5.965 -0.3933  0.5320  0.3890
19595SOL    HW160236   9.295   2.869   5.923  0.8041 -0.0983  2.0582
19595SOL    HW260237   9.189   2.977   5.933  0.0271 -0.3800 -1.5965
19596SOL     OW60238   2.522   1.443   1.939  0.2280  0.3219  0.0139
19596SOL    HW160239   2.583   1.443   1.865 -0.2106  0.2915 -0.3510
19596SOL    HW260240   2.442   1.484   1.904 -0.4649 -0.9506  0.0731
19597SOL     OW60241   3.848   8.932   6.409  0.3465 -0.3102  0.5678
19597SOL    HW160242   3.892   9.005   6.454  1.3057 -1.0822  0.9198
19597SOL    HW260243   3.877   8.854   6.457  1.2317 -1.1479 -1.2276
19598SOL     OW60244   3.376   2.883   7.990  0.7207  0.4327  0.3225
19598SOL    HW160245   3.390   2.798   7.948 -0.0677 -0.1250  1.1401
19598SOL    HW260246   3.454   2.895   8.045  0.3187 -0.3336  1.0979
19599SOL     OW60247   2.575   2.725   6.137 -0.6390  0.3797 -0.1318
19599SOL    HW160248   2.497   2.677   6.110 -0.3544 -1.2989  1.7481
19599SOL    HW260249   2.646   2.688   6.083 -0.4887 -1.1737  1.0326
19600SOL     OW60250   7.219   0.571   6.962 -0.7354  0.6931  0.6782
19600SOL    HW160251   7.174   0.623   6.895  2.0587  1.8280 -0.4725
19600SOL    HW260252   7.242   0.634   7.030  1.1192  0.6860  0.1136
19601SOL     OW60253   4.572   1.147   9.073 -0.6125  0.2884  0.2176
19601SOL    HW160254   4.553   1.107   8.988  0.6331 -0.8406  0.4349
19601SOL    HW260255   4.663   1.175   9.066 -0.5674  0.3961  1.1103
19602SOL     OW60256   2.427   4.115   5.082  0.4682  0.0716  0.4753
19602SOL    HW160257   2.392   4.204   5.073  0.4625  0.0367  0.1083
19602SOL    HW260258   2.353   4.062   5.109  0.1204 -0.0823 -0.7114
19603SOL     OW60259   2.876   9.236   1.346 -0.0697  0.6223 -0.1506
19603SOL    HW160260   2.865   9.247   1.251 -1.0461 -0.0619 -0.1405
19603SOL    HW260261   2.912   9.319   1.376  1.5363  0.3772 -1.3031
19604SOL     OW60262   3.507   4.339   3.108  0.1953  0.0601 -0.1042
19604SOL    HW160263   3.566   4.264   3.121  0.9436  0.1216 -2.6004
19604SOL    HW260264   3.530   4.400   3.179  1.8424 -0.7060  0.0812
19605SOL     OW60265   6.235   4.168   0.779  0.1792  0.2434  0.1548
19605SOL    HW160266   6.291   4.215   0.718 -0.9462 -0.5140 -1.5342
19605SOL    HW260267   6.245   4.076   0.754  1.3647 -0.3683  2.5683
19606SOL     OW60268   3.457   2.604   6.921 -0.2705  0.4088 -0.1915
19606SOL    HW160269   3.542   2.591   6.877 -0.8309  1.7638 -1.7961
19606SOL    HW260270   3.472   2.678   6.979 -0.3009  0.5229 -0.3286
19607SOL     OW60271   7.203   2.490   7.960 -0.2880 -0.5390  0.2179
19607SOL    HW160272   7.121   2.463   8.001 -0.0948  0.3942  1.2708
19607SOL    HW260273   7.211   2.583   7.981 -0.0273 -0.0689 -1.7186
19608SOL     OW60274   3.294   0.487   6.081  0.1182 -0.2248  0.1204
19608SOL    HW160275   3.246   0.406   6.097  2.1407 -1.6810 -0.7417
19608SOL    HW260276   3.256   0.522   6.000  0.5481 -1.4422 -0.6386
19609SOL     OW60277   7.345   8.395   6.528  0.0188 -0.3489  0.7627
19609SOL    HW160278   7.261   8.392   6.483 -0.7374  0.7428  2.0259
19609SOL    HW260279   7.409   8.367   6.462 -1.0761  0.7348 -0.8399
19610SOL     OW60280   3.619   9.149   7.280 -0.4576  0.3639 -0.0623
19610SOL    HW160281   3.652   9.238   7.283 -0.5704  0.4122 -0.2184
19610SOL    HW260282   3.695   9.094   7.298 -0.5841  0.5273  1.0254
19611SOL     OW60283   5.347   2.538   3.141 -0.1706  0.3814  0.4554
19611SOL    HW160284   5.306   2.492   3.068 -0.2606  1.3367 -0.1040
19611SOL    HW260285   5.435   2.500   3.146 -1.1367 -1.9239  1.8843
19612SOL     OW60286   5.231   3.582   3.625 -0.1180  0.6780  0.6076
19612SOL    HW160287   5.248   3.650   3.561 -0.2298 -1.4819 -1.9134
19612SOL    HW260288   5.315   3.538   3.637 -0.6647 -0.7869 -0.4789
19613SOL     OW60289   1.752   5.442   0.907  0.0048 -0.3524  0.4920
19613SOL    HW160290   1.712   5.510   0.963 -1.2562  0.0647 -0.8481
19613SOL    HW260291   1.811   5.491   0.850 -0.0163 -0.5400  0.3119
19614SOL     OW60292   9.167   1.382   6.824  0.4751 -0.2802  0.0457
19614SOL    HW160293   9.258   1.408   6.814  0.2461  0.8619  0.7093
19614SOL    HW260294   9.118   1.450   6.779 -0.1021 -0.1995  0.7781
19615SOL     OW60295   6.909   8.986   5.912 -0.2964 -0.1412  0.2165
19615SOL    HW160296   6.870   9.048   5.851  0.6840  1.0206  0.7323
19615SOL    HW260297   6.857   8.906   5.901 -0.9215  0.4206 -1.2236
19616SOL     OW60298   7.136   2.115   2.200 -1.2643 -0.0968 -0.0750
19616SOL    HW160299   7.183   2.169   2.137  0.5621 -0.8811  0.5424
19616SOL    HW260300   7.163   2.150   2.285 -0.4290 -1.6391  0.3223
19617SOL     OW60301   5.934   2.646   6.786  0.1247 -0.0189  0.4946
19617SOL    HW160302   5.991   2.712   6.748 -0.3157 -0.2974 -0.6816
19617SOL    HW260303   5.972   2.562   6.758 -0.8791 -0.2090 -0.3647
19618SOL     OW60304   5.478   5.237   2.601 -0.2328  0.2601 -0.1809
19618SOL    HW160305   5.558   5.188   2.585 -0.6912 -0.0514 -1.6489
19618SOL    HW260306   5.482   5.260   2.694 -0.3444 -3.2004  0.8200
19619SOL     OW60307   9.074   1.629   8.714  0.1431 -0.1796  0.1233
19619SOL    HW160308   9.153   1.599   8.670 -0.0556 -0.1823 -0.2311
19619SOL    HW260309   9.010   1.640   8.644 -0.3489 -0.7423  0.4813
19620SOL     OW60310   3.266   0.024   3.889  0.6112  0.1020 -0.6401
19620SOL    HW160311   3.240  -0.032   3.962  0.9547  0.4754 -0.2208
19620SOL    HW260312   3.184   0.056   3.853  0.4521  0.4366  0.0057
19621SOL     OW60313   9.116   1.703   1.228  0.0065 -0.0722  0.6170
19621SOL    HW160314   9.127   1.733   1.319  0.8510  1.0939  0.1493
19621SOL    HW260315   9.057   1.767   1.189 -0.9966 -1.0207  0.5334
19622SOL     OW60316   7.949   2.764   8.101 -0.2692 -0.1646  0.1691
19622SOL    HW160317   7.935   2.807   8.016 -0.5513 -0.5769  0.0052
19622SOL    HW260318   7.897   2.684   8.096 -0.3328 -0.1610  0.7550
19623SOL     OW60319   3.367   3.879   3.335  0.5240 -0.0861  1.0667
19623SOL    HW160320   3.272   3.887   3.329  0.3989 -1.6843  0.4924
19623SOL    HW260321   3.381   3.793   3.374  1.7368 -0.5996 -0.4294
19624SOL     OW60322   2.649   6.068   1.880  0.1585 -0.2453  0.0196
19624SOL    HW160323   2.579   6.073   1.945  0.6763  0.7342  0.5282
19624SOL    HW260324   2.725   6.037   1.929  0.5813  0.6067 -0.0875
19625SOL     OW60325   2.426   8.470   6.489 -0.4546  0.0583  0.0142
19625SOL    HW160326   2.427   8.554   6.443 -2.9729  0.1541 -0.0436
19625SOL    HW260327   2.365   8.416   6.439 -0.3522 -1.1453  1.1277
19626SOL     OW60328   3.626   6.674   6.556  0.4954  0.8555 -0.1857
19626SOL    HW160329   3.677   6.738   6.606  0.0599 -0.1497  1.6494
19626SOL    HW260330   3.562   6.726   6.507 -0.4264  1.8269  1.9228
19627SOL     OW60331   5.801   8.276   3.343 -0.1437  0.2711 -0.5557
19627SOL    HW160332   5.707   8.282   3.329 -0.0840  0.5572 -0.8684
19627SOL    HW260333   5.821   8.183   3.333 -0.7241 -0.1855  1.8266
19628SOL     OW60334   3.927   4.573   9.272 -1.2524  0.0155  0.2440
19628SOL    HW160335   3.957   4.642   9.213  0.7089 -1.6579 -0.8445
19628SOL    HW260336   3.848   4.609   9.313 -1.2824  2.2006 -1.5395
19629SOL     OW60337   1.281   9.028   6.682  0.3364 -0.1843  0.3341
19629SOL    HW160338   1.281   9.018   6.777 -1.1938 -0.0938  0.3707
19629SOL    HW260339   1.370   9.002   6.655  0.6855 -0.5425  1.7399
19630SOL     OW60340   0.008   3.240   7.517 -0.8384  0.4800 -0.5023
19630SOL    HW160341   0.096   3.225   7.482 -1.3473  0.5345 -1.8387
19630SOL    HW260342  -0.043   3.166   7.485 -1.2381  0.3145  0.4848
19631SOL     OW60343   0.582   1.051   4.914 -0.4007  0.4434  0.1271
19631SOL    HW160344   0.621   1.080   4.831  0.1094  0.8402  0.4988
19631SOL    HW260345   0.487   1.051   4.897 -0.2861  0.2640 -0.5348
19632SOL     OW60346   5.686   5.641   0.927 -0.2603 -0.0281  0.2258
19632SOL    HW160347   5.748   5.658   0.998  0.3863 -0.3521 -0.2517
19632SOL    HW260348   5.662   5.728   0.894  0.1317  0.0864  0.2470
19633SOL     OW60349   1.023   4.613   8.751  0.2420 -0.6282  0.2432
19633SOL    HW160350   0.984   4.588   8.668 -2.8422 -0.5169  1.5236
19633SOL    HW260351   1.041   4.707   8.742 -1.9787 -0.1400  0.2817
19634SOL     OW60352   2.789   5.114   5.465  0.0844 -0.1093  0.7256
19634SOL    HW160353   2.757   5.204   5.468  2.2947  0.7418  2.5855
19634SOL    HW260354   2.776   5.086   5.375 -1.1817  1.8670  0.2346
19635SOL     OW60355   3.887   0.424   4.879  0.5421 -0.5875  0.2042
19635SOL    HW160356   3.938   0.434   4.960  3.3220  2.6324 -1.6789
19635SOL    HW260357   3.937   0.361   4.827  0.1883 -0.7061  0.0094
19636SOL     OW60358   8.926   7.542   4.273 -0.1974 -0.2953 -0.2700
19636SOL    HW160359   9.007   7.580   4.307 -0.0748 -0.3741 -0.4749
19636SOL    HW260360   8.886   7.613   4.223 -1.0728  0.2771  1.1723
19637SOL     OW60361   2.614   6.704   6.028 -0.1822 -0.2246 -0.3533
19637SOL    HW160362   2.640   6.686   6.119  0.8705 -0.3896 -0.6841
19637SOL    HW260363   2.628   6.621   5.982 -1.0330 -0.2385 -0.6097
19638SOL     OW60364   6.848   2.357   0.640  0.6158  0.4467  0.1973
19638SOL    HW160365   6.874   2.360   0.548 -0.3771  2.1575 -0.0569
19638SOL    HW260366   6.771   2.301   0.642  0.1725  1.0379 -0.1442
19639SOL     OW60367   7.801   7.745   4.489  0.0355  0.0199  0.2282
19639SOL    HW160368   7.886   7.789   4.493 -0.8401  1.8589 -0.1878
19639SOL    HW260369   7.756   7.774   4.568 -1.4619  1.9442 -1.2236
19640SOL     OW60370   7.576   2.020   3.897  0.2828 -0.5366  0.0016
19640SOL    HW160371   7.555   1.969   3.819  0.8651 -0.2538 -0.3547
19640SOL    HW260372   7.639   2.085   3.866 -2.2588  2.0616 -0.1312
19641SOL     OW60373   3.802   3.759   8.622 -0.3156  0.4463 -0.4257
19641SOL    HW160374   3.807   3.691   8.555 -0.5369  0.6912 -0.6904
19641SOL    HW260375   3.713   3.794   8.615 -0.3105  0.5393 -0.0702
19642SOL     OW60376   1.064   0.723   5.892 -0.2953 -0.4079  0.5246
19642SOL    HW160377   0.975   0.697   5.916  0.5040 -2.8312  1.1921
19642SOL    HW260378   1.078   0.683   5.806  0.3651 -0.6828  0.7497
19643SOL     OW60379   0.984   8.316   4.487 -0.4253  0.6256 -0.5580
19643SOL    HW160380   0.896   8.299   4.521 -0.3502 -0.8729 -1.0676
19643SOL    HW260381   1.032   8.351   4.562 -1.3608  1.2015 -0.2013
19644SOL     OW60382   7.486   3.031   6.590  0.2040  0.0515 -0.5351
19644SOL    HW160383   7.429   2.963   6.627 -1.0088  0.6689 -1.2598
19644SOL    HW260384   7.437   3.112   6.601  0.3025  0.4006 -2.4785
19645SOL     OW60385   5.562   0.650   3.973  0.1622 -0.3468  0.0722
19645SOL    HW160386   5.525   0.738   3.974 -0.6907 -0.6704  2.1318
19645SOL    HW260387   5.517   0.605   3.902 -0.9232  0.2948  0.3378
19646SOL     OW60388   2.677   6.503   2.680  0.2892 -0.4047  0.0941
19646SOL    HW160389   2.772   6.497   2.667  0.0543 -0.9045 -1.6061
19646SOL    HW260390   2.649   6.576   2.624 -0.8188 -2.8608 -2.8909
19647SOL     OW60391   5.020   4.522   7.207 -0.2871 -0.4977 -0.4957
19647SOL    HW160392   5.029   4.428   7.194  2.3937 -0.2814 -0.7861
19647SOL    HW260393   5.107   4.551   7.236 -1.3219  1.7382  0.6749
19648SOL     OW60394   6.335   2.755   6.611  0.2856 -0.5629 -0.4032
19648SOL    HW160395   6.338   2.789   6.522 -1.3675 -0.1466 -0.3246
19648SOL    HW260396   6.426   2.760   6.641  0.9144 -0.9401 -2.1295
19649SOL     OW60397   5.305   0.232   1.370  0.7545  0.0707 -0.0215
19649SOL    HW160398   5.364   0.196   1.436  0.0072 -1.0685  0.0491
19649SOL    HW260399   5.340   0.200   1.286 -0.5415 -1.8175  0.1143
19650SOL     OW60400   4.655   5.099   2.700 -0.6488  0.2026  0.2194
19650SOL    HW160401   4.739   5.064   2.731 -0.1051  0.3956 -0.9696
19650SOL    HW260402   4.593   5.026   2.711  0.1849 -0.7422 -0.9683
19651SOL     OW60403   4.927   7.841   1.510 -0.4600  0.3363  0.0886
19651SOL    HW160404   4.867   7.767   1.498 -0.5959  0.4818 -0.1364
19651SOL    HW260405   4.886   7.913   1.462 -1.2512  1.0648  1.7654
19652SOL     OW60406   5.321   2.656   3.392 -0.1148  0.3651 -0.6225
19652SOL    HW160407   5.366   2.603   3.458  1.3914  0.9278 -1.1489
19652SOL    HW260408   5.354   2.623   3.308  0.0211  1.4144 -0.9941
19653SOL     OW60409   5.897   5.517   0.797  0.4807 -0.2684  0.2921
19653SOL    HW160410   5.817   5.562   0.823 -0.0365 -1.8023  1.5210
19653SOL    HW260411   5.898   5.437   0.850  2.4985 -0.6073 -0.1659
19654SOL     OW60412   3.806   1.182   6.161  0.0866 -0.1276 -0.5589
19654SOL    HW160413   3.734   1.128   6.129 -2.2830  1.9301  0.9036
19654SOL    HW260414   3.818   1.155   6.252  0.8948 -0.1584 -0.6668
19655SOL     OW60415   2.590   2.590   0.154 -0.3973 -0.4475 -0.3276
19655SOL    HW160416   2.683   2.613   0.161 -0.8436  1.8970 -1.0513
19655SOL    HW260417   2.563   2.572   0.244  0.5050  0.0317  0.0538
19656SOL     OW60418   6.598   1.236   3.917 -0.0081 -0.2463 -0.4540
19656SOL    HW160419   6.539   1.310   3.905  1.0404  0.5487 -0.7899
19656SOL    HW260420   6.646   1.229   3.835  0.0438 -1.1909 -0.3613
19657SOL     OW60421   6.660   3.948   6.989 -0.1428  0.5017 -0.5845
19657SOL    HW160422   6.604   3.977   7.061  2.0296  1.0537  0.9850
19657SOL    HW260423   6.718   4.023   6.972  0.5829 -0.2696 -1.6624
19658SOL     OW60424   0.470   7.249   7.843 -0.5061  0.0083 -0.3746
19658SOL    HW160425   0.379   7.248   7.875 -0.6735 -1.0816 -0.8310
19658SOL    HW260426   0.515   7.311   7.900 -1.5955  0.7525 -0.3044
19659SOL     OW60427   7.006   3.936   5.476  0.0276 -0.2805 -0.5518
19659SOL    HW160428   7.040   4.025   5.486  0.3686 -0.3096 -1.3570
19659SOL    HW260429   7.007   3.921   5.381  1.2027 -1.6306 -0.3446
19660SOL     OW60430   5.838   6.163   4.228  0.5906 -0.6079  0.1423
19660SOL    HW160431   5.776   6.097   4.259 -0.3346 -1.0275 -2.3417
19660SOL    HW260432   5.923   6.133   4.259  0.0174 -2.2328  0.2270
19661SOL     OW60433   7.771   2.799   5.306 -0.1109  0.0046  0.0288
19661SOL    HW160434   7.697   2.757   5.350 -3.1143  1.5574 -3.0754
19661SOL    HW260435   7.765   2.772   5.215 -0.0828  4.1054 -1.4279
19662SOL     OW60436   6.439   4.067   1.062  0.0706 -0.0616 -0.1854
19662SOL    HW160437   6.475   4.152   1.089  1.5212 -0.0111 -2.1052
19662SOL    HW260438   6.356   4.061   1.110  0.6028  1.7737  1.1109
19663SOL     OW60439   4.373   2.570   6.780 -0.0802 -0.0113 -0.1345
19663SOL    HW160440   4.463   2.603   6.788 -0.6349  1.5780 -0.1096
19663SOL    HW260441   4.368   2.538   6.690  0.8508 -1.2345  0.2262
19664SOL     OW60442   6.174   3.126   7.312 -0.7490  0.0919  0.2061
19664SOL    HW160443   6.170   3.215   7.277 -2.5062  1.3627  3.2318
19664SOL    HW260444   6.268   3.109   7.323 -0.3862  2.4198  1.3686
19665SOL     OW60445   5.713   1.329   0.689 -0.3099  0.0970 -0.4282
19665SOL    HW160446   5.743   1.285   0.610 -0.6273 -0.0187 -0.4854
19665SOL    HW260447   5.642   1.274   0.722 -0.3509  0.2818 -0.2059
19666SOL     OW60448   4.548   4.426   0.721  0.2066 -0.4259 -0.8254
19666SOL    HW160449   4.587   4.386   0.643  1.2754  0.3641 -0.7175
19666SOL    HW260450   4.478   4.366   0.746  1.6167 -2.1444 -0.7842
19667SOL     OW60451   3.556   6.520   2.757  0.4244  0.4234  0.1757
19667SOL    HW160452   3.552   6.606   2.800 -4.3771  1.1717 -1.1614
19667SOL    HW260453   3.574   6.540   2.665 -0.8591  0.0845 -0.1702
19668SOL     OW60454   6.878   7.817   0.890 -0.4122 -0.0514 -0.1803
19668SOL    HW160455   6.907   7.783   0.975  0.4409  1.0000 -0.0240
19668SOL    HW260456   6.814   7.884   0.912 -0.4172  0.0092 -0.3784
19669SOL     OW60457   1.431   3.825   3.308 -0.4003 -0.3183  0.2418
19669SOL    HW160458   1.476   3.838   3.392 -1.5259 -0.1671  0.8559
19669SOL    HW260459   1.481   3.877   3.245  0.6231 -0.6567  0.7658
19670SOL     OW60460   6.367   6.258   0.205  0.2287 -0.1251  0.0489
19670SOL    HW160461   6.430   6.250   0.277 -0.3626 -1.9076  0.4134
19670SOL    HW260462   6.367   6.352   0.184  0.4737  0.4449  2.3067
19671SOL     OW60463   2.052   9.221   8.221  0.0729 -0.0266  0.2316
19671SOL    HW160464   2.026   9.283   8.289 -1.5396  0.0784 -0.4485
19671SOL    HW260465   1.974   9.168   8.205  0.3354  0.1270 -1.7269
19672SOL     OW60466   4.230   5.696   0.158 -0.2466  0.2278  0.1836
19672SOL    HW160467   4.162   5.655   0.211 -1.4131  1.3869 -0.3718
19672SOL    HW260468   4.306   5.638   0.167 -1.2445 -1.0007  0.9562
19673SOL     OW60469   3.310   5.285   8.039  0.0052  0.3159 -0.1438
19673SOL    HW160470   3.294   5.257   8.129 -0.1331 -1.7987 -0.7581
19673SOL    HW260471   3.269   5.371   8.032  0.2559  0.6292  1.8650
19674SOL     OW60472   4.303   4.365   6.664  0.3265  0.3964  0.3036
19674SOL    HW160473   4.260   4.445   6.634 -0.7850  0.7711  2.6714
19674SOL    HW260474   4.302   4.372   6.759  0.2765 -2.3999  0.5754
19675SOL     OW60475   5.698   5.783   2.255  0.4902 -0.4006  0.1382
19675SOL    HW160476   5.769   5.722   2.235  0.0266 -0.8992 -0.0192
19675SOL    HW260477   5.702   5.794   2.350  1.1103  0.0003  0.0734
19676SOL     OW60478   1.977   6.425   3.092 -0.5532  0.7322 -0.1974
19676SOL    HW160479   2.006   6.334   3.086 -0.0590  0.9711 -2.0786
19676SOL    HW260480   1.950   6.436   3.184  3.3128 -0.0926  1.2003
19677SOL     OW60481   4.695   8.203   8.561 -0.1692  0.5549  0.6546
19677SOL    HW160482   4.677   8.232   8.651  0.3149  2.3783  0.1993
19677SOL    HW260483   4.790   8.211   8.551 -0.2199  0.3867 -0.0309
19678SOL     OW60484   9.237   1.213   0.260  0.6757 -0.6188 -0.0989
19678SOL    HW160485   9.276   1.150   0.199  2.2489 -0.5736  0.7813
19678SOL    HW260486   9.292   1.291   0.252 -1.2287  0.6772 -1.1409
19679SOL     OW60487   3.989   3.400   6.898 -0.0178  0.0118 -1.1131
19679SOL    HW160488   3.938   3.452   6.836 -0.6801  0.1867 -0.4325
19679SOL    HW260489   3.964   3.309   6.879 -0.1402  0.0586 -1.1764
19680SOL     OW60490   3.502   4.695   7.806  0.2892  0.3128  0.7525
19680SOL    HW160491   3.502   4.621   7.867 -2.8374 -0.4677 -0.0396
19680SOL    HW260492   3.433   4.753   7.838 -0.7109  0.3986 -1.4034
19681SOL     OW60493   6.926   2.995   0.753 -0.1338  0.0832  0.0350
19681SOL    HW160494   6.942   2.987   0.847 -0.2671 -1.1484 -0.0303
19681SOL    HW260495   6.919   2.904   0.722  0.8096  0.4408 -1.3221
19682SOL     OW60496   5.528   0.320   4.370  0.0525 -0.2191  0.0654
19682SOL    HW160497   5.513   0.364   4.286 -0.3493  1.0166  0.7572
19682SOL    HW260498   5.607   0.361   4.404  0.0476 -0.5025  0.4165
19683SOL     OW60499   2.877   5.584   3.696  0.1621 -0.0553 -0.9791
19683SOL    HW160500   2.932   5.530   3.752 -1.3940  0.1458  0.8509
19683SOL    HW260501   2.790   5.544   3.702 -0.6629  1.6476 -0.9263
19684SOL     OW60502   4.163   7.875   4.266  0.6271 -0.6221  0.0011
19684SOL    HW160503   4.162   7.815   4.341  0.9466 -1.4181 -0.6273
19684SOL    HW260504   4.215   7.830   4.200 -0.4393 -0.3364 -1.0507
19685SOL     OW60505   5.702   8.218   7.739  0.2907 -0.1686  0.8581
19685SOL    HW160506   5.666   8.272   7.669 -0.5844  1.0625  2.1939
19685SOL    HW260507   5.636   8.221   7.808  2.4658  1.4495  3.0641
19686SOL     OW60508   5.845   3.589   9.035 -1.0787 -0.1764  0.1307
19686SOL    HW160509   5.831   3.547   9.120 -1.0800  0.0225  0.2281
19686SOL    HW260510   5.770   3.561   8.982 -1.0764 -0.3031  0.1945
19687SOL     OW60511   2.998   0.345   2.403 -0.2183  0.2981  0.2798
19687SOL    HW160512   2.959   0.413   2.347 -1.1259  0.7152  1.3811
19687SOL    HW260513   3.006   0.269   2.346 -1.2419  0.6742 -0.3906
19688SOL     OW60514   3.140   1.973   3.174  0.1793  0.5926  0.2349
19688SOL    HW160515   3.198   1.951   3.101  0.5408 -0.0110  0.6938
19688SOL    HW260516   3.052   1.954   3.141  0.4493 -1.2028  0.4615
19689SOL     OW60517   0.609   2.377   0.209  0.3830 -0.3881 -0.5112
19689SOL    HW160518   0.581   2.294   0.170  0.3545 -0.6785  0.1098
19689SOL    HW260519   0.629   2.354   0.300  0.4735  0.2677 -0.3668
19690SOL     OW60520   0.984   4.989   1.654  0.4235  0.3222  0.4993
19690SOL    HW160521   0.922   4.971   1.724 -1.7382  0.6210 -1.2498
19690SOL    HW260522   0.947   4.946   1.577  2.7178  0.0039 -0.5108
19691SOL     OW60523   5.764   4.284   6.973 -0.5815 -0.3462  0.8068
19691SOL    HW160524   5.730   4.283   6.884  1.0722 -1.5299  0.1452
19691SOL    HW260525   5.759   4.376   6.999 -1.1233  0.0150 -0.4982
19692SOL     OW60526   2.063   8.701   7.441  0.2700  0.2944  0.0594
19692SOL    HW160527   2.059   8.724   7.534  1.5635 -0.3637  0.3017
19692SOL    HW260528   2.134   8.637   7.436 -0.0078  0.0848 -1.3378
19693SOL     OW60529   1.739   3.334   2.355  0.4529 -0.0988  0.6367
19693SOL    HW160530   1.755   3.241   2.339 -0.3221 -0.0787 -0.3743
19693SOL    HW260531   1.799   3.379   2.296  0.2092  0.0270  0.4817
19694SOL     OW60532   8.604   3.616   0.425 -0.3592 -0.6021  0.6276
19694SOL    HW160533   8.619   3.521   0.424 -0.2530 -0.5864  0.7035
19694SOL    HW260534   8.562   3.633   0.509 -0.8266 -0.6492  0.4051
19695SOL     OW60535   7.220   3.946   7.677 -0.3823  0.4350 -0.1061
19695SOL    HW160536   7.314   3.963   7.679 -0.4827  1.8452 -2.9453
19695SOL    HW260537   7.213   3.851   7.679  1.0739  0.3078  0.3099
19696SOL     OW60538   1.204   5.529   0.597 -0.1046 -0.2508 -0.6058
19696SOL    HW160539   1.240   5.444   0.569  1.6985  0.0012  0.7234
19696SOL    HW260540   1.216   5.586   0.521 -1.6275 -1.2318 -1.6222
19697SOL     OW60541   6.984   1.306   0.348 -0.3703  0.1713 -0.5146
19697SOL    HW160542   6.929   1.284   0.273 -1.0696  0.7225 -0.1820
19697SOL    HW260543   6.930   1.285   0.424  0.1377  0.0908 -0.1744
19698SOL     OW60544   1.396   5.013   9.206 -0.9030  0.9167 -0.4196
19698SOL    HW160545   1.307   5.036   9.180 -0.5736  1.2181 -1.3236
19698SOL    HW260546   1.422   4.945   9.144 -0.6426  0.5272  0.1059
19699SOL     OW60547   5.919   9.073   1.428 -0.5630  0.0304  0.5762
19699SOL    HW160548   5.904   9.010   1.498  1.0975 -1.9643 -0.7627
19699SOL    HW260549   6.014   9.080   1.420 -0.6522 -0.4162 -1.9274
19700SOL     OW60550   4.376   2.160   5.194  0.2228  0.1443  0.2930
19700SOL    HW160551   4.377   2.212   5.113  1.7171 -1.8189 -1.0496
19700SOL    HW260552   4.426   2.213   5.256 -1.6669  2.0821  0.2859
19701SOL     OW60553   6.431   7.300   6.177  0.0553  0.1391  0.1736
19701SOL    HW160554   6.418   7.325   6.268  0.0632 -0.2882  0.2960
19701SOL    HW260555   6.503   7.237   6.180  1.3146  1.5136 -0.3420
19702SOL     OW60556   2.689   5.922   7.360 -0.1104  0.2322 -0.6314
19702SOL    HW160557   2.760   5.928   7.424  0.5222  0.0920 -1.3063
19702SOL    HW260558   2.616   5.882   7.409  0.4388 -0.1005 -0.0665
19703SOL     OW60559   6.649   5.730   8.511  0.1528  0.4629 -0.0114
19703SOL    HW160560   6.643   5.822   8.538 -0.6520  0.2013  0.7496
19703SOL    HW260561   6.665   5.683   8.593 -0.5909 -0.1779 -0.2210
19704SOL     OW60562   6.700   3.102   0.030  0.0987 -0.1028 -0.1227
19704SOL    HW160563   6.609   3.074   0.018  0.3849 -0.7368 -0.9026
19704SOL    HW260564   6.704   3.190  -0.009 -0.0899 -0.2459 -0.4710
19705SOL     OW60565   8.807   8.756   4.259 -0.1269  0.0022  0.3527
19705SOL    HW160566   8.855   8.703   4.195 -1.9446 -2.5247  0.9684
19705SOL    HW260567   8.869   8.768   4.331  0.5574 -0.7098 -0.0993
19706SOL     OW60568   8.818   3.451   5.458  0.2149  0.2284 -0.1752
19706SOL    HW160569   8.910   3.465   5.478  0.1702  1.0284 -0.5118
19706SOL    HW260570   8.800   3.509   5.383 -0.3526 -0.5246 -0.6389
19707SOL     OW60571   2.464   7.705   2.716  0.3281 -0.5136  0.8176
19707SOL    HW160572   2.476   7.776   2.779 -2.8499  1.0227 -0.0993
19707SOL    HW260573   2.415   7.638   2.763 -0.5336 -0.1256  0.4885
19708SOL     OW60574   8.468   1.855   4.527 -0.1549  1.1368 -0.3223
19708SOL    HW160575   8.487   1.761   4.526  0.1321  1.1895 -1.7170
19708SOL    HW260576   8.473   1.879   4.619 -0.9991 -0.3644  0.1495
19709SOL     OW60577   0.144   3.375   0.896  0.4269  0.1175 -0.6382
19709SOL    HW160578   0.228   3.406   0.861  0.9104 -1.9698 -1.4643
19709SOL    HW260579   0.145   3.402   0.988  2.8676 -1.3818 -0.1340
19710SOL     OW60580   1.225   1.708   3.274 -0.0540 -0.4184 -0.1590
19710SOL    HW160581   1.251   1.618   3.253 -0.2410 -0.1403 -1.6841
19710SOL    HW260582   1.300   1.744   3.321  0.5229 -1.0031 -0.6122
19711SOL     OW60583   6.206   7.878   0.065  0.6134 -0.4491 -0.2808
19711SOL    HW160584   6.171   7.830  -0.011  3.2913  0.0251 -1.9348
19711SOL    HW260585   6.298   7.853   0.070  1.8998  3.4387 -0.4942
19712SOL     OW60586   7.704   0.617   5.662 -0.1173  0.2033  0.4441
19712SOL    HW160587   7.787   0.579   5.636 -0.4547 -0.0206 -0.3258
19712SOL    HW260588   7.681   0.572   5.743  1.2859  1.3982  1.5579
19713SOL     OW60589   4.266   0.062   1.171 -0.1097  0.1769  0.1983
19713SOL    HW160590   4.219   0.034   1.250 -0.6113  0.1771 -0.1013
19713SOL    HW260591   4.270  -0.016   1.116 -0.0435  0.2635  0.0800
19714SOL     OW60592   2.967   0.838   8.509  0.1532 -0.0392 -0.2397
19714SOL    HW160593   2.905   0.822   8.580  0.9426  0.3662  0.5583
19714SOL    HW260594   2.954   0.931   8.487  1.2230  0.3645  0.7014
19715SOL     OW60595   8.438   4.881   0.741  0.1007 -0.2466  0.2462
19715SOL    HW160596   8.432   4.896   0.835  0.4114 -0.9711  0.3923
19715SOL    HW260597   8.471   4.792   0.733 -0.9786 -0.6016 -0.5588
19716SOL     OW60598   4.172   0.958   3.831  0.1929 -0.2198  0.5267
19716SOL    HW160599   4.232   1.011   3.779  0.8029 -0.9246  0.4945
19716SOL    HW260600   4.216   0.946   3.915 -0.4274  0.2262  0.9282
19717SOL     OW60601   4.325   9.062   1.139 -0.2981 -0.6854  0.0782
19717SOL    HW160602   4.334   9.065   1.234  0.9737 -1.5640  0.0210
19717SOL    HW260603   4.412   9.034   1.108  0.2780  2.4728 -1.5683
19718SOL     OW60604   4.587   8.636   4.459 -0.1066  0.2588  0.0389
19718SOL    HW160605   4.497   8.667   4.463 -0.6629 -1.3763  2.5801
19718SOL    HW260606   4.640   8.714   4.476 -1.0955  1.0095 -0.2590
19719SOL     OW60607   5.242   0.165   2.347 -0.4458  0.3720 -0.6345
19719SOL    HW160608   5.178   0.163   2.417 -0.0716 -0.8479 -0.2876
19719SOL    HW260609   5.308   0.228   2.376 -0.2418 -0.1962  0.1783
19720SOL     OW60610   7.676   9.190   4.059 -0.5416 -0.1408  0.5475
19720SOL    HW160611   7.635   9.247   4.124  0.6940 -0.3539  1.5479
19720SOL    HW260612   7.714   9.251   3.995  1.3605  0.2487  1.9694
19721SOL     OW60613   8.385   9.155   2.239  0.1092  0.3021 -0.2320
19721SOL    HW160614   8.361   9.090   2.174  2.1887 -1.7189  0.8863
19721SOL    HW260615   8.383   9.239   2.192 -0.7799 -0.7740 -2.2010
19722SOL     OW60616   1.827   6.310   4.368  0.0489 -0.6021  0.0366
19722SOL    HW160617   1.885   6.351   4.432 -1.6345  2.6194 -0.2646
19722SOL    HW260618   1.868   6.328   4.284 -0.1499 -0.5007 -0.0398
19723SOL     OW60619   8.315   4.451   1.533  0.2755 -0.5787  0.1264
19723SOL    HW160620   8.324   4.511   1.607 -1.1019 -1.0268  0.6795
19723SOL    HW260621   8.268   4.503   1.466  0.5545 -0.5232 -0.0295
19724SOL     OW60622   3.833   6.853   1.764 -0.3941 -0.1376 -0.8501
19724SOL    HW160623   3.843   6.903   1.683  0.1198  0.3896 -0.4717
19724SOL    HW260624   3.855   6.916   1.833 -0.6120 -0.6439 -0.3156
19725SOL     OW60625   5.389   5.158   7.952 -0.1117 -0.4877  0.6678
19725SOL    HW160626   5.463   5.205   7.913 -1.4592 -0.6188 -2.3392
19725SOL    HW260627   5.341   5.224   8.001  1.2226 -0.1171  1.5402
19726SOL     OW60628   0.869   1.342   3.905  0.0813  0.2439  0.0235
19726SOL    HW160629   0.799   1.291   3.865 -0.0353  1.3047 -1.2286
19726SOL    HW260630   0.876   1.309   3.994 -0.8978 -0.9907 -0.3311
19727SOL     OW60631   7.518   2.280   8.424 -0.0350 -0.0917 -0.0339
19727SOL    HW160632   7.519   2.238   8.510  1.3503  0.8664  0.4494
19727SOL    HW260633   7.513   2.208   8.361 -2.7412 -0.7593  0.8343
19728SOL     OW60634   5.479   4.213   8.175  0.4745 -0.2256  0.1799
19728SOL    HW160635   5.488   4.131   8.126  0.3397 -0.5235  0.6480
19728SOL    HW260636   5.500   4.281   8.111  1.1592 -0.6557 -0.0661
19729SOL     OW60637   8.432   5.950   8.865  0.9949 -0.7507  0.1533
19729SOL    HW160638   8.481   5.992   8.935 -0.1524  1.8198 -0.4722
19729SOL    HW260639   8.377   5.886   8.910  1.0951  0.0497  1.4743
19730SOL     OW60640   7.770   2.447   1.412  0.4026  0.4184  0.0866
19730SOL    HW160641   7.818   2.437   1.495 -0.2429 -2.0453  0.2312
19730SOL    HW260642   7.839   2.448   1.345  0.8263  0.5091  0.5152
19731SOL     OW60643   0.387   3.726   5.282  0.1727  0.3662  0.1167
19731SOL    HW160644   0.472   3.729   5.325  0.2377 -0.0507  0.0215
19731SOL    HW260645   0.397   3.662   5.211 -0.5144 -0.5050  0.7768
19732SOL     OW60646   5.495   8.128   6.254  0.7005  0.2748  0.0419
19732SOL    HW160647   5.537   8.166   6.331 -1.7071  0.2472  1.4729
19732SOL    HW260648   5.496   8.034   6.269  0.3511  0.2583 -0.0316
19733SOL     OW60649   8.150   3.016   4.764  0.5470 -0.2097  0.5137
19733SOL    HW160650   8.211   3.089   4.757  0.5652 -0.1161  1.5323
19733SOL    HW260651   8.180   2.966   4.841  0.8290 -1.5699 -0.4391
19734SOL     OW60652   0.438   2.572   0.070 -0.3957  0.7589 -0.4580
19734SOL    HW160653   0.444   2.558  -0.025 -0.1104  1.4840 -0.5514
19734SOL    HW260654   0.471   2.491   0.108 -0.7496  0.3648 -0.9813
19735SOL     OW60655   6.576   1.063   3.474 -0.0079 -0.3332  0.0306
19735SOL    HW160656   6.568   1.020   3.389  0.5906 -0.6602  0.1355
19735SOL    HW260657   6.542   1.151   3.459 -0.5653 -0.6110 -0.3696
19736SOL     OW60658   4.329   6.422   7.613  0.1100  0.3118  0.8916
19736SOL    HW160659   4.361   6.335   7.589  1.5894  1.4465 -1.6589
19736SOL    HW260660   4.385   6.449   7.686  1.8654  0.3282 -0.3872
19737SOL     OW60661   5.442   1.059   8.779 -0.0295  0.2805 -0.3011
19737SOL    HW160662   5.473   1.144   8.812 -1.1383  0.5504  0.1091
19737SOL    HW260663   5.349   1.057   8.802  0.3591 -1.8563  1.3949
19738SOL     OW60664   8.306   1.594   4.689 -0.7749  0.5235 -0.2455
19738SOL    HW160665   8.282   1.585   4.596  0.4528 -1.7069 -0.4055
19738SOL    HW260666   8.401   1.589   4.690 -0.6918  1.6432  1.0847
19739SOL     OW60667   0.071   3.246   5.145  0.5833 -0.4706 -0.2560
19739SOL    HW160668   0.113   3.203   5.219  0.8082 -0.4357 -0.3636
19739SOL    HW260669   0.012   3.310   5.185  0.4184 -0.7140 -0.0987
19740SOL     OW60670   7.493   3.185   0.840 -0.1316 -0.3601  0.2213
19740SOL    HW160671   7.514   3.211   0.930 -0.7307 -0.2998  0.3480
19740SOL    HW260672   7.532   3.098   0.830 -0.6083 -0.6419  0.7531
19741SOL     OW60673   9.211   4.060   1.742  0.1388 -0.5457 -0.3440
19741SOL    HW160674   9.199   4.056   1.837  0.8504  2.3293 -0.0415
19741SOL    HW260675   9.270   3.987   1.722  1.5666 -0.0626  1.7655
19742SOL     OW60676   7.433   6.161   8.758 -0.6132 -0.4198  0.1571
19742SOL    HW160677   7.508   6.103   8.752  0.2933  0.7024  0.3271
19742SOL    HW260678   7.384   6.129   8.834 -1.5750 -2.5439 -1.2371
19743SOL     OW60679   5.999   8.597   4.036 -0.1915 -0.3455 -0.5114
19743SOL    HW160680   6.088   8.602   4.071 -0.2299 -0.5728 -0.3786
19743SOL    HW260681   6.010   8.565   3.946  0.0683  2.0566 -1.4142
19744SOL     OW60682   7.327   4.449   5.928 -0.8165  0.4140  0.0361
19744SOL    HW160683   7.381   4.528   5.930 -1.5306  0.9162 -0.0981
19744SOL    HW260684   7.337   4.411   6.016  2.1212 -1.1731 -0.8452
19745SOL     OW60685   1.585   5.803   6.189 -0.6042 -0.0957 -0.3356
19745SOL    HW160686   1.587   5.828   6.096  0.6996  2.2116  0.2171
19745SOL    HW260687   1.657   5.741   6.198 -0.5353 -0.0938 -0.8183
19746SOL     OW60688   7.793   6.753   2.347  0.6840 -0.4991  0.0795
19746SOL    HW160689   7.875   6.710   2.323  1.2868  0.0456  1.0937
19746SOL    HW260690   7.819   6.820   2.411 -0.4883  0.0074  0.0461
19747SOL     OW60691   1.080   3.869   5.430  0.2629 -0.0048 -0.0139
19747SOL    HW160692   1.078   3.778   5.458  2.0321  0.1109  0.6311
19747SOL    HW260693   1.075   3.919   5.512 -3.0534  0.6083 -0.4540
19748SOL     OW60694   2.642   5.042   1.486 -0.5696  0.6372  0.4111
19748SOL    HW160695   2.644   4.955   1.525 -0.1664  0.5675  0.2428
19748SOL    HW260696   2.572   5.088   1.533 -1.0057  0.1186  0.2685
19749SOL     OW60697   6.965   6.853   3.127 -0.1448  0.5979 -0.3686
19749SOL    HW160698   7.017   6.905   3.066  1.0401  1.4943  1.3127
19749SOL    HW260699   6.972   6.763   3.094  1.1820  0.9356 -1.0694
19750SOL     OW60700   1.461   8.325   4.847 -0.0714  0.4511 -0.3329
19750SOL    HW160701   1.397   8.261   4.815  1.5068 -0.6517 -1.4362
19750SOL    HW260702   1.477   8.382   4.772  0.7055  0.3142 -0.2754
19751SOL     OW60703   0.078   4.209   7.229 -0.6178 -0.0505  0.7943
19751SOL    HW160704   0.021   4.187   7.302  2.0334  2.3389  3.9352
19751SOL    HW260705   0.032   4.278   7.181 -1.4906 -0.0602  1.6079
19752SOL     OW60706   6.473   5.340   2.355 -0.0046  0.3944 -0.2026
19752SOL    HW160707   6.538   5.340   2.425  2.1436  0.8330 -2.0918
19752SOL    HW260708   6.451   5.248   2.342  0.3281  0.2307  0.3614
19753SOL     OW60709   7.666   1.807   5.266  0.0840  0.1851  0.1799
19753SOL    HW160710   7.738   1.777   5.322 -0.6749 -0.8587  0.6247
19753SOL    HW260711   7.709   1.833   5.185  0.8879 -1.4336  0.0386
19754SOL     OW60712   6.436   5.711   6.372 -0.5560 -0.0396 -0.2760
19754SOL    HW160713   6.511   5.754   6.330 -0.5871  0.4857  0.1996
19754SOL    HW260714   6.362   5.769   6.353 -0.2589  1.2058  2.0410
19755SOL     OW60715   4.776   3.873   1.711  0.2974  0.2136 -0.0298
19755SOL    HW160716   4.869   3.896   1.718 -0.1408  1.7646  1.3839
19755SOL    HW260717   4.764   3.801   1.774  0.9204 -1.4885 -1.7634
19756SOL     OW60718   8.235   6.365   9.189 -0.7371 -0.2731  0.0134
19756SOL    HW160719   8.264   6.276   9.166 -2.6163 -1.3299  1.4459
19756SOL    HW260720   8.300   6.422   9.149  2.4772 -2.3810  1.7115
19757SOL     OW60721   0.917   2.823   8.827  0.0463  0.2414 -0.4945
19757SOL    HW160722   0.857   2.882   8.872 -0.6041 -1.6188  1.2702
19757SOL    HW260723   0.989   2.810   8.889  1.1279  0.6091 -1.6252
19758SOL     OW60724   4.217   5.106   4.740 -0.0414  0.3608 -0.4628
19758SOL    HW160725   4.235   5.191   4.781  0.5696  0.0131  0.0083
19758SOL    HW260726   4.164   5.128   4.663 -0.8124  1.0639  0.2472
19759SOL     OW60727   0.708   0.896   5.371 -0.3040  0.8008  0.7255
19759SOL    HW160728   0.720   0.959   5.301  2.4700 -2.2607 -1.9040
19759SOL    HW260729   0.791   0.895   5.418 -0.7048 -0.0632  1.4597
19760SOL     OW60730   1.930   8.480   1.658 -0.2853 -0.3525  0.9304
19760SOL    HW160731   2.026   8.477   1.661  0.1723  1.8985 -3.5534
19760SOL    HW260732   1.906   8.545   1.725  1.3577 -0.2918  1.5022
19761SOL     OW60733   6.656   2.182   6.444 -1.0520 -0.7510 -0.0640
19761SOL    HW160734   6.744   2.153   6.471 -0.3976  0.9000 -0.2939
19761SOL    HW260735   6.620   2.224   6.522 -1.0275 -0.1042 -0.3949
19762SOL     OW60736   7.826   7.083   2.801 -0.1493  0.3528  0.5365
19762SOL    HW160737   7.769   7.155   2.776  0.3687  0.3214 -0.8138
19762SOL    HW260738   7.909   7.102   2.758  0.2295 -0.6581  0.7928
19763SOL     OW60739   2.773   5.320   4.515 -0.1749  0.0711  0.1125
19763SOL    HW160740   2.763   5.386   4.583 -0.0151  0.5544 -0.3311
19763SOL    HW260741   2.811   5.367   4.441 -0.2900 -0.4638 -0.2914
19764SOL     OW60742   5.389   9.069   6.150  0.0309  0.4578  0.4649
19764SOL    HW160743   5.336   9.014   6.207 -1.1527  1.0163 -0.0596
19764SOL    HW260744   5.424   9.010   6.083 -0.4023  0.1759  0.4887
19765SOL     OW60745   6.576   1.286   5.387  0.1411 -0.2734  0.7423
19765SOL    HW160746   6.565   1.351   5.457  1.4005 -0.9111  1.5593
19765SOL    HW260747   6.593   1.338   5.308  2.5919  0.4154  1.6457
19766SOL     OW60748   7.438   8.849   1.521  0.3982  0.0013 -0.9627
19766SOL    HW160749   7.493   8.903   1.465  1.7595  0.3297  0.5982
19766SOL    HW260750   7.449   8.886   1.609 -0.2177 -1.5880 -0.1702
19767SOL     OW60751   2.506   9.246   1.710 -0.3383  0.0548 -0.5638
19767SOL    HW160752   2.415   9.223   1.691 -0.3282  0.1812 -0.7740
19767SOL    HW260753   2.524   9.208   1.796 -0.8328  0.6978 -0.1671
19768SOL     OW60754   4.359   1.939   6.049  0.4897 -0.1640  0.2972
19768SOL    HW160755   4.392   1.854   6.076  1.8778  0.0305 -0.7149
19768SOL    HW260756   4.351   1.933   5.954  0.9273  0.9374  0.1732
19769SOL     OW60757   2.138   2.752   3.858  0.2777  0.2272  0.0611
19769SOL    HW160758   2.096   2.692   3.919  2.3115 -0.0693  1.2294
19769SOL    HW260759   2.105   2.838   3.884 -0.3624 -0.0772  0.2935
19770SOL     OW60760   8.117   5.583   8.147 -0.0673 -0.0059 -0.4754
19770SOL    HW160761   8.157   5.572   8.060  0.4072  0.8751 -0.3760
19770SOL    HW260762   8.064   5.662   8.139 -1.6273 -1.0118 -0.5261
19771SOL     OW60763   5.023   5.148   7.112  0.2335 -0.1853 -0.6943
19771SOL    HW160764   4.938   5.107   7.127  0.8505 -1.7028 -1.0988
19771SOL    HW260765   5.079   5.112   7.180  0.7110  0.2738 -0.8407
19772SOL     OW60766   1.987   0.318   2.681  0.0333 -0.1786  0.4401
19772SOL    HW160767   2.069   0.284   2.646 -1.3638 -1.1332 -2.1867
19772SOL    HW260768   1.999   0.413   2.681  0.9168 -0.2687 -0.5205
19773SOL     OW60769   3.233   8.230   4.903 -0.0902 -0.6148  0.0488
19773SOL    HW160770   3.293   8.165   4.939  0.5459  0.6387  1.3634
19773SOL    HW260771   3.172   8.180   4.849  0.7805 -2.1972  0.4852
19774SOL     OW60772   8.824   0.556   1.128  0.2934  0.6433  0.1989
19774SOL    HW160773   8.758   0.488   1.139 -0.5363  1.1069 -1.5050
19774SOL    HW260774   8.822   0.605   1.210  2.4416 -2.5588  2.4243
19775SOL     OW60775   7.513   2.433   0.815  0.2414  0.7848  0.2622
19775SOL    HW160776   7.524   2.519   0.858  1.5931  0.1979  1.1839
19775SOL    HW260777   7.600   2.414   0.778  0.1738 -0.5091  0.7204
19776SOL     OW60778   6.513   2.117   0.140  0.6705  0.4457 -0.4925
19776SOL    HW160779   6.438   2.058   0.138 -0.1861  1.5183 -2.1610
19776SOL    HW260780   6.488   2.183   0.206  0.4845  0.3837 -0.4983
19777SOL     OW60781   0.881   6.558   9.015 -0.1800 -0.1712 -0.3278
19777SOL    HW160782   0.799   6.600   8.990  0.2879 -0.0994 -1.8398
19777SOL    HW260783   0.897   6.492   8.947  1.6240  0.6796 -0.8031
19778SOL     OW60784   8.782   6.796   6.388  0.1074  0.2401  0.2533
19778SOL    HW160785   8.696   6.833   6.410 -0.1389  0.4554 -0.9770
19778SOL    HW260786   8.844   6.849   6.437 -0.4302  0.3955  0.7853
19779SOL     OW60787   4.143   6.367   5.388  0.1342  0.0154  0.1647
19779SOL    HW160788   4.078   6.430   5.359  0.7455  0.9096  0.6679
19779SOL    HW260789   4.213   6.421   5.426  1.3320 -0.8909 -0.6996
19780SOL     OW60790   0.061   6.151   3.389 -0.1655  0.2508 -0.3436
19780SOL    HW160791  -0.016   6.144   3.332 -0.5867 -0.9896  0.3373
19780SOL    HW260792   0.117   6.078   3.363 -0.3353 -0.2949  0.7690
19781SOL     OW60793   2.832   9.049   6.958  0.0235  0.4415 -0.8659
19781SOL    HW160794   2.744   9.083   6.975 -0.6009 -1.2494 -0.4946
19781SOL    HW260795   2.821   8.989   6.885  1.1937  1.4171 -1.8874
19782SOL     OW60796   3.697   4.756   1.067  0.3337  0.4721 -0.4564
19782SOL    HW160797   3.706   4.850   1.077 -0.7268  0.5353  0.0260
19782SOL    HW260798   3.623   4.732   1.123  0.3010 -0.5805 -0.9118
19783SOL     OW60799   0.686   4.469   8.251  0.0802  0.5718  0.1049
19783SOL    HW160800   0.716   4.395   8.304 -0.2542  0.5057  0.2067
19783SOL    HW260801   0.765   4.518   8.232  0.1326  0.9843  1.2737
19784SOL     OW60802   6.334   4.457   5.031  0.0779 -0.2267  0.1462
19784SOL    HW160803   6.243   4.487   5.036  0.4119  1.1379 -1.3302
19784SOL    HW260804   6.354   4.455   4.937  2.0611  1.0487  0.4810
19785SOL     OW60805   8.746   7.537   1.787  0.1555  0.2988 -0.6829
19785SOL    HW160806   8.668   7.504   1.742 -0.6757  0.5218  0.5545
19785SOL    HW260807   8.809   7.464   1.782 -0.3016 -0.0631 -1.2677
19786SOL     OW60808   1.534   2.879   7.436 -0.4940 -0.0380 -0.6280
19786SOL    HW160809   1.548   2.974   7.445  1.4656  0.0162 -3.1478
19786SOL    HW260810   1.481   2.856   7.512 -1.4311  3.1448 -0.1410
19787SOL     OW60811   4.699   4.119   2.801 -0.1169 -0.0417 -0.0955
19787SOL    HW160812   4.705   4.100   2.894  0.3445 -0.7370 -0.2567
19787SOL    HW260813   4.605   4.131   2.785 -0.4463 -2.0051  0.0777
19788SOL     OW60814   0.509   5.684   2.684  0.5076  0.1983 -0.5298
19788SOL    HW160815   0.595   5.677   2.642  1.4496  0.2257  1.2978
19788SOL    HW260816   0.528   5.720   2.771 -1.0811 -1.7486  0.7059
19789SOL     OW60817   6.624   6.891   5.464  0.6379 -0.2381  0.2909
19789SOL    HW160818   6.555   6.838   5.424  0.3842  1.1713 -1.2669
19789SOL    HW260819   6.673   6.927   5.389  2.4865 -0.4231  1.3331
19790SOL     OW60820   6.079   8.856   8.933  0.0048  0.2018  0.1408
19790SOL    HW160821   6.013   8.924   8.918  1.8386  1.6873 -1.9274
19790SOL    HW260822   6.040   8.777   8.895 -1.0880  0.7281  0.1069
19791SOL     OW60823   7.263   5.167   9.062  0.0299  0.1654 -0.0954
19791SOL    HW160824   7.276   5.134   9.151  1.7362 -0.7066 -0.6230
19791SOL    HW260825   7.289   5.094   9.005 -1.0145  0.7095 -1.3279
19792SOL     OW60826   0.962   5.140   2.910 -0.1842 -0.3158  0.5413
19792SOL    HW160827   0.871   5.115   2.891 -0.1499 -0.8100  0.9979
19792SOL    HW260828   0.955   5.215   2.969 -0.2899  0.6021 -0.6021
19793SOL     OW60829   1.170   3.775   1.620  0.4420 -0.1791 -0.6485
19793SOL    HW160830   1.238   3.711   1.642  0.9487  0.8316  0.9005
19793SOL    HW260831   1.136   3.803   1.705 -0.3754  0.9522 -1.3268
19794SOL     OW60832   3.300   7.722   3.441  0.2879 -0.3124 -0.0749
19794SOL    HW160833   3.380   7.723   3.493  0.7249 -0.2466 -0.7303
19794SOL    HW260834   3.331   7.725   3.350 -0.4947  1.7531 -0.3149
19795SOL     OW60835   1.068   0.976   9.045 -0.5820 -0.2630 -0.6724
19795SOL    HW160836   1.064   1.070   9.027  0.9762 -0.4530 -2.2606
19795SOL    HW260837   1.101   0.937   8.964  1.5793 -1.8529  0.8484
19796SOL     OW60838   9.135   6.667   2.841 -0.1000 -0.5729  0.3060
19796SOL    HW160839   9.071   6.622   2.895 -1.7028  0.5268 -0.5983
19796SOL    HW260840   9.105   6.653   2.751  0.8939  0.0214 -0.1382
19797SOL     OW60841   2.932   2.063   7.902  0.1740 -0.0781  0.3691
19797SOL    HW160842   2.837   2.080   7.896 -0.0863 -1.7398 -1.0530
19797SOL    HW260843   2.967   2.100   7.821  1.0885  2.1286  1.6784
19798SOL     OW60844   0.644   6.820   6.176 -0.1032 -0.1560  0.2439
19798SOL    HW160845   0.576   6.881   6.204  0.3197  0.3031  0.2888
19798SOL    HW260846   0.726   6.861   6.204  0.0960 -1.8444  2.3464
19799SOL     OW60847   3.902   4.815   7.019  0.0860  0.6468 -0.5935
19799SOL    HW160848   3.972   4.803   7.083 -0.0771  3.6626  0.2849
19799SOL    HW260849   3.945   4.854   6.943 -0.0693 -1.0996 -1.6560
19800SOL     OW60850   1.619   7.882   8.653 -0.1603 -0.0275 -0.3300
19800SOL    HW160851   1.630   7.920   8.565  2.0152 -0.0310 -0.1139
19800SOL    HW260852   1.618   7.788   8.638  1.2874 -0.0617 -0.2727
19801SOL     OW60853   6.724   8.531   6.179 -1.1524 -0.3577 -0.2102
19801SOL    HW160854   6.770   8.491   6.105 -4.2025 -1.2788 -1.7854
19801SOL    HW260855   6.778   8.605   6.204  0.0890 -0.0778 -3.2902
19802SOL     OW60856   1.522   1.166   0.348 -0.0875 -0.1401  0.3296
19802SOL    HW160857   1.566   1.182   0.265  1.3287 -2.2922  0.5804
19802SOL    HW260858   1.574   1.215   0.412 -0.7630  0.9424  0.0788
19803SOL     OW60859   3.961   5.954   1.456 -0.2127 -0.2204 -0.1627
19803SOL    HW160860   3.921   5.945   1.370 -0.3487 -0.2143 -0.1000
19803SOL    HW260861   3.961   6.048   1.474  2.9892  0.2143 -1.6713
19804SOL     OW60862   2.601   0.624   4.450 -0.0891 -0.2831 -0.6467
19804SOL    HW160863   2.625   0.704   4.496 -2.0234  0.4206 -0.7818
19804SOL    HW260864   2.660   0.621   4.375  1.1309  0.0914  0.2663
19805SOL     OW60865   8.321   3.428   3.094 -0.1254 -0.3242 -0.0446
19805SOL    HW160866   8.281   3.507   3.057  0.4187 -0.2853 -0.5530
19805SOL    HW260867   8.249   3.365   3.099 -0.2295 -0.3049 -1.1101
19806SOL     OW60868   6.631   3.347   2.733  0.2264 -0.3998  0.4389
19806SOL    HW160869   6.613   3.441   2.722  1.3791  0.1828  2.8015
19806SOL    HW260870   6.559   3.315   2.787  0.6043 -0.5319  0.8699
19807SOL     OW60871   5.356   8.259   5.059  0.0868  0.0959  0.3469
19807SOL    HW160872   5.354   8.185   4.998 -2.7358  0.6999 -0.4240
19807SOL    HW260873   5.316   8.225   5.139 -1.1230  0.6955  0.0250
19808SOL     OW60874   0.576   8.878   8.093 -0.1854 -0.6995 -0.4415
19808SOL    HW160875   0.512   8.932   8.139  1.8435  1.3648  0.1498
19808SOL    HW260876   0.636   8.848   8.162  0.5395 -1.0536 -1.2121
19809SOL     OW60877   2.098   0.852   0.614 -0.0076 -0.3776 -0.1112
19809SOL    HW160878   2.143   0.809   0.541  0.4233  0.6828 -0.5004
19809SOL    HW260879   2.073   0.781   0.672 -1.5947 -1.3964 -1.9374
19810SOL     OW60880   2.224   3.882   2.483 -0.0614 -0.4905  0.0232
19810SOL    HW160881   2.181   3.960   2.517 -1.1878 -0.3974 -1.5120
19810SOL    HW260882   2.314   3.910   2.465 -0.6582  0.7125 -1.2621
19811SOL     OW60883   4.495   4.434   1.830 -0.0511  0.5088 -0.2043
19811SOL    HW160884   4.417   4.379   1.820  0.4455 -0.3355  0.4118
19811SOL    HW260885   4.568   4.373   1.829  0.6023  1.2760 -0.6239
19812SOL     OW60886   1.121   9.209   4.596 -0.1354  0.4866  0.3018
19812SOL    HW160887   1.144   9.276   4.531  1.9966 -2.2156 -1.9524
19812SOL    HW260888   1.032   9.183   4.573  0.8444 -0.9912 -2.2628
19813SOL     OW60889   3.218   4.093   0.972 -0.3164  0.0048 -0.6169
19813SOL    HW160890   3.291   4.035   0.992  0.8538  1.0398 -1.7321
19813SOL    HW260891   3.149   4.035   0.941 -0.4138 -1.1118  1.5115
19814SOL     OW60892   2.235   6.949   1.343  0.0225  0.1922 -0.0930
19814SOL    HW160893   2.262   6.985   1.258  2.4656 -0.7930  0.1749
19814SOL    HW260894   2.210   6.859   1.324  1.3553 -0.2836  0.3059
19815SOL     OW60895   8.621   2.920   6.562  0.8238  0.2612  0.1334
19815SOL    HW160896   8.562   2.887   6.629  2.3003 -0.8544  0.9401
19815SOL    HW260897   8.646   3.007   6.592 -0.2186  0.6780 -0.1321
19816SOL     OW60898   1.583   4.895   1.586  0.0114 -0.4136 -0.2656
19816SOL    HW160899   1.580   4.970   1.645 -0.2056 -1.2879  0.8729
19816SOL    HW260900   1.608   4.821   1.642  2.0018 -0.9011 -1.6775
19817SOL     OW60901   4.090   2.566   6.418 -0.3888 -0.6991  0.3587
19817SOL    HW160902   4.126   2.613   6.342  1.0456  0.1622  1.5026
19817SOL    HW260903   4.047   2.489   6.381  0.0993 -0.1959 -1.3383
19818SOL     OW60904   7.302   4.649   6.203  0.0884  0.8156  0.3050
19818SOL    HW160905   7.288   4.715   6.271  1.9652 -1.1657  2.8297
19818SOL    HW260906   7.369   4.687   6.146 -0.9853  2.2214 -0.0761
19819SOL     OW60907   8.021   0.011   1.635 -0.0067 -0.3598 -0.3630
19819SOL    HW160908   8.043   0.079   1.699  0.9486 -1.4354  0.5012
19819SOL    HW260909   8.099  -0.046   1.633 -1.1577 -2.0134 -0.2494
19820SOL     OW60910   0.698   6.410   6.583  0.3262  1.0496 -0.1240
19820SOL    HW160911   0.646   6.446   6.655  1.0979  0.5558  0.7047
19820SOL    HW260912   0.676   6.465   6.508 -0.3212  1.7299  0.5436
19821SOL     OW60913   0.704   2.671   4.344 -0.0503  0.1949 -0.0651
19821SOL    HW160914   0.713   2.755   4.299 -2.2748  0.4518 -0.1621
19821SOL    HW260915   0.727   2.606   4.277  0.3838  0.6806 -0.4013
19822SOL     OW60916   3.804   2.133   6.290 -0.2479  0.1427  0.5175
19822SOL    HW160917   3.869   2.202   6.306 -0.2066  0.2757 -0.1829
19822SOL    HW260918   3.766   2.115   6.376  1.6692 -0.8948  1.2055
19823SOL     OW60919   8.349   0.595   4.974  0.1497  0.6592  0.1719
19823SOL    HW160920   8.312   0.507   4.971  0.1267  0.6833 -0.2549
19823SOL    HW260921   8.282   0.651   4.935  0.2938  0.8204  0.1537
19824SOL     OW60922   6.607   4.394   4.408  0.0972 -0.0338 -0.5610
19824SOL    HW160923   6.553   4.368   4.483 -1.3118  1.1575 -1.1222
19824SOL    HW260924   6.664   4.464   4.443 -1.5142  1.4989 -0.8716
19825SOL     OW60925   6.761   2.346   3.970 -0.4394 -0.1371  0.2803
19825SOL    HW160926   6.814   2.415   4.010 -0.0676 -0.0122 -0.4166
19825SOL    HW260927   6.674   2.386   3.959 -0.6709 -0.3147  1.3397
19826SOL     OW60928   2.069   6.003   4.710  0.3626 -0.9589  0.2274
19826SOL    HW160929   2.086   6.014   4.804 -0.4039 -0.6632  0.3329
19826SOL    HW260930   2.143   6.045   4.667  1.4427 -2.2815  0.6992
19827SOL     OW60931   5.107   3.829   6.226  0.1401 -0.1423 -0.3207
19827SOL    HW160932   5.083   3.851   6.136  1.7810  0.6509 -0.6048
19827SOL    HW260933   5.027   3.846   6.276 -0.5111  0.3830 -1.4752
19828SOL     OW60934   7.601   8.816   7.784  0.2555 -0.4296  0.2926
19828SOL    HW160935   7.560   8.876   7.847  1.7907  0.9609  0.0276
19828SOL    HW260936   7.632   8.873   7.713  1.3382 -1.6009 -0.2144
19829SOL     OW60937   5.170   7.370   7.574  0.0513  0.3769 -0.4661
19829SOL    HW160938   5.079   7.346   7.590 -0.2668  1.4766 -0.5488
19829SOL    HW260939   5.182   7.453   7.621  1.3491 -0.3211  0.4982
19830SOL     OW60940   4.980   6.674   3.823 -0.0382  0.0411  0.0105
19830SOL    HW160941   5.055   6.652   3.768 -0.7821 -1.3529 -0.5155
19830SOL    HW260942   4.905   6.669   3.764 -0.7195 -0.2913  0.8871
19831SOL     OW60943   0.335   1.637   7.599 -0.3239 -0.4506 -0.3713
19831SOL    HW160944   0.399   1.615   7.667 -0.3800 -0.3008 -0.2701
19831SOL    HW260945   0.264   1.574   7.612  0.4321 -1.5574 -1.3839
19832SOL     OW60946   3.153   9.149   8.086 -0.7008 -0.2806  0.6960
19832SOL    HW160947   3.061   9.173   8.079 -0.5715 -0.2127 -1.4247
19832SOL    HW260948   3.196   9.197   8.015  1.1367  0.3875  2.2005
19833SOL     OW60949   6.712   1.554   2.825 -0.6079  0.4108 -0.0501
19833SOL    HW160950   6.797   1.562   2.782 -0.3791  0.3646  0.3915
19833SOL    HW260951   6.650   1.596   2.765 -0.2399  0.6487 -0.2637
19834SOL     OW60952   7.282   0.908   5.350 -0.0180  0.0031  0.1102
19834SOL    HW160953   7.355   0.847   5.339 -1.2122 -1.3663 -0.6924
19834SOL    HW260954   7.236   0.876   5.427 -0.1230  0.4765  0.2456
19835SOL     OW60955   2.887   7.044   3.126 -0.1954  0.3244  0.3408
19835SOL    HW160956   2.969   7.053   3.175  1.1219 -1.3392 -1.3747
19835SOL    HW260957   2.859   6.954   3.144 -1.3341  0.6951  0.4428
19836SOL     OW60958   2.334   7.380   7.761  0.3416  0.6347  0.1145
19836SOL    HW160959   2.411   7.342   7.719 -0.5886  0.0833 -1.1891
19836SOL    HW260960   2.299   7.440   7.695  0.3952  1.9229  1.2060
19837SOL     OW60961   6.598   0.013   4.758  0.1798 -0.3054  0.0949
19837SOL    HW160962   6.628  -0.019   4.673 -0.6568 -0.3449 -0.1999
19837SOL    HW260963   6.678   0.028   4.808  0.7184  0.6349 -1.0230
19838SOL     OW60964   1.545   8.234   7.170 -0.5603  0.8143 -1.2472
19838SOL    HW160965   1.469   8.193   7.211  0.0868  0.6167 -0.2161
19838SOL    HW260966   1.557   8.187   7.088 -0.6044 -0.2035 -0.6794
19839SOL     OW60967   6.133   0.600   1.958  0.8432 -0.1646  0.5374
19839SOL    HW160968   6.206   0.659   1.976  0.9839 -0.3044  0.4262
19839SOL    HW260969   6.056   0.644   1.995  0.7715  0.5930 -0.4602
19840SOL     OW60970   1.515   1.846   1.310  0.0111 -0.5282 -0.3337
19840SOL    HW160971   1.505   1.878   1.220  0.0673 -2.3932 -1.0336
19840SOL    HW260972   1.593   1.790   1.307  1.0077  0.6813  1.2758
19841SOL     OW60973   8.719   7.685   8.887 -0.1183  0.0557  0.5289
19841SOL    HW160974   8.627   7.661   8.871 -0.1171 -0.3311  1.0894
19841SOL    HW260975   8.757   7.693   8.799 -0.6831  0.2088  0.2935
19842SOL     OW60976   3.297   8.220   7.515 -0.3969 -0.0396 -0.0092
19842SOL    HW160977   3.382   8.177   7.502 -0.2769  0.5050 -1.1187
19842SOL    HW260978   3.275   8.202   7.607 -0.0851 -1.9691 -0.2717
19843SOL     OW60979   6.868   7.065   1.053  0.2889  0.3633  0.2706
19843SOL    HW160980   6.910   7.081   1.137 -1.5205  1.3775  1.0383
19843SOL    HW260981   6.785   7.023   1.074 -1.4338  3.0152 -0.7191
19844SOL     OW60982   2.619   9.256   3.246 -0.3162  0.0900 -0.7953
19844SOL    HW160983   2.700   9.213   3.276  0.3857 -0.0664 -2.7732
19844SOL    HW260984   2.646   9.307   3.170 -1.8723  1.0535 -0.7452
19845SOL     OW60985   4.380   0.915   2.395  0.1915 -0.0400 -0.1062
19845SOL    HW160986   4.341   0.944   2.477  0.2969  1.6146 -0.5929
19845SOL    HW260987   4.348   0.978   2.330  1.2301 -0.4610 -1.0604
19846SOL     OW60988   5.190   7.685   6.928 -0.1815  0.1778 -0.2776
19846SOL    HW160989   5.176   7.753   6.994 -2.1191 -1.8003  1.5429
19846SOL    HW260990   5.240   7.617   6.973  0.8997 -0.0583 -1.7537
19847SOL     OW60991   0.171   2.109   8.776 -0.4276 -0.4849 -0.5547
19847SOL    HW160992   0.201   2.198   8.791  0.2545 -0.9288  0.8750
19847SOL    HW260993   0.139   2.079   8.861  2.3195 -2.6700 -0.1229
19848SOL     OW60994   7.755   1.122   3.801  0.8665  0.2874 -0.0192
19848SOL    HW160995   7.839   1.121   3.845 -0.0972  1.3095  1.9778
19848SOL    HW260996   7.700   1.062   3.851 -0.7389  2.7054  1.3211
19849SOL     OW60997   8.187   5.701   2.952  0.3252 -0.1176 -0.0709
19849SOL    HW160998   8.234   5.779   2.925 -0.5060  0.4616  0.0999
19849SOL    HW260999   8.246   5.629   2.932  0.8832  0.5115 -0.7425
19850SOL     OW61000   2.080   4.909   0.669  0.3732  0.2119  0.0362
19850SOL    HW161001   2.013   4.866   0.723 -0.8080  1.5378 -0.3015
19850SOL    HW261002   2.159   4.857   0.682 -0.8134 -1.6498  0.1505
19851SOL     OW61003   4.648   8.256   8.811  0.1560 -0.2274  0.0318
19851SOL    HW161004   4.612   8.183   8.861 -0.8042 -0.3725 -0.8311
19851SOL    HW261005   4.619   8.334   8.859  2.3215 -0.3764  1.7231
19852SOL     OW61006   2.426   1.971   5.749  0.0971  0.3365 -0.0625
19852SOL    HW161007   2.434   1.889   5.798 -0.8267  0.6186  0.5903
19852SOL    HW261008   2.463   2.037   5.808 -1.4788  0.7569  0.5112
19853SOL     OW61009   7.121   5.787   6.885 -0.1620  0.2178 -0.3936
19853SOL    HW161010   7.041   5.758   6.929 -0.3157 -1.5072 -1.7190
19853SOL    HW261011   7.090   5.837   6.809  0.0861  1.4670  0.2888
19854SOL     OW61012   1.470   7.537   1.112  0.1864  0.1698 -0.7130
19854SOL    HW161013   1.461   7.512   1.020  3.0668 -0.7552 -0.8391
19854SOL    HW261014   1.530   7.473   1.149  1.0995  1.9704  1.1656
19855SOL     OW61015   2.105   4.563   7.295 -0.0736  0.0791 -0.3540
19855SOL    HW161016   2.072   4.536   7.209 -1.3814  0.6563 -0.0635
19855SOL    HW261017   2.145   4.648   7.281  0.0841 -0.0108 -0.4552
19856SOL     OW61018   0.500   3.206   6.596  0.0058  0.7947  0.0242
19856SOL    HW161019   0.504   3.168   6.684 -0.0468 -0.9290 -0.6693
19856SOL    HW261020   0.540   3.292   6.605  1.0536  0.1953  1.5122
19857SOL     OW61021   5.093   5.742   5.038  0.2544 -0.2023  0.2235
19857SOL    HW161022   5.046   5.803   4.982  1.7214  0.5738 -0.2277
19857SOL    HW261023   5.033   5.723   5.110 -0.8137  0.5526 -0.4492
19858SOL     OW61024   4.694   0.803   4.624  0.3014  0.1742  0.4461
19858SOL    HW161025   4.787   0.791   4.641  0.4181  1.4751  0.8683
19858SOL    HW261026   4.689   0.879   4.567 -0.4643 -0.4063 -0.2808
19859SOL     OW61027   1.314   0.230   4.722  0.2101 -0.5331  0.1031
19859SOL    HW161028   1.365   0.276   4.789 -1.8523 -1.4164  2.4226
19859SOL    HW261029   1.352   0.258   4.640  0.6179  3.4186  1.4461
19860SOL     OW61030   7.705   7.349   9.276 -0.1536 -0.1070 -0.1150
19860SOL    HW161031   7.656   7.326   9.197  0.5012  0.4633 -0.7054
19860SOL    HW261032   7.676   7.438   9.297  0.0584 -0.0573 -0.0259
19861SOL     OW61033   5.147   7.263   2.905  0.8539 -0.3119  0.5971
19861SOL    HW161034   5.168   7.193   2.968  2.6278 -1.7956 -1.4849
19861SOL    HW261035   5.089   7.222   2.842 -0.5666  1.0363  0.9759
19862SOL     OW61036   2.878   5.016   8.775  0.4087 -0.3580  0.2705
19862SOL    HW161037   2.840   4.996   8.689  0.0482  0.2398  0.2825
19862SOL    HW261038   2.804   5.012   8.836  0.6713 -0.8133  0.5594
19863SOL     OW61039   0.172   6.551   3.978  0.0690 -0.2150  0.1693
19863SOL    HW161040   0.133   6.591   3.901  0.1170 -2.0182 -0.8427
19863SOL    HW261041   0.266   6.561   3.966  0.0976 -1.0555 -0.3321
19864SOL     OW61042   8.114   4.327   4.386  0.0655  0.4076  0.0207
19864SOL    HW161043   8.172   4.251   4.393 -0.9143 -0.9354 -3.7064
19864SOL    HW261044   8.166   4.392   4.338 -0.1228  0.9128  0.4869
19865SOL     OW61045   8.653   5.898   3.368  0.6287  0.2178 -0.0445
19865SOL    HW161046   8.626   5.989   3.379 -1.6395 -0.3747 -0.1461
19865SOL    HW261047   8.578   5.847   3.401 -0.0174 -1.6066 -3.7716
19866SOL     OW61048   8.638   0.046   7.195 -0.2873 -0.5172 -0.2462
19866SOL    HW161049   8.712   0.065   7.137 -1.6028  0.9453 -1.5404
19866SOL    HW261050   8.615  -0.045   7.177  2.2245 -1.5990  1.4671
19867SOL     OW61051   0.226   3.506   2.722 -0.0750  0.1634 -0.7482
19867SOL    HW161052   0.184   3.554   2.650 -2.0820 -0.4099 -0.0340
19867SOL    HW261053   0.164   3.512   2.794 -0.4108 -3.3120 -0.5498
19868SOL     OW61054   4.978   0.942   0.755  0.6632  0.1755  0.1828
19868SOL    HW161055   4.956   0.958   0.663  0.9388  0.6383  0.1949
19868SOL    HW261056   4.894   0.946   0.800  0.4594 -0.5806 -0.1219
19869SOL     OW61057   0.879   5.007   0.354  0.1293 -0.0463 -0.3546
19869SOL    HW161058   0.865   4.996   0.260 -3.1666 -1.5559  0.1879
19869SOL    HW261059   0.900   5.100   0.365  0.9313  0.0836 -2.5617
19870SOL     OW61060   3.249   3.568   1.166  0.3264 -0.2313  0.1809
19870SOL    HW161061   3.236   3.473   1.174  1.8202 -0.4033  0.8137
19870SOL    HW261062   3.234   3.602   1.254 -2.5395  0.4796 -0.4858
19871SOL     OW61063   3.037   7.894   4.082  0.5488 -1.0120  0.0418
19871SOL    HW161064   3.105   7.961   4.080 -0.8084  0.4408 -1.7803
19871SOL    HW261065   2.966   7.935   4.133 -1.2995  0.1583 -3.1868
19872SOL     OW61066   7.214   8.739   4.093 -0.2761  0.3982  0.6231
19872SOL    HW161067   7.212   8.682   4.170 -0.4204 -1.4948 -0.6977
19872SOL    HW261068   7.302   8.777   4.094 -0.3599  0.6008  1.8322
19873SOL     OW61069   5.379   6.966   4.029 -0.0961 -0.3309  0.3318
19873SOL    HW161070   5.326   6.965   3.950 -1.3010 -0.3059  1.1183
19873SOL    HW261071   5.469   6.953   3.998 -0.7095 -1.9043 -0.9123
19874SOL     OW61072   2.500   0.322   7.669 -0.5016  0.1579 -0.3321
19874SOL    HW161073   2.432   0.336   7.603 -0.6484 -0.0905 -0.2387
19874SOL    HW261074   2.570   0.382   7.645  0.1975 -1.1604 -1.7658
19875SOL     OW61075   5.743   7.747   8.870  0.3501  0.3978 -0.1227
19875SOL    HW161076   5.754   7.839   8.843  2.5228  0.5198  0.9502
19875SOL    HW261077   5.780   7.697   8.797  1.0507  0.4889  0.1588
19876SOL     OW61078   1.920   8.652   1.872  0.1299 -0.6488  0.0642
19876SOL    HW161079   1.907   8.743   1.899 -0.2944 -0.2981 -1.2223
19876SOL    HW261080   2.013   8.636   1.885  0.0853 -0.2632  0.9433
19877SOL     OW61081   8.073   7.685   1.035 -0.3756 -0.1116 -0.0097
19877SOL    HW161082   8.054   7.779   1.038  1.4510  0.3176 -0.7327
19877SOL    HW261083   8.057   7.661   0.943  0.6678 -0.1408 -0.1947
19878SOL     OW61084   8.939   2.164   2.075 -0.2462  0.5870  0.2389
19878SOL    HW161085   8.969   2.129   2.159 -1.0877  0.4928  0.5157
19878SOL    HW261086   8.851   2.127   2.064 -0.7685  1.8235  0.0708
19879SOL     OW61087   7.321   4.157   6.779  0.5686 -0.1121 -0.2910
19879SOL    HW161088   7.287   4.108   6.705  1.5862 -0.4067 -0.5872
19879SOL    HW261089   7.354   4.238   6.741  0.9597 -0.2005 -0.1472
19880SOL     OW61090   8.262   8.205   3.900  0.7814  0.0553  0.0007
19880SOL    HW161091   8.267   8.112   3.923  0.7946  0.0090 -0.1915
19880SOL    HW261092   8.192   8.239   3.956  0.9962 -0.0011  0.3041
19881SOL     OW61093   5.979   1.964   0.890 -0.2433  0.5539 -0.1949
19881SOL    HW161094   5.989   2.012   0.808  0.3393 -0.9841 -1.0619
19881SOL    HW261095   6.012   2.024   0.957 -2.1147  2.4402 -0.8321
19882SOL     OW61096   6.450   9.169   0.158 -0.0153  0.5005  0.1574
19882SOL    HW161097   6.526   9.227   0.156 -0.4091  1.0124 -2.1114
19882SOL    HW261098   6.385   9.213   0.103 -0.6187 -1.6719 -0.9703
19883SOL     OW61099   5.532   8.233   0.166 -0.3520  0.4345 -0.2018
19883SOL    HW161100   5.437   8.248   0.170 -0.4029  0.2329 -0.6925
19883SOL    HW261101   5.546   8.187   0.084  0.2053  0.6914 -0.2543
19884SOL     OW61102   3.864   1.137   3.703 -0.0124 -0.0046  0.0766
19884SOL    HW161103   3.888   1.044   3.702  1.0392  0.2575 -0.2943
19884SOL    HW261104   3.863   1.161   3.796 -2.2788 -0.8504  0.3356
19885SOL     OW61105   2.000   0.064   4.880  0.0803  0.1593  0.0019
19885SOL    HW161106   1.982  -0.026   4.905 -0.1189 -0.1216 -1.0999
19885SOL    HW261107   1.983   0.067   4.786 -0.1878  1.4129  0.0681
19886SOL     OW61108   1.709   2.108   6.592 -0.6207  0.6583  0.6739
19886SOL    HW161109   1.701   2.193   6.548  0.8929  0.8875  0.7673
19886SOL    HW261110   1.690   2.044   6.523 -0.9576  1.0575  0.3892
19887SOL     OW61111   3.557   2.814   5.856 -0.2016 -0.1121 -0.1140
19887SOL    HW161112   3.626   2.751   5.837 -0.7471 -0.7621  0.0058
19887SOL    HW261113   3.476   2.767   5.835 -0.5725  0.9720 -1.2247
19888SOL     OW61114   0.596   6.064   0.793  0.2569  0.1187 -0.2362
19888SOL    HW161115   0.657   6.133   0.817  1.1366 -0.8773  0.4575
19888SOL    HW261116   0.536   6.058   0.868  1.4558 -1.2485  0.6856
19889SOL     OW61117   8.618   2.029   2.573  0.0017  0.1983  0.3871
19889SOL    HW161118   8.568   1.970   2.630  0.7688 -1.1673 -0.3019
19889SOL    HW261119   8.596   2.001   2.484  0.9687  0.4484  0.0537
19890SOL     OW61120   4.578   7.398   8.401 -1.0791  0.0676 -0.1524
19890SOL    HW161121   4.622   7.468   8.352  1.3803 -0.1487  1.5272
19890SOL    HW261122   4.523   7.445   8.465 -1.2591  0.4138 -0.5594
19891SOL     OW61123   4.469   0.215   7.774 -0.3966 -0.0603  0.1561
19891SOL    HW161124   4.528   0.280   7.737  0.7859 -1.5505 -0.6972
19891SOL    HW261125   4.393   0.216   7.716  0.4393 -0.7371 -0.9999
19892SOL     OW61126   5.818   4.007   0.769 -0.0161  0.0541  0.4749
19892SOL    HW161127   5.911   4.006   0.791  0.0701 -0.1911  0.1127
19892SOL    HW261128   5.775   3.964   0.843  0.4066 -1.9688 -0.3960
19893SOL     OW61129   4.297   8.366   2.482  0.2100 -0.3036 -0.6751
19893SOL    HW161130   4.369   8.369   2.546  0.8715 -1.8552 -1.3115
19893SOL    HW261131   4.317   8.436   2.420 -0.2536  0.9968  0.5824
19894SOL     OW61132   0.487   3.790   8.089 -0.5500 -0.0528  0.1118
19894SOL    HW161133   0.555   3.810   8.153 -0.7982 -1.5930  0.9109
19894SOL    HW261134   0.533   3.787   8.005 -0.3617  2.8083  0.0289
19895SOL     OW61135   1.731   1.463   7.264  0.3277  0.1965 -0.0056
19895SOL    HW161136   1.769   1.515   7.335  0.5546  1.2655 -0.8922
19895SOL    HW261137   1.642   1.496   7.255 -0.4957 -1.4861  1.2558
19896SOL     OW61138   2.182   6.377   1.899 -0.2869 -0.1185  0.0618
19896SOL    HW161139   2.170   6.404   1.990 -1.1642  2.0300 -0.6060
19896SOL    HW261140   2.271   6.403   1.877 -1.0246  2.2422 -0.4829
19897SOL     OW61141   0.392   0.699   7.915  0.0322  0.0271 -0.3104
19897SOL    HW161142   0.308   0.674   7.954 -0.1165 -1.1912 -1.3399
19897SOL    HW261143   0.407   0.788   7.946 -2.0390  0.5854 -0.7682
19898SOL     OW61144   5.663   4.336   1.679  0.1506  0.3343  0.2601
19898SOL    HW161145   5.701   4.380   1.603  0.0884 -0.2322 -0.0946
19898SOL    HW261146   5.684   4.244   1.667  0.4079  0.2738  1.0835
19899SOL     OW61147   7.442   4.267   3.473  0.3098 -0.1267 -0.4035
19899SOL    HW161148   7.360   4.219   3.487  1.1209 -1.5707 -0.4245
19899SOL    HW261149   7.418   4.359   3.487 -0.8576 -0.6755  1.7317
19900SOL     OW61150   7.696   0.776   6.190  0.3698 -0.0773 -0.1420
19900SOL    HW161151   7.656   0.855   6.155  2.9972  1.1136 -0.6395
19900SOL    HW261152   7.669   0.707   6.130  1.3201  1.1802 -2.1197
19901SOL     OW61153   4.388   1.543   1.880 -0.1701  0.1289 -0.2729
19901SOL    HW161154   4.387   1.632   1.844  1.4444  0.1953 -0.2318
19901SOL    HW261155   4.388   1.487   1.803  0.6774  0.2160 -0.3440
19902SOL     OW61156   5.165   2.696   2.436  0.0595 -0.3673  0.1314
19902SOL    HW161157   5.102   2.629   2.409 -0.7872  0.2444  0.5421
19902SOL    HW261158   5.241   2.647   2.467 -0.3214 -1.1229 -0.1141
19903SOL     OW61159   5.408   3.004   6.475 -0.2807 -0.6326 -0.1356
19903SOL    HW161160   5.423   2.932   6.537 -0.3425  0.0821  0.7292
19903SOL    HW261161   5.315   3.022   6.481  0.0139  0.7154  1.0447
19904SOL     OW61162   3.273   9.105   0.859  0.0883 -0.2291 -0.0874
19904SOL    HW161163   3.215   9.037   0.827 -1.4131  0.6295  0.6971
19904SOL    HW261164   3.240   9.186   0.819 -1.0000  0.6770  2.4445
19905SOL     OW61165   2.620   7.826   2.278 -0.2192 -0.1763 -0.3534
19905SOL    HW161166   2.703   7.783   2.258 -0.8390 -0.3223 -3.0511
19905SOL    HW261167   2.584   7.776   2.350 -0.0398 -3.0853 -2.1329
19906SOL     OW61168   4.048   6.587   7.515 -0.1850  0.0845 -0.0291
19906SOL    HW161169   4.133   6.544   7.516  0.1278  0.6940  1.0699
19906SOL    HW261170   4.020   6.590   7.607 -0.9916  0.6624 -0.2745
19907SOL     OW61171   6.908   2.087   6.944  0.4231 -1.1195 -0.3374
19907SOL    HW161172   6.951   2.161   6.986 -0.5663 -0.1813 -0.9410
19907SOL    HW261173   6.886   2.028   7.017 -0.1058 -0.1249  0.3418
19908SOL     OW61174   5.233   4.076   6.360  0.4649  0.1179  0.2913
19908SOL    HW161175   5.265   4.130   6.287  0.9986  0.1806  0.5663
19908SOL    HW261176   5.208   3.993   6.319  3.3478 -0.8893  0.3509
19909SOL     OW61177   2.058   1.062   3.898  0.3140  0.2044  0.0384
19909SOL    HW161178   1.982   1.009   3.921  1.3844 -0.9630  1.0644
19909SOL    HW261179   2.095   1.018   3.821  0.5197  0.1606  0.1612
19910SOL     OW61180   2.981   0.696   6.784 -0.2495  0.2910  0.4178
19910SOL    HW161181   2.947   0.614   6.748  1.2954 -0.0893 -0.2666
19910SOL    HW261182   2.985   0.680   6.879  1.2329 -0.9417  0.1927
19911SOL     OW61183   4.024   0.341   5.378  0.2222  0.0146  0.7281
19911SOL    HW161184   3.940   0.334   5.422  0.7909  0.9121  2.0211
19911SOL    HW261185   4.078   0.392   5.438  0.8124  1.9594 -1.3327
19912SOL     OW61186   2.915   4.871   6.235  0.4023  0.3435 -0.1343
19912SOL    HW161187   2.902   4.920   6.153  0.7128  0.2935 -0.2167
19912SOL    HW261188   3.010   4.860   6.241  0.3415 -0.1569 -0.0603
19913SOL     OW61189   6.421   0.264   8.825 -0.1178 -0.2984  0.4893
19913SOL    HW161190   6.368   0.306   8.757 -1.0542 -4.0954 -1.3927
19913SOL    HW261191   6.366   0.267   8.903 -0.9705  0.1750 -0.1116
19914SOL     OW61192   1.989   5.617   4.280  0.0582  0.5315  0.0738
19914SOL    HW161193   1.986   5.699   4.329  0.0574  1.0919 -0.8493
19914SOL    HW261194   1.948   5.553   4.338 -0.9224  1.4130  0.3804
19915SOL     OW61195   2.785   3.458   4.243 -0.2881 -0.2388 -0.5457
19915SOL    HW161196   2.801   3.373   4.284 -1.0035  0.2643  0.8535
19915SOL    HW261197   2.694   3.454   4.213 -0.3507  0.0619 -0.3979
19916SOL     OW61198   2.843   2.385   7.758  0.2644  0.2460  0.8743
19916SOL    HW161199   2.875   2.309   7.710 -1.0226 -0.0578  0.4624
19916SOL    HW261200   2.883   2.378   7.844  0.5275 -0.6432  0.6882
19917SOL     OW61201   0.934   8.248   3.771  0.2568 -0.1570  0.6801
19917SOL    HW161202   0.915   8.217   3.859 -0.4140  0.0862  0.6238
19917SOL    HW261203   0.849   8.254   3.728  0.1470  3.1404  1.1099
19918SOL     OW61204   7.174   8.012   4.962 -0.0885  0.2863  0.1446
19918SOL    HW161205   7.121   7.932   4.960  0.2849  0.0264  0.4622
19918SOL    HW261206   7.263   7.981   4.982  0.0159  0.7998  0.4921
19919SOL     OW61207   6.734   4.147   2.898  0.7090  0.0072  0.4117
19919SOL    HW161208   6.786   4.203   2.841  0.3095  0.2317  0.2600
19919SOL    HW261209   6.793   4.122   2.969  1.0959  0.0411  0.1017
19920SOL     OW61210   6.470   8.402   2.063 -0.5119  0.0793 -0.0342
19920SOL    HW161211   6.504   8.318   2.095 -0.9840  0.3236  1.1848
19920SOL    HW261212   6.386   8.380   2.023  0.3372 -0.3133 -1.7086
19921SOL     OW61213   4.889   7.153   2.025  0.6571 -0.5109  0.2956
19921SOL    HW161214   4.820   7.118   1.969  1.6407  0.3759 -1.5655
19921SOL    HW261215   4.955   7.083   2.028  1.2184 -0.0473 -0.8278
19922SOL     OW61216   1.426   3.781   4.108 -0.2234  0.1096 -0.4944
19922SOL    HW161217   1.362   3.822   4.050 -0.3837  1.0075  0.2756
19922SOL    HW261218   1.379   3.771   4.191  0.0138 -1.0977 -0.4920
19923SOL     OW61219   5.839   2.293   8.758 -0.0342 -0.1245  0.2562
19923SOL    HW161220   5.893   2.291   8.679  0.6867  0.6100  0.7223
19923SOL    HW261221   5.867   2.370   8.806 -1.4846  0.2653  0.5422
19924SOL     OW61222   0.858   0.537   7.587 -0.5018  0.4319  0.5639
19924SOL    HW161223   0.797   0.606   7.562 -0.6248 -0.3189 -1.3765
19924SOL    HW261224   0.936   0.552   7.533 -0.8231 -1.3543 -0.4744
19925SOL     OW61225   0.789   0.032   7.269 -0.0875 -0.5758 -0.0402
19925SOL    HW161226   0.812  -0.057   7.299  0.0075 -0.7920 -0.7450
19925SOL    HW261227   0.843   0.089   7.324 -1.6230 -0.8271  1.8368
19926SOL     OW61228   4.210   3.047   2.646  0.1979 -0.4634 -0.4723
19926SOL    HW161229   4.138   3.102   2.615 -0.7063 -2.0287 -1.2882
19926SOL    HW261230   4.173   2.997   2.719  1.4918  1.1216  1.3778
19927SOL     OW61231   7.280   4.448   6.731  0.5459 -0.7197  0.3620
19927SOL    HW161232   7.201   4.447   6.784  0.5162  2.1477  0.4957
19927SOL    HW261233   7.257   4.499   6.654  2.4499  1.0021  0.8328
19928SOL     OW61234   0.319   5.736   8.885 -0.3107 -0.6764  0.0700
19928SOL    HW161235   0.301   5.785   8.965  0.6731 -2.4236  1.4581
19928SOL    HW261236   0.233   5.705   8.856 -0.5031 -2.1365  1.9576
19929SOL     OW61237   1.694   1.961   5.853 -0.0657 -0.0937  0.1296
19929SOL    HW161238   1.748   2.010   5.790 -1.6136  2.1010  0.4007
19929SOL    HW261239   1.744   1.964   5.935 -0.0172  0.8421  0.0749
19930SOL     OW61240   5.394   1.876   5.060 -0.4416  0.2233  0.0571
19930SOL    HW161241   5.314   1.903   5.016 -0.2690 -0.6452 -0.8075
19930SOL    HW261242   5.387   1.781   5.066  0.1743  0.2130  0.6716
19931SOL     OW61243   5.819   1.906   0.514 -0.3251 -0.0629  0.2985
19931SOL    HW161244   5.777   1.945   0.591  1.4118 -1.4743  2.0653
19931SOL    HW261245   5.912   1.922   0.526 -0.0259  0.2820 -1.9335
19932SOL     OW61246   8.445   4.642   8.874 -0.3397 -0.2229 -0.5088
19932SOL    HW161247   8.516   4.683   8.924 -0.3727 -0.6011 -0.1505
19932SOL    HW261248   8.441   4.693   8.793  0.9019 -0.6933 -0.8979
19933SOL     OW61249   7.069   1.929   2.002  0.2462  1.0180 -0.8321
19933SOL    HW161250   7.004   1.871   2.043  0.2363  0.9745 -0.9075
19933SOL    HW261251   7.092   1.992   2.070  2.6539 -0.9682  0.3670
19934SOL     OW61252   3.972   4.488   6.888 -0.1050 -1.2564 -0.5377
19934SOL    HW161253   3.919   4.520   6.961 -2.4730  0.3390 -2.7812
19934SOL    HW261254   4.050   4.543   6.890 -0.8407 -0.1910 -0.1019
19935SOL     OW61255   1.961   5.662   8.022 -0.5268 -0.1157  0.3195
19935SOL    HW161256   1.927   5.739   7.976 -1.0285 -1.5692 -1.9096
19935SOL    HW261257   1.904   5.653   8.098 -2.0392  0.3541 -0.7074
19936SOL     OW61258   7.962   5.812   8.198  0.2437 -0.1062  0.0508
19936SOL    HW161259   7.882   5.823   8.249  0.7787 -1.1027  1.1726
19936SOL    HW261260   7.935   5.825   8.108 -0.8204  1.3377  0.5299
19937SOL     OW61261   7.218   3.487   7.604 -0.0611 -0.2304 -0.0776
19937SOL    HW161262   7.243   3.395   7.611 -0.9867 -0.5166 -0.3992
19937SOL    HW261263   7.195   3.499   7.512  0.9089  0.5576 -0.2385
19938SOL     OW61264   5.617   4.138   3.909  0.3438  0.3992 -0.6003
19938SOL    HW161265   5.541   4.081   3.923 -0.0399  1.3966  1.7724
19938SOL    HW261266   5.671   4.127   3.986  0.9874  2.1417 -0.7542
19939SOL     OW61267   3.271   4.647   8.468 -0.2177  0.5381  0.6856
19939SOL    HW161268   3.216   4.698   8.409  0.2374  0.8238  0.5116
19939SOL    HW261269   3.342   4.615   8.414 -1.4302 -1.8092  0.3564
19940SOL     OW61270   7.020   8.281   7.259 -0.1967 -0.5107 -0.0735
19940SOL    HW161271   6.941   8.284   7.312  0.2852  1.4270  0.6304
19940SOL    HW261272   7.012   8.200   7.208 -1.7225 -1.2891  1.3154
19941SOL     OW61273   8.668   1.221   0.570 -0.1869 -0.4548 -0.3192
19941SOL    HW161274   8.683   1.130   0.595  2.8327  0.1408  0.4635
19941SOL    HW261275   8.610   1.256   0.638  0.5544 -1.1991  0.7232
19942SOL     OW61276   6.794   4.817   3.476  0.0564 -0.2130 -0.1836
19942SOL    HW161277   6.753   4.815   3.390 -0.7307  1.4630  0.1205
19942SOL    HW261278   6.888   4.822   3.457 -0.0694 -0.5071 -0.9233
19943SOL     OW61279   6.347   3.791   0.956 -0.0607 -0.5513  0.3363
19943SOL    HW161280   6.369   3.884   0.965  0.5404 -0.7225  0.6728
19943SOL    HW261281   6.356   3.772   0.863 -1.4268  0.0242  0.0550
19944SOL     OW61282   1.798   6.736   2.529  0.0038 -0.3282  0.5031
19944SOL    HW161283   1.877   6.695   2.563  0.1629 -0.1516  0.3485
19944SOL    HW261284   1.796   6.822   2.570 -0.3078 -0.4731  0.7959
19945SOL     OW61285   3.560   3.729   2.443  0.0304  0.2227  0.1006
19945SOL    HW161286   3.643   3.764   2.477  0.1418  1.7408 -1.5730
19945SOL    HW261287   3.493   3.786   2.479 -0.6624 -2.3769  3.3528
19946SOL     OW61288   5.312   5.127   3.760  0.2384  0.5456 -0.1841
19946SOL    HW161289   5.358   5.200   3.801  1.7389  0.0026 -0.7996
19946SOL    HW261290   5.381   5.079   3.713 -1.0177 -0.1825 -1.3624
19947SOL     OW61291   5.806   3.131   5.339  0.3454  0.8355  0.1043
19947SOL    HW161292   5.882   3.073   5.331 -0.4892 -0.1693 -0.6951
19947SOL    HW261293   5.735   3.074   5.367 -0.5742  1.3875 -1.0293
19948SOL     OW61294   9.174   4.648   8.795 -0.3430  0.2527 -0.6282
19948SOL    HW161295   9.147   4.707   8.865  0.4484 -0.2278  0.0896
19948SOL    HW261296   9.140   4.562   8.821 -0.8650  0.2316 -1.3150
19949SOL     OW61297   0.963   8.817   7.980  0.3889 -0.5034  0.4827
19949SOL    HW161298   0.883   8.828   7.929 -0.1989  0.6540  1.5921
19949SOL    HW261299   1.009   8.745   7.938 -1.1285 -1.0368 -0.3203
19950SOL     OW61300   5.258   1.774   0.345  0.4726 -0.4650 -0.3688
19950SOL    HW161301   5.207   1.844   0.383  3.1179  0.7197  1.3156
19950SOL    HW261302   5.228   1.695   0.390  0.5167  0.2955  1.0709
19951SOL     OW61303   5.799   5.608   5.852  0.3628  0.0284 -0.1355
19951SOL    HW161304   5.786   5.532   5.910 -0.0404 -0.1179 -0.4078
19951SOL    HW261305   5.893   5.626   5.856  0.6738 -1.2586 -1.0211
19952SOL     OW61306   4.244   0.491   1.293 -0.0643  0.5170 -0.3798
19952SOL    HW161307   4.298   0.547   1.238 -1.0498  0.0071 -1.9170
19952SOL    HW261308   4.155   0.525   1.282 -0.3362  0.1636  0.6003
19953SOL     OW61309   3.356   6.134   6.214 -0.2724  0.4429 -0.0635
19953SOL    HW161310   3.376   6.041   6.213 -0.2357  0.4472  0.1697
19953SOL    HW261311   3.278   6.143   6.159 -0.2874  0.2728 -0.0694
19954SOL     OW61312   8.624   7.553   0.658  0.4078  0.0935  0.8014
19954SOL    HW161313   8.663   7.586   0.578  1.2478 -0.7644  0.8348
19954SOL    HW261314   8.695   7.555   0.722 -0.7235  2.6263  2.1197
19955SOL     OW61315   0.056   2.550   8.238 -0.8643  0.7218 -0.5145
19955SOL    HW161316   0.109   2.541   8.158 -1.8675  1.5552 -1.3142
19955SOL    HW261317   0.007   2.468   8.243 -1.0327  0.7885 -0.9509
19956SOL     OW61318   4.153   5.694   7.785 -0.2052  0.1684  0.3447
19956SOL    HW161319   4.183   5.654   7.704 -0.1009 -0.8933  0.8824
19956SOL    HW261320   4.166   5.626   7.851 -3.2680 -0.2271  0.7111
19957SOL     OW61321   3.725   9.100   2.796 -0.0574  0.3839 -0.0196
19957SOL    HW161322   3.799   9.127   2.850  0.6795 -0.5400 -0.5373
19957SOL    HW261323   3.701   9.179   2.748  1.1244  0.5032 -0.4476
19958SOL     OW61324   5.012   0.115   7.925  0.5708  0.3123  0.0559
19958SOL    HW161325   5.002   0.065   7.844 -0.6599  0.9528 -0.2120
19958SOL    HW261326   4.939   0.177   7.924  1.6147  1.5945  0.7543
19959SOL     OW61327   8.160   5.662   0.762 -0.1707 -0.1438 -0.6359
19959SOL    HW161328   8.114   5.579   0.748  0.0510 -0.2681 -0.6284
19959SOL    HW261329   8.252   5.642   0.743  0.0648 -0.1906  0.4874
19960SOL     OW61330   6.104   8.044   4.952  0.2733 -0.0763  0.3615
19960SOL    HW161331   6.018   8.014   4.980  0.3507 -0.0630  0.6179
19960SOL    HW261332   6.087   8.121   4.898  0.1432  0.1271  0.6912
19961SOL     OW61333   6.737   8.063   0.913 -0.5626 -0.1813  0.1039
19961SOL    HW161334   6.643   8.063   0.894 -1.0513 -1.3459  2.2120
19961SOL    HW261335   6.750   8.137   0.972 -0.1351 -0.0224 -0.1828
19962SOL     OW61336   7.936   7.588   7.434 -0.0761 -0.0014 -0.3047
19962SOL    HW161337   7.911   7.556   7.520  1.9035  0.7414  0.5926
19962SOL    HW261338   8.004   7.527   7.404 -2.9773 -2.2831 -2.9109
19963SOL     OW61339   2.510   5.898   8.046  0.4598 -0.8148 -0.3905
19963SOL    HW161340   2.512   5.866   7.955  0.9369 -0.1244 -0.6231
19963SOL    HW261341   2.601   5.900   8.073  0.3740 -0.3502 -0.1271
19964SOL     OW61342   3.594   7.836   5.666  0.0340  0.0240 -0.3433
19964SOL    HW161343   3.507   7.809   5.637 -0.4811  1.2107  0.0089
19964SOL    HW261344   3.581   7.867   5.755  0.8488  0.0998 -0.2425
19965SOL     OW61345   4.073   6.672   8.865  0.0850 -0.2385  0.3498
19965SOL    HW161346   4.147   6.672   8.804 -0.4880  1.0177 -0.3947
19965SOL    HW261347   4.082   6.755   8.913 -0.1874 -0.6278  1.0814
19966SOL     OW61348   5.299   0.597   4.328  0.3504  0.3574  0.0850
19966SOL    HW161349   5.376   0.541   4.334  0.7645  1.1061  2.7631
19966SOL    HW261350   5.308   0.641   4.243  1.2846 -1.7048 -0.9710
19967SOL     OW61351   0.885   3.928   4.119 -0.0294 -0.6332  0.6982
19967SOL    HW161352   0.794   3.938   4.091 -0.5333  0.6961  2.6230
19967SOL    HW261353   0.936   3.974   4.052 -0.6179 -2.2137 -0.9337
19968SOL     OW61354   6.247   6.972   1.611 -0.3495 -0.7135  0.3863
19968SOL    HW161355   6.226   7.028   1.536 -2.0482 -1.4348  0.2869
19968SOL    HW261356   6.330   7.007   1.644 -0.6237  0.9267 -0.5547
19969SOL     OW61357   3.050   4.462   2.127  0.1924 -0.5329  0.3197
19969SOL    HW161358   3.067   4.526   2.196  0.7609 -0.4414  0.0997
19969SOL    HW261359   2.965   4.487   2.091 -0.6587 -1.2486  1.7316
19970SOL     OW61360   2.619   1.711   7.688  0.0110 -0.1918  0.0848
19970SOL    HW161361   2.530   1.682   7.706 -0.0695 -1.3542 -1.8867
19970SOL    HW261362   2.673   1.656   7.745 -0.4095 -1.3855 -0.6166
19971SOL     OW61363   7.985   7.866   3.684 -0.1902  0.2762  0.1268
19971SOL    HW161364   7.991   7.783   3.730 -0.6687 -0.2838 -0.7849
19971SOL    HW261365   7.907   7.858   3.629  0.8398  0.5259 -1.4643
19972SOL     OW61366   3.344   0.009   6.065 -0.0198  0.6194  0.2376
19972SOL    HW161367   3.263  -0.034   6.092 -0.2886  0.8254 -0.2342
19972SOL    HW261368   3.317   0.073   5.999  0.4274  1.2380  0.6366
19973SOL     OW61369   3.577   7.650   3.953 -0.6709 -0.1529  0.2181
19973SOL    HW161370   3.505   7.587   3.955 -0.1514 -0.9724 -2.5932
19973SOL    HW261371   3.646   7.606   3.903  2.5856 -0.0952  4.1371
19974SOL     OW61372   4.839   7.718   6.368 -0.4495 -0.1008 -0.6543
19974SOL    HW161373   4.806   7.630   6.387  0.4604 -0.0805  1.2798
19974SOL    HW261374   4.818   7.768   6.446 -0.9425  1.4463 -1.7253
19975SOL     OW61375   4.441   1.005   0.832  0.1275  0.1811  0.2025
19975SOL    HW161376   4.405   1.092   0.811 -1.2606 -0.4594 -0.1985
19975SOL    HW261377   4.434   0.999   0.927  0.6452  0.6824  0.2747
19976SOL     OW61378   0.670   5.907   5.654 -0.1129  0.4849 -0.2789
19976SOL    HW161379   0.693   5.996   5.680  0.2423 -0.1348  1.7714
19976SOL    HW261380   0.683   5.855   5.734  0.2936 -1.5214 -1.5704
19977SOL     OW61381   2.428   5.803   7.138  0.8493  0.3540  0.1047
19977SOL    HW161382   2.335   5.799   7.162  0.4208 -0.0003 -1.4657
19977SOL    HW261383   2.471   5.745   7.200 -0.3739 -1.5704 -0.7577
19978SOL     OW61384   3.401   0.272   5.230  0.1549 -0.2037 -0.5982
19978SOL    HW161385   3.331   0.335   5.247 -0.9630 -1.0538 -1.8371
19978SOL    HW261386   3.379   0.197   5.285  1.1079  0.1855  0.3552
19979SOL     OW61387   1.083   2.749   9.118 -0.1794  0.5554  0.0962
19979SOL    HW161388   1.102   2.655   9.119 -0.2901  0.5340  0.4528
19979SOL    HW261389   1.142   2.784   9.052 -0.5551  0.1496 -0.4620
19980SOL     OW61390   6.510   2.601   0.226  0.5212 -0.2900 -0.3067
19980SOL    HW161391   6.514   2.672   0.162 -1.4198 -1.3543 -1.6749
19980SOL    HW261392   6.477   2.643   0.306  0.0732  0.4830 -0.8905
19981SOL     OW61393   8.317   2.054   5.958  0.1097  0.0612 -1.0323
19981SOL    HW161394   8.407   2.024   5.944  1.0374  2.3690 -0.5074
19981SOL    HW261395   8.324   2.120   6.027 -1.7648  1.3181 -1.9611
19982SOL     OW61396   7.596   5.843   6.110  0.2893  0.7651  0.6007
19982SOL    HW161397   7.595   5.919   6.167 -1.5210  0.4446  1.0688
19982SOL    HW261398   7.512   5.847   6.064  0.2671 -0.8070  0.4551
19983SOL     OW61399   9.228   5.356   1.442  0.4665 -0.0027 -0.2420
19983SOL    HW161400   9.246   5.268   1.409 -1.8733  0.3863 -2.9418
19983SOL    HW261401   9.259   5.414   1.374  0.0917  1.1721  0.5598
19984SOL     OW61402   1.264   1.637   4.776 -0.1047 -0.0262  0.3063
19984SOL    HW161403   1.330   1.601   4.835  0.7137  2.2834  0.9033
19984SOL    HW261404   1.183   1.633   4.827 -0.0702 -1.1039  0.3001
19985SOL     OW61405   1.110   2.597   1.718 -1.1429  0.1298  0.3360
19985SOL    HW161406   1.127   2.691   1.728 -0.8446  0.1854 -0.5878
19985SOL    HW261407   1.024   2.583   1.757 -0.7101  0.5787  1.4887
19986SOL     OW61408   6.747   1.983   1.223 -0.1511 -0.0503 -0.1765
19986SOL    HW161409   6.769   2.064   1.177 -0.6506 -0.1095 -0.5219
19986SOL    HW261410   6.810   1.918   1.190 -1.2454 -0.3978 -1.6927
19987SOL     OW61411   6.864   4.989   8.682 -0.5048 -0.3732 -0.6258
19987SOL    HW161412   6.920   5.048   8.631 -0.8545 -0.1884 -0.7970
19987SOL    HW261413   6.779   4.992   8.638 -0.6715 -0.5982 -0.3235
19988SOL     OW61414   9.229   5.394   5.428 -0.2421  0.1398  0.3528
19988SOL    HW161415   9.320   5.423   5.427 -0.5977  1.3882  1.4710
19988SOL    HW261416   9.220   5.348   5.511 -0.1146 -1.8848 -0.6937
19989SOL     OW61417   5.842   4.246   9.253  0.0560 -0.3650  0.1298
19989SOL    HW161418   5.874   4.291   9.174 -0.0868 -0.1613  0.1890
19989SOL    HW261419   5.812   4.161   9.221  3.1176 -1.6986  0.4226
19990SOL     OW61420   2.556   7.699   7.944  0.0288 -0.5383  0.4037
19990SOL    HW161421   2.620   7.764   7.913 -0.7780 -0.3422 -0.9329
19990SOL    HW261422   2.503   7.746   8.008  0.7175 -0.4670  0.9220
19991SOL     OW61423   0.206   3.642   6.427 -0.3651  0.0317  0.9976
19991SOL    HW161424   0.130   3.638   6.486 -0.7323  1.9952  0.7279
19991SOL    HW261425   0.212   3.734   6.402  0.9974 -0.4099 -0.4756
19992SOL     OW61426   0.885   7.624   8.192 -0.1320  1.1242  0.1191
19992SOL    HW161427   0.954   7.689   8.201  0.1670  0.8785 -0.3226
19992SOL    HW261428   0.887   7.599   8.099  1.2077 -1.0552  0.6513
19993SOL     OW61429   2.192   5.865   1.207 -0.3705  0.3449 -0.0563
19993SOL    HW161430   2.279   5.844   1.243  0.2327  1.9329 -0.5070
19993SOL    HW261431   2.211   5.904   1.121 -1.4927  1.3655  0.1463
19994SOL     OW61432   1.220   9.081   9.202  0.1896 -0.2505 -0.0781
19994SOL    HW161433   1.274   9.020   9.251  0.3601  0.5864  0.8211
19994SOL    HW261434   1.218   9.047   9.113 -0.4569 -2.0448  0.5833
19995SOL     OW61435   2.174   2.879   1.438 -0.1554 -0.0204 -0.0871
19995SOL    HW161436   2.259   2.917   1.421  0.2381 -0.9250 -0.2212
19995SOL    HW261437   2.118   2.912   1.367  0.1032  0.5030 -0.0493
19996SOL     OW61438   2.478   8.292   8.378  0.3986 -0.3082  0.1896
19996SOL    HW161439   2.571   8.278   8.399 -0.1064 -0.9198  2.3448
19996SOL    HW261440   2.435   8.297   8.464 -1.7255 -1.2422 -0.7402
19997SOL     OW61441   6.004   2.561   0.573  0.0424 -0.4279  0.0755
19997SOL    HW161442   6.073   2.602   0.522 -1.6100  1.8845 -0.4431
19997SOL    HW261443   5.923   2.593   0.534 -1.3896 -3.3424  0.4000
19998SOL     OW61444   4.156   4.198   4.759 -0.3964 -0.5099  0.0874
19998SOL    HW161445   4.169   4.208   4.664 -0.6310 -1.1273 -0.0161
19998SOL    HW261446   4.089   4.263   4.780 -0.1164 -0.1517 -0.1120
19999SOL     OW61447   1.716   8.773   3.740 -0.2272  0.3552 -0.4220
19999SOL    HW161448   1.722   8.782   3.835 -0.5767 -0.2471 -0.3411
19999SOL    HW261449   1.623   8.759   3.723 -0.0968 -0.0528 -0.8101
20000SOL     OW61450   6.978   4.048   0.258 -0.5815  0.0165 -0.1571
20000SOL    HW161451   6.899   4.103   0.262 -1.3359 -1.0966  0.7645
20000SOL    HW261452   7.019   4.059   0.343 -0.9155 -1.0828  0.1603
20001SOL     OW61453   5.978   5.582   4.005  0.3013  0.1640 -0.0098
20001SOL    HW161454   5.971   5.673   4.035 -1.6106  0.5127 -1.3348
20001SOL    HW261455   5.897   5.566   3.957  1.6704 -1.4644 -1.9424
20002SOL     OW61456   5.242   7.889   8.639  0.3357 -0.0880 -0.8607
20002SOL    HW161457   5.333   7.918   8.643  0.4856 -0.3978 -1.9184
20002SOL    HW261458   5.232   7.829   8.713  1.1710 -0.5402 -1.1048
20003SOL     OW61459   2.153   0.140   7.101  0.0031  0.3223 -0.2673
20003SOL    HW161460   2.186   0.104   7.019 -0.1915  0.0064 -0.2077
20003SOL    HW261461   2.123   0.064   7.151  1.8555  0.2855  0.8984
20004SOL     OW61462   9.150   2.491   3.354 -0.1912 -0.2181  0.9257
20004SOL    HW161463   9.147   2.584   3.376 -3.2144 -0.2553  1.0849
20004SOL    HW261464   9.233   2.480   3.307  2.2070  1.6892  4.2881
20005SOL     OW61465   8.411   6.646   4.853  0.0617 -0.4064 -0.2367
20005SOL    HW161466   8.499   6.648   4.890  0.0301  1.2439 -0.1902
20005SOL    HW261467   8.422   6.603   4.768  0.9592  0.0204 -0.3472
20006SOL     OW61468   9.083   8.970   3.104  0.3309 -0.2074 -0.2269
20006SOL    HW161469   9.159   8.955   3.161  0.1777 -0.1765 -0.0149
20006SOL    HW261470   9.009   8.978   3.164  0.1885 -0.0450 -0.4230
20007SOL     OW61471   6.864   0.199   2.095  0.6421  0.0278 -0.1235
20007SOL    HW161472   6.826   0.258   2.030  1.8033  1.0331  0.0867
20007SOL    HW261473   6.797   0.132   2.107 -0.4899  0.9913 -0.7685
20008SOL     OW61474   7.626   6.609   6.974  0.9078 -0.1275  0.1667
20008SOL    HW161475   7.612   6.531   7.029  1.9241 -0.2153  0.3265
20008SOL    HW261476   7.539   6.635   6.946  0.3805 -0.2554  1.6055
20009SOL     OW61477   0.633   8.226   2.670  0.2791 -0.9788  0.5884
20009SOL    HW161478   0.658   8.256   2.582  0.3379 -0.9295  0.6218
20009SOL    HW261479   0.559   8.167   2.655  0.3661 -1.0645  0.4949
20010SOL     OW61480   9.251   1.961   0.378 -0.3109 -0.4270  0.3349
20010SOL    HW161481   9.173   1.915   0.409 -1.5108 -0.5086 -2.5371
20010SOL    HW261482   9.227   1.994   0.291  2.9176 -0.5923 -0.7394
20011SOL     OW61483   1.415   4.851   0.720  0.1480 -0.6110 -0.4822
20011SOL    HW161484   1.423   4.946   0.710 -1.0097 -0.3107  0.9505
20011SOL    HW261485   1.502   4.821   0.744 -0.1098  0.6417  2.4733
20012SOL     OW61486   3.120   8.778   6.690  0.3882  0.1291 -0.5815
20012SOL    HW161487   3.057   8.707   6.700  1.5128 -0.5747  2.1187
20012SOL    HW261488   3.205   8.735   6.683  0.9175  1.1672 -0.7507
20013SOL     OW61489   4.450   4.845   1.404  0.2996  0.1128  0.2499
20013SOL    HW161490   4.379   4.781   1.399 -0.6590  1.2623 -1.9361
20013SOL    HW261491   4.529   4.795   1.381 -0.2496 -0.5400 -0.2764
20014SOL     OW61492   3.025   2.502   5.028  0.3919 -0.0909  0.2004
20014SOL    HW161493   2.997   2.463   4.945 -1.0178  0.3630  0.4279
20014SOL    HW261494   3.012   2.432   5.093 -1.7518  0.5470  0.5432
20015SOL     OW61495   6.108   8.302   4.541 -0.5802  0.1487 -0.0526
20015SOL    HW161496   6.144   8.387   4.517  0.4042 -0.5908 -1.3599
20015SOL    HW261497   6.013   8.315   4.542 -0.4284  1.3195  0.0280
20016SOL     OW61498   5.623   1.693   1.504 -0.1524 -0.1880  0.1396
20016SOL    HW161499   5.578   1.697   1.588  1.6315 -0.8573  1.1636
20016SOL    HW261500   5.587   1.767   1.455  0.6924  1.9541  2.4981
20017SOL     OW61501   4.511   5.146   6.125  0.1029 -0.2999  0.0776
20017SOL    HW161502   4.464   5.063   6.120  1.0193 -0.9423  1.4875
20017SOL    HW261503   4.443   5.211   6.145 -0.2356 -1.2513  2.3862
20018SOL     OW61504   0.972   0.023   7.573 -0.0773 -0.2853  0.4571
20018SOL    HW161505   0.973  -0.064   7.612 -1.4279  0.2688  1.8439
20018SOL    HW261506   0.881   0.040   7.552  0.3230  0.3472 -0.9173
20019SOL     OW61507   5.974   9.148   4.961  0.4245  0.0424 -0.1880
20019SOL    HW161508   5.931   9.091   4.897  1.6466 -0.5200 -0.5281
20019SOL    HW261509   6.010   9.220   4.908 -1.0676  1.1433  0.2286
20020SOL     OW61510   2.285   3.790   7.989  0.0948 -0.2736 -0.0551
20020SOL    HW161511   2.220   3.857   8.010 -0.9538 -1.1634 -0.3932
20020SOL    HW261512   2.369   3.833   8.003 -0.5545  1.2685 -0.7627
20021SOL     OW61513   5.481   0.449   5.140  0.2619  0.0503 -0.2786
20021SOL    HW161514   5.497   0.527   5.193  0.3132 -0.4733  0.5038
20021SOL    HW261515   5.436   0.481   5.062 -1.3064  0.6589  0.8344
20022SOL     OW61516   6.204   3.089   8.226  0.7026  0.2958  0.3618
20022SOL    HW161517   6.211   3.169   8.176  2.9300 -0.9453 -1.5217
20022SOL    HW261518   6.270   3.030   8.187 -1.6880 -2.9179  0.7383
20023SOL     OW61519   2.787   5.679   6.945  0.2546  0.4223 -0.1939
20023SOL    HW161520   2.800   5.750   6.883  0.3716  0.4293 -0.1612
20023SOL    HW261521   2.819   5.601   6.900 -1.3386  0.1175 -0.8474
20024SOL     OW61522   5.148   5.520   6.338 -0.1478 -0.1028  0.6862
20024SOL    HW161523   5.183   5.500   6.252 -0.4441 -1.0806  0.7728
20024SOL    HW261524   5.083   5.588   6.322 -0.4658 -0.5373  0.0745
20025SOL     OW61525   7.259   0.350   4.011 -0.0814 -0.1676  0.3706
20025SOL    HW161526   7.307   0.432   4.002  0.6257 -0.5958  0.2021
20025SOL    HW261527   7.326   0.282   4.009 -0.6740 -0.7627  0.3354
20026SOL     OW61528   2.917   7.654   2.322  0.1144  0.8225 -0.4329
20026SOL    HW161529   2.976   7.583   2.349 -0.8655  0.4578  0.8595
20026SOL    HW261530   2.903   7.705   2.402  0.4334  2.2296 -1.2339
20027SOL     OW61531   3.627   0.360   7.846  0.1290  0.1404  0.0367
20027SOL    HW161532   3.631   0.453   7.826  1.0836 -0.1022 -0.9633
20027SOL    HW261533   3.546   0.330   7.806  0.8630  0.1333 -1.4904
20028SOL     OW61534   4.260   0.602   0.784  0.2163  0.3202  0.6034
20028SOL    HW161535   4.256   0.586   0.690  0.3279  1.6966  0.3502
20028SOL    HW261536   4.353   0.595   0.806  0.3311  1.1076  0.3941
20029SOL     OW61537   4.383   1.828   3.846  0.2880  0.0441 -0.4191
20029SOL    HW161538   4.392   1.888   3.772 -1.9707 -1.1793 -1.8203
20029SOL    HW261539   4.310   1.771   3.822  0.8979 -1.8614  1.8076
20030SOL     OW61540   1.197   0.845   1.804 -0.4510  0.1640  0.2404
20030SOL    HW161541   1.238   0.762   1.829  0.7746  0.4608 -0.6903
20030SOL    HW261542   1.183   0.838   1.710  0.2181  1.2252  0.0434
20031SOL     OW61543   8.884   7.207   9.269  0.4408  0.0815 -0.5581
20031SOL    HW161544   8.902   7.260   9.191  0.2535 -1.4850 -1.7055
20031SOL    HW261545   8.831   7.134   9.237  0.6900 -0.8220  0.9786
20032SOL     OW61546   0.936   6.772   6.769 -0.0140  0.0042  0.3302
20032SOL    HW161547   0.868   6.775   6.702  0.7829  0.4178 -0.4727
20032SOL    HW261548   1.010   6.728   6.727 -0.0092 -1.0868  1.4217
20033SOL     OW61549   5.989   1.272   7.395 -0.1740 -0.7595  0.0551
20033SOL    HW161550   6.054   1.283   7.465 -0.1651  1.0378 -0.1677
20033SOL    HW261551   5.906   1.260   7.441 -0.3734  1.7003  0.4759
20034SOL     OW61552   7.166   9.031   7.187 -0.1410 -0.4780  0.3911
20034SOL    HW161553   7.131   9.065   7.105 -2.4422 -0.3451  1.3607
20034SOL    HW261554   7.195   9.109   7.235 -0.6641 -0.3578  0.5170
20035SOL     OW61555   1.777   1.925   6.909 -0.0943 -0.1834 -0.6130
20035SOL    HW161556   1.726   1.866   6.853  0.0632 -0.6872 -0.2366
20035SOL    HW261557   1.735   2.011   6.899 -1.3537 -0.6824  0.0982
20036SOL     OW61558   1.128   5.845   7.331 -0.3575  0.4144  0.5628
20036SOL    HW161559   1.046   5.887   7.357 -0.9457 -0.7584  0.6534
20036SOL    HW261560   1.194   5.914   7.343 -1.2265  1.1932  1.0800
20037SOL     OW61561   0.486   3.461   5.691  0.4304  0.0860 -0.5068
20037SOL    HW161562   0.552   3.425   5.750  0.2829 -0.3415 -0.5983
20037SOL    HW261563   0.428   3.387   5.673  1.3361 -0.2125 -2.4220
20038SOL     OW61564   0.488   7.036   3.729 -0.3415 -0.2548 -0.1563
20038SOL    HW161565   0.519   7.078   3.810  1.3540 -1.8451  0.0888
20038SOL    HW261566   0.400   7.004   3.751  0.2948 -1.1459  1.3007
20039SOL     OW61567   9.080   8.579   6.377  0.3389 -0.0164 -0.0640
20039SOL    HW161568   9.115   8.665   6.400 -0.4968  0.0472  1.0636
20039SOL    HW261569   9.067   8.536   6.462  0.5737 -1.1804 -0.6080
20040SOL     OW61570   4.158   4.254   7.136  0.4892 -1.0071 -0.0205
20040SOL    HW161571   4.084   4.210   7.094  0.9305 -0.7728 -1.0542
20040SOL    HW261572   4.208   4.184   7.177 -1.0520 -1.0478  1.9354
20041SOL     OW61573   8.203   6.461   0.699  0.2736 -0.0755 -1.1792
20041SOL    HW161574   8.262   6.404   0.649  1.4636 -0.0779  0.1424
20041SOL    HW261575   8.261   6.508   0.758 -1.2127 -2.1838  2.2888
20042SOL     OW61576   2.101   2.064   6.238 -0.1671  0.6606  0.0502
20042SOL    HW161577   2.013   2.100   6.227 -0.0603  0.8464 -0.2035
20042SOL    HW261578   2.117   2.015   6.157 -0.5880 -0.5616  0.6795
20043SOL     OW61579   3.217   6.445   9.156 -0.1371  0.4621 -0.5786
20043SOL    HW161580   3.288   6.425   9.095  0.2575 -0.8486  0.2737
20043SOL    HW261581   3.150   6.487   9.102  0.5288  0.0686 -1.7466
20044SOL     OW61582   4.601   5.897   2.204  0.4179 -0.2213 -0.8745
20044SOL    HW161583   4.555   5.938   2.277  2.2174 -0.4345  0.4369
20044SOL    HW261584   4.538   5.900   2.131 -1.6516 -0.5377  0.8073
20045SOL     OW61585   2.832   6.349   0.676 -0.0748 -0.4159  0.3792
20045SOL    HW161586   2.739   6.349   0.654 -0.4901 -0.6147  2.0278
20045SOL    HW261587   2.845   6.429   0.727  0.4508 -0.8943  1.0070
20046SOL     OW61588   5.879   4.300   2.410 -0.5083 -0.3116 -0.0407
20046SOL    HW161589   5.893   4.394   2.400 -2.1962 -0.0600 -0.3615
20046SOL    HW261590   5.795   4.293   2.456  0.9192 -1.6427  2.6515
20047SOL     OW61591   1.428   2.084   7.378 -0.1179 -0.3375  1.0139
20047SOL    HW161592   1.499   2.031   7.342 -1.4499 -2.1102  0.8769
20047SOL    HW261593   1.464   2.173   7.381  1.8427 -1.0469  0.2925
20048SOL     OW61594   7.600   1.946   4.142 -0.0818  0.4659  0.0585
20048SOL    HW161595   7.595   1.966   4.049 -0.6673 -0.6210 -0.1591
20048SOL    HW261596   7.669   2.004   4.176  2.3040 -1.2236 -1.6374
20049SOL     OW61597   2.764   3.473   6.945 -0.1809 -0.0409  0.0030
20049SOL    HW161598   2.841   3.518   6.911 -0.7034  0.3416 -0.6774
20049SOL    HW261599   2.711   3.543   6.984 -0.0522 -0.3423  0.7328
20050SOL     OW61600   0.701   8.588   4.641 -0.5423  0.1489 -0.1257
20050SOL    HW161601   0.746   8.666   4.674 -0.3425  0.9289 -2.0818
20050SOL    HW261602   0.771   8.524   4.628 -0.5335  0.0615  0.3485
20051SOL     OW61603   3.873   8.028   1.181  0.0194 -0.4725  0.5169
20051SOL    HW161604   3.805   8.028   1.114 -1.1194  0.6646  1.6097
20051SOL    HW261605   3.948   8.071   1.140 -1.7936  3.4890  0.9196
20052SOL     OW61606   0.065   5.509   4.952 -0.0412  0.1404 -0.3033
20052SOL    HW161607  -0.003   5.477   5.012  0.2528  0.5590  0.2684
20052SOL    HW261608   0.143   5.460   4.977  0.2789  0.8940  0.2173
20053SOL     OW61609   4.213   2.002   2.119  0.1003  0.5882  0.3003
20053SOL    HW161610   4.279   2.071   2.106  2.4510 -1.0768  2.4225
20053SOL    HW261611   4.189   2.010   2.212  0.6672 -1.5721  0.6859
20054SOL     OW61612   4.623   5.487   0.953 -0.1950  0.1448 -0.7321
20054SOL    HW161613   4.541   5.458   0.994  1.0827  1.7870  3.5589
20054SOL    HW261614   4.612   5.581   0.943  1.7802  0.7764  1.9988
20055SOL     OW61615   2.623   3.761   7.769  0.0554  0.1263 -0.4884
20055SOL    HW161616   2.632   3.729   7.679  1.4063 -0.9391 -0.0234
20055SOL    HW261617   2.613   3.681   7.821  0.3162  0.6672  0.4075
20056SOL     OW61618   8.446   2.821   6.768  0.7135 -0.0779 -0.1269
20056SOL    HW161619   8.506   2.811   6.842  1.1779  0.9910 -0.3427
20056SOL    HW261620   8.361   2.793   6.802  1.2915 -1.5719  0.1965
20057SOL     OW61621   5.324   0.578   4.963 -0.2304 -0.3435  0.0578
20057SOL    HW161622   5.292   0.656   5.008  1.3112  0.6643 -0.4957
20057SOL    HW261623   5.303   0.592   4.871 -1.1267 -1.2242  0.1104
20058SOL     OW61624   6.775   1.030   5.763  0.1008 -0.2538 -0.5293
20058SOL    HW161625   6.770   0.971   5.689  1.9818 -0.4236 -0.5704
20058SOL    HW261626   6.787   1.117   5.725 -1.9944  0.1094 -0.4548
20059SOL     OW61627   7.619   5.528   2.284  0.5954  0.5224  0.4681
20059SOL    HW161628   7.547   5.515   2.221 -0.6184  1.8759  1.5090
20059SOL    HW261629   7.696   5.492   2.240 -0.5422 -0.1558 -1.0682
20060SOL     OW61630   8.512   5.383   6.590 -0.1111 -0.0991  0.1720
20060SOL    HW161631   8.598   5.355   6.620 -0.1232  0.8687  1.1350
20060SOL    HW261632   8.530   5.439   6.514  0.0009 -1.1879 -0.6332
20061SOL     OW61633   1.860   0.927   2.191  0.5789 -0.1407  0.1513
20061SOL    HW161634   1.877   0.911   2.284  1.3647  0.6188  0.1565
20061SOL    HW261635   1.868   0.841   2.150 -0.6218 -0.6294  0.8911
20062SOL     OW61636   0.583   0.843   5.589  0.2583 -0.3395 -0.0937
20062SOL    HW161637   0.617   0.847   5.500 -2.0559  1.6069 -0.9802
20062SOL    HW261638   0.494   0.811   5.579  1.1337 -4.0477  2.0204
20063SOL     OW61639   5.422   8.726   3.016  0.0953 -0.3387  0.3941
20063SOL    HW161640   5.493   8.745   3.078 -0.1092 -1.2327  0.9125
20063SOL    HW261641   5.369   8.660   3.060 -1.9480  1.4113  0.6804
20064SOL     OW61642   1.311   3.210   6.051  0.2948  1.1601 -0.0196
20064SOL    HW161643   1.349   3.126   6.076 -0.2730  1.7755  3.3926
20064SOL    HW261644   1.217   3.194   6.046  0.3889  0.8563 -3.1960
20065SOL     OW61645   5.478   6.507   0.571  0.1004 -0.1249 -0.4333
20065SOL    HW161646   5.424   6.457   0.633  0.5347  0.0194  0.0694
20065SOL    HW261647   5.565   6.467   0.579  0.2308  0.1068 -0.7157
20066SOL     OW61648   0.984   0.014   8.466  0.2196  0.1790 -0.1455
20066SOL    HW161649   0.994   0.048   8.378  2.6573 -1.9821 -0.8331
20066SOL    HW261650   1.047  -0.058   8.472  1.5787  1.3760  3.9490
20067SOL     OW61651   8.908   1.410   0.849 -0.2457  0.0299 -0.0264
20067SOL    HW161652   8.907   1.504   0.836  1.1474 -0.0218 -0.7287
20067SOL    HW261653   8.958   1.376   0.774  0.3830 -1.1355  0.8833
20068SOL     OW61654   2.063   0.494   1.198 -0.5397  0.3959  0.9977
20068SOL    HW161655   2.028   0.449   1.275 -2.3507  1.3871  0.8132
20068SOL    HW261656   2.033   0.584   1.207 -1.0518  0.4729 -0.9867
20069SOL     OW61657   7.325   0.148   1.826 -0.3882 -0.4602  0.2194
20069SOL    HW161658   7.320   0.060   1.864 -3.3315 -1.1975 -1.5899
20069SOL    HW261659   7.400   0.144   1.766  1.2826 -0.7632  2.2273
20070SOL     OW61660   6.380   0.948   6.407 -0.0900  0.0434  0.3934
20070SOL    HW161661   6.417   0.956   6.319  0.5481  0.3007  0.6712
20070SOL    HW261662   6.378   0.854   6.424  1.6357  0.0475  0.8371
20071SOL     OW61663   8.178   9.110   8.378  0.0608 -0.4872  0.1469
20071SOL    HW161664   8.164   9.122   8.284  2.1431 -0.1414 -0.1509
20071SOL    HW261665   8.091   9.122   8.416 -1.1503 -2.2020 -1.8583
20072SOL     OW61666   3.276   0.071   5.377  0.1765  0.4379 -0.0213
20072SOL    HW161667   3.226   0.014   5.317 -1.2479  1.8658 -0.2555
20072SOL    HW261668   3.360   0.026   5.387 -0.2200 -0.7892 -1.6248
20073SOL     OW61669   3.299   1.049   3.383  0.2930  0.0500 -0.2313
20073SOL    HW161670   3.234   0.979   3.375  1.1910 -0.9191  0.5997
20073SOL    HW261671   3.284   1.086   3.470  0.2313  0.4820 -0.4216
20074SOL     OW61672   7.325   6.072   2.335 -0.1703  0.5790  0.1223
20074SOL    HW161673   7.305   5.994   2.387  1.3248  0.6752  0.8897
20074SOL    HW261674   7.239   6.103   2.305 -0.9490 -0.2720  1.3669
20075SOL     OW61675   8.180   0.010   6.148  0.0755  0.5537 -0.0960
20075SOL    HW161676   8.176  -0.086   6.147 -0.5796  0.5639  0.5927
20075SOL    HW261677   8.088   0.038   6.154  0.3190  1.1803  1.1397
20076SOL     OW61678   1.170   2.538   2.993 -0.4353  0.0942  0.8285
20076SOL    HW161679   1.195   2.609   3.052 -0.0738  0.0918  0.6766
20076SOL    HW261680   1.091   2.570   2.949 -0.0009  0.5890  0.4111
20077SOL     OW61681   4.399   4.566   3.774 -0.6308  0.0670 -0.4952
20077SOL    HW161682   4.447   4.494   3.814 -0.3431  0.1026 -0.7734
20077SOL    HW261683   4.392   4.632   3.842 -1.0452 -0.2916 -0.1845
20078SOL     OW61684   2.578   4.948   6.087  0.2012  0.0776  0.4011
20078SOL    HW161685   2.670   4.973   6.088 -0.3742  2.4588 -0.0584
20078SOL    HW261686   2.571   4.883   6.018  1.5300 -0.1516  0.4598
20079SOL     OW61687   8.056   6.653   8.782  0.3324 -0.4193  0.0017
20079SOL    HW161688   8.025   6.573   8.739 -2.2847 -1.6860  3.7635
20079SOL    HW261689   7.994   6.721   8.756  0.5608 -0.4176 -0.5503
20080SOL     OW61690   0.507   7.235   0.346  0.0608 -0.2299  0.1637
20080SOL    HW161691   0.431   7.226   0.404 -0.1259 -0.1538 -0.0659
20080SOL    HW261692   0.564   7.162   0.371 -0.0887 -0.2912  0.3367
20081SOL     OW61693   6.858   1.003   3.842 -0.8859  0.1648  0.0269
20081SOL    HW161694   6.829   1.037   3.758 -1.6017 -0.6421 -0.0757
20081SOL    HW261695   6.777   0.996   3.894 -1.0047 -2.3926 -0.3510
20082SOL     OW61696   9.176   4.410   2.807 -0.0765  0.7435  0.1619
20082SOL    HW161697   9.170   4.419   2.902  0.0718  1.7674  0.0887
20082SOL    HW261698   9.242   4.343   2.793 -0.8129 -0.1378  0.7907
20083SOL     OW61699   7.025   4.611   1.387  0.5015  0.0088 -0.1449
20083SOL    HW161700   7.005   4.536   1.443 -0.9856 -0.7278 -1.5910
20083SOL    HW261701   6.950   4.669   1.397  1.2826  0.9544  0.3557
20084SOL     OW61702   2.889   6.002   7.556 -0.2921 -0.1158  0.1469
20084SOL    HW161703   2.943   6.031   7.483 -0.1311  0.5916  0.5429
20084SOL    HW261704   2.950   5.991   7.628 -0.6463  0.5810  0.5650
20085SOL     OW61705   1.217   3.358   5.228 -0.2109  0.0916 -0.1301
20085SOL    HW161706   1.170   3.333   5.308 -1.4439  1.2019 -0.4569
20085SOL    HW261707   1.309   3.342   5.247 -0.5462 -0.2455  1.2870
20086SOL     OW61708   8.030   4.955   7.259 -0.2570  0.5052 -0.1093
20086SOL    HW161709   7.970   5.029   7.265  1.5687  2.0111  0.7475
20086SOL    HW261710   8.104   4.979   7.315  0.4623 -1.9518  0.1482
20087SOL     OW61711   6.493   7.703   4.449 -0.3107 -0.5867  0.1216
20087SOL    HW161712   6.584   7.706   4.478 -0.6721  1.1832  1.2734
20087SOL    HW261713   6.456   7.626   4.493  0.7570 -1.7127 -0.8889
20088SOL     OW61714   0.597   9.241   7.035  0.2878 -0.4609 -0.0401
20088SOL    HW161715   0.518   9.216   7.084 -0.6919  2.4742  0.0526
20088SOL    HW261716   0.669   9.218   7.093 -0.5772 -1.5398  0.6557
20089SOL     OW61717   1.255   8.615   7.714 -0.1332 -0.1134 -0.0176
20089SOL    HW161718   1.187   8.559   7.752  0.3974 -0.5177  0.3533
20089SOL    HW261719   1.216   8.703   7.714 -0.5771 -0.3036  0.3990
20090SOL     OW61720   8.926   0.978   3.173  0.7227 -0.3284  0.8852
20090SOL    HW161721   9.013   0.947   3.199  1.0141 -1.0929 -0.8779
20090SOL    HW261722   8.934   1.073   3.169  1.6420 -0.4189  0.2469
20091SOL     OW61723   6.763   5.323   4.516  0.3456  0.0187  0.2355
20091SOL    HW161724   6.835   5.368   4.472  0.5840  1.6298  2.0994
20091SOL    HW261725   6.692   5.323   4.452  0.8169  1.8210 -0.3549
20092SOL     OW61726   8.026   0.428   6.520 -0.4235 -0.6410 -0.0219
20092SOL    HW161727   8.059   0.358   6.576  0.8674 -0.1045 -0.0749
20092SOL    HW261728   8.095   0.495   6.522 -0.6327 -0.3239 -1.7070
20093SOL     OW61729   5.673   8.477   3.132 -0.3583 -0.6527  0.0608
20093SOL    HW161730   5.621   8.416   3.184 -0.5119 -0.3377  0.2850
20093SOL    HW261731   5.726   8.422   3.074  1.4604 -1.1247  2.0505
20094SOL     OW61732   5.287   5.944   4.404 -0.5964  0.0055  0.0153
20094SOL    HW161733   5.381   5.961   4.408 -0.7273  0.6302  0.4699
20094SOL    HW261734   5.276   5.894   4.322  0.5989 -3.3656  1.7148
20095SOL     OW61735   1.746   4.900   5.206 -0.1596  0.2992 -0.1034
20095SOL    HW161736   1.770   4.942   5.289  0.2117  0.0452 -0.0818
20095SOL    HW261737   1.706   4.971   5.155 -1.9136  0.0917  0.9043
20096SOL     OW61738   0.284   5.417   7.884 -0.1577 -0.5793 -0.3614
20096SOL    HW161739   0.312   5.340   7.934 -1.2252 -1.3666 -0.9354
20096SOL    HW261740   0.253   5.381   7.801 -0.3803  0.5035 -0.7535
20097SOL     OW61741   2.679   3.608   0.033  0.4151 -0.5023  0.0338
20097SOL    HW161742   2.657   3.636   0.122  3.7496 -1.1865  1.2117
20097SOL    HW261743   2.766   3.568   0.041  0.5481 -1.2198 -3.4397
20098SOL     OW61744   7.479   6.921   4.902  0.3772  0.2047  0.0324
20098SOL    HW161745   7.436   6.839   4.879  1.0832 -0.2188  0.2017
20098SOL    HW261746   7.561   6.920   4.853 -0.0401  1.2616 -0.7168
20099SOL     OW61747   3.268   5.221   5.508 -0.2021  0.3780  0.6963
20099SOL    HW161748   3.196   5.166   5.540  0.7118 -0.8925  0.6734
20099SOL    HW261749   3.321   5.161   5.455  0.3758  1.5115 -0.0316
20100SOL     OW61750   8.819   2.629   4.708  0.0013  0.9510 -0.2623
20100SOL    HW161751   8.725   2.614   4.698 -0.2516  1.0132  1.7105
20100SOL    HW261752   8.826   2.720   4.734  0.6435  1.0078 -0.6088
20101SOL     OW61753   3.701   4.279   4.376 -0.9606 -0.5270  0.6719
20101SOL    HW161754   3.732   4.361   4.337  2.9012 -1.8141  0.6461
20101SOL    HW261755   3.664   4.231   4.302  0.2161 -0.3097 -0.0730
20102SOL     OW61756   8.037   6.830   2.762  0.9241  0.2208  0.0399
20102SOL    HW161757   8.112   6.888   2.773  0.6556  0.4495  0.7785
20102SOL    HW261758   8.020   6.828   2.668 -0.1049  2.7049  0.0959
20103SOL     OW61759   5.054   4.370   6.334  0.0270  0.0511  0.4832
20103SOL    HW161760   5.121   4.400   6.395  0.1751 -1.2413  0.9784
20103SOL    HW261761   5.074   4.417   6.253 -0.0990  1.7009  1.3541
20104SOL     OW61762   1.095   7.735   7.069  0.1237 -0.7213 -0.6242
20104SOL    HW161763   1.143   7.805   7.113  0.3475 -2.6306  2.3994
20104SOL    HW261764   1.155   7.705   7.000  0.9721  0.5140 -0.4637
20105SOL     OW61765   3.340   3.947   1.827  0.9431 -0.8073  0.5433
20105SOL    HW161766   3.373   3.862   1.854 -1.4190 -1.9400  0.1269
20105SOL    HW261767   3.327   3.995   1.910  1.1533 -1.2896  0.8581
20106SOL     OW61768   4.490   6.215   7.594  0.0665 -0.1883  0.1903
20106SOL    HW161769   4.524   6.219   7.505  3.2887  1.5728  1.3164
20106SOL    HW261770   4.485   6.122   7.615  0.7859 -0.5857 -1.3086
20107SOL     OW61771   6.717   6.549   8.121  0.3667  0.2656 -0.5105
20107SOL    HW161772   6.765   6.584   8.046  1.3452  0.6355  0.2616
20107SOL    HW261773   6.638   6.604   8.127 -0.9834 -1.2929 -2.6987
20108SOL     OW61774   3.313   4.246   4.287  0.0764  0.2259  0.0810
20108SOL    HW161775   3.392   4.205   4.252 -0.3029 -0.1933 -0.2848
20108SOL    HW261776   3.346   4.317   4.342  0.6973  0.7520 -0.9277
20109SOL     OW61777   1.239   4.762   2.842 -0.0997 -0.1696  0.6730
20109SOL    HW161778   1.244   4.805   2.927  1.5654  0.9787  0.0391
20109SOL    HW261779   1.145   4.760   2.822 -0.8474 -2.6867  3.5567
20110SOL     OW61780   1.656   8.190   3.525  0.1920 -0.4438 -0.3979
20110SOL    HW161781   1.629   8.173   3.615  1.5576 -0.0390  0.1279
20110SOL    HW261782   1.591   8.251   3.490  1.1407  1.6499  1.2765
20111SOL     OW61783   5.646   7.401   8.890 -0.2334 -0.1872 -0.0142
20111SOL    HW161784   5.616   7.479   8.937  0.2520 -0.2816  0.4643
20111SOL    HW261785   5.740   7.416   8.877  0.0181 -1.0310  0.7601
20112SOL     OW61786   0.524   7.553   8.335 -1.0760 -0.3039 -0.2421
20112SOL    HW161787   0.616   7.535   8.316 -1.4707 -0.6716 -1.9909
20112SOL    HW261788   0.489   7.470   8.367 -0.6069  0.0868  1.3687
20113SOL     OW61789   1.237   2.476   0.975 -0.0926  0.0141 -0.0837
20113SOL    HW161790   1.292   2.448   1.048  1.1675  1.4240 -0.4399
20113SOL    HW261791   1.216   2.568   0.994  1.0187  0.6989 -1.8836
20114SOL     OW61792   4.821   1.244   5.145 -0.1199  0.0356  0.0016
20114SOL    HW161793   4.727   1.233   5.129 -0.3798  1.6910  0.1868
20114SOL    HW261794   4.863   1.175   5.094 -1.3860 -0.1170 -0.8694
20115SOL     OW61795   2.164   2.347   0.301  0.3188 -0.6342  0.1215
20115SOL    HW161796   2.181   2.325   0.393 -0.5519 -0.2166  0.3948
20115SOL    HW261797   2.095   2.286   0.274 -2.3029  1.7302  0.9619
20116SOL     OW61798   7.060   2.965   8.535  0.0648 -0.8727  0.4224
20116SOL    HW161799   6.967   2.981   8.516  0.2719 -0.8504 -0.6493
20116SOL    HW261800   7.061   2.880   8.580 -0.3971 -1.3888 -0.5014
20117SOL     OW61801   2.016   3.718   6.588 -0.5286  0.7035  0.2230
20117SOL    HW161802   2.008   3.634   6.542  0.4353 -0.2088  1.6229
20117SOL    HW261803   1.956   3.711   6.662  1.1723  0.2824  1.6350
20118SOL     OW61804   2.979   1.007   2.141  0.3279  0.6827  0.1786
20118SOL    HW161805   3.004   0.971   2.227  1.8831 -1.1065 -0.9537
20118SOL    HW261806   3.057   1.055   2.113  0.0205  0.8026 -0.4720
20119SOL     OW61807   0.337   7.755   0.223 -0.2079  0.5359 -0.1549
20119SOL    HW161808   0.249   7.767   0.259  0.7762 -0.1221  2.7272
20119SOL    HW261809   0.355   7.661   0.235  0.7848  0.6068 -0.9570
20120SOL     OW61810   3.575   8.652   6.511  0.1627  0.0290  0.0633
20120SOL    HW161811   3.576   8.642   6.416 -0.6140 -0.3512  0.0880
20120SOL    HW261812   3.620   8.735   6.527 -1.6250  1.2205 -0.7958
20121SOL     OW61813   0.628   5.630   5.202  0.5049 -0.3556 -0.0235
20121SOL    HW161814   0.620   5.644   5.296  0.9920  0.0190 -0.0358
20121SOL    HW261815   0.555   5.680   5.164  0.4794 -0.2736  0.1337
20122SOL     OW61816   0.183   1.967   5.347  0.3170 -0.3976 -0.1414
20122SOL    HW161817   0.275   1.945   5.330  0.3969  0.0770 -0.3434
20122SOL    HW261818   0.166   1.931   5.434  0.9510  0.2432  0.2671
20123SOL     OW61819   4.981   6.157   8.316  0.2244 -0.0447 -0.0955
20123SOL    HW161820   4.949   6.238   8.276  0.6805 -0.4093 -1.2306
20123SOL    HW261821   5.039   6.119   8.250  0.1229 -1.2332  0.4748
20124SOL     OW61822   6.634   2.233   6.073  0.4462  0.1783  0.0522
20124SOL    HW161823   6.582   2.176   6.130 -0.8544 -1.0641 -2.2435
20124SOL    HW261824   6.606   2.322   6.096  0.9978 -0.1385  2.2466
20125SOL     OW61825   3.061   0.349   8.060 -0.1713  0.3508 -0.8877
20125SOL    HW161826   3.067   0.411   7.988  1.5444  0.6169 -0.5786
20125SOL    HW261827   3.023   0.399   8.132 -0.4968  0.5071 -1.1640
20126SOL     OW61828   6.682   4.999   4.317 -0.0693  0.2344  0.4297
20126SOL    HW161829   6.687   5.067   4.385  0.0132  0.0501  0.6099
20126SOL    HW261830   6.593   5.007   4.282 -0.3920 -0.2170  1.1306
20127SOL     OW61831   8.079   3.788   6.093 -0.2088  0.2853  0.0240
20127SOL    HW161832   8.000   3.799   6.040 -0.8404  0.0242  0.8880
20127SOL    HW261833   8.135   3.730   6.041 -1.2235 -0.7548  0.0572
20128SOL     OW61834   7.451   4.441   5.406  0.1091 -0.5597 -0.3654
20128SOL    HW161835   7.382   4.505   5.387  0.0369  0.0879  1.7682
20128SOL    HW261836   7.431   4.367   5.350 -2.1828 -0.2686 -0.0451
20129SOL     OW61837   4.611   7.432   9.149 -0.2484 -0.1334 -0.2466
20129SOL    HW161838   4.613   7.442   9.244 -0.1880 -1.1631 -0.1179
20129SOL    HW261839   4.629   7.338   9.135  2.0640  0.4026 -1.3702
20130SOL     OW61840   1.124   0.806   6.249 -0.1500 -0.7106 -0.4472
20130SOL    HW161841   1.076   0.886   6.226  0.1860  0.6989  3.1271
20130SOL    HW261842   1.215   0.833   6.252 -0.0227 -1.2452  0.6924
20131SOL     OW61843   6.764   7.888   5.152  0.8288  0.3421 -0.0673
20131SOL    HW161844   6.764   7.833   5.231 -1.0673 -0.7122 -0.7488
20131SOL    HW261845   6.679   7.932   5.153  0.8213  0.4015 -1.4692
20132SOL     OW61846   5.708   1.808   4.249 -0.4615  0.1126  0.2540
20132SOL    HW161847   5.796   1.824   4.281  0.2962 -0.4290 -1.4570
20132SOL    HW261848   5.664   1.893   4.256  0.3395  0.4998  0.7073
20133SOL     OW61849   0.722   1.656   9.140  0.1402 -0.0727  0.0630
20133SOL    HW161850   0.761   1.715   9.205 -0.2003 -0.5640  0.7202
20133SOL    HW261851   0.704   1.713   9.065 -2.1940  1.1708  1.4514
20134SOL     OW61852   7.605   0.028   2.616 -0.4748 -0.1422 -0.4643
20134SOL    HW161853   7.645   0.095   2.672 -0.2926 -0.0794 -0.6674
20134SOL    HW261854   7.591   0.073   2.533 -0.5990 -0.2815 -0.5178
20135SOL     OW61855   1.567   5.992   1.352 -0.1284 -0.5109 -0.0269
20135SOL    HW161856   1.590   6.076   1.312  0.1407 -0.2546  0.6416
20135SOL    HW261857   1.627   5.984   1.426 -0.7133 -0.8977  0.4160
20136SOL     OW61858   1.485   2.946   5.410 -0.0056 -0.3837  0.2138
20136SOL    HW161859   1.527   2.971   5.327 -1.1770  0.4274 -0.1676
20136SOL    HW261860   1.395   2.926   5.386 -0.1686 -0.8705  1.1894
20137SOL     OW61861   6.120   7.447   8.631 -0.0404 -0.3652  0.3906
20137SOL    HW161862   6.062   7.372   8.632  0.0264 -0.4311  2.5916
20137SOL    HW261863   6.100   7.495   8.711  0.3159  1.6839 -0.6624
20138SOL     OW61864   6.411   6.748   1.185  0.5234  0.2734  0.4187
20138SOL    HW161865   6.318   6.734   1.170  0.6414  0.0006 -0.0534
20138SOL    HW261866   6.415   6.793   1.270 -0.1130  1.4064 -0.1196
20139SOL     OW61867   8.789   3.562   8.945  0.5056  0.1667 -0.5765
20139SOL    HW161868   8.721   3.533   9.006  1.4872 -0.1346  0.4035
20139SOL    HW261869   8.864   3.506   8.964  1.2642  0.9665 -1.1440
20140SOL     OW61870   5.439   8.225   8.605  0.0960  0.5223 -0.5856
20140SOL    HW161871   5.510   8.162   8.592  0.7249  1.3046 -1.0508
20140SOL    HW261872   5.473   8.285   8.672 -0.0615  0.9826 -0.9135
20141SOL     OW61873   7.629   4.942   8.922  0.1274  0.2198  0.2402
20141SOL    HW161874   7.702   4.882   8.937 -0.3135 -1.4944 -3.3194
20141SOL    HW261875   7.670   5.025   8.896  0.7565  0.3585  1.6142
20142SOL     OW61876   3.160   1.114   1.962  0.0880 -0.2271 -0.3399
20142SOL    HW161877   3.234   1.068   1.922 -0.4709 -0.7821 -0.7524
20142SOL    HW261878   3.090   1.108   1.897 -0.8037 -1.0369  0.6653
20143SOL     OW61879   6.907   7.571   6.800 -0.2554 -0.5608 -0.0740
20143SOL    HW161880   6.916   7.588   6.707 -1.4163  0.4492 -0.0319
20143SOL    HW261881   6.813   7.560   6.813 -0.2074  0.2258  1.1126
20144SOL     OW61882   5.054   6.462   5.893  0.2988  0.0367 -0.3082
20144SOL    HW161883   5.090   6.410   5.822  1.0017  1.3738 -0.9782
20144SOL    HW261884   5.071   6.553   5.867  1.0828  0.5550  1.8124
20145SOL     OW61885   7.583   2.007   4.429 -0.6813 -0.0262  0.8616
20145SOL    HW161886   7.618   1.921   4.451 -2.1679 -1.0282 -0.4624
20145SOL    HW261887   7.657   2.054   4.389 -0.1605 -1.0946  0.5429
20146SOL     OW61888   7.815   1.421   3.668  0.3932  0.5080  0.5394
20146SOL    HW161889   7.799   1.465   3.751  0.0861  0.0844  0.7096
20146SOL    HW261890   7.744   1.356   3.661  0.3638  0.5992 -0.0923
20147SOL     OW61891   2.469   2.057   6.710 -0.4539  0.3906  0.2755
20147SOL    HW161892   2.441   2.133   6.761 -1.3073  1.6027 -1.8587
20147SOL    HW261893   2.412   1.986   6.739  0.1944  0.5932  2.1313
20148SOL     OW61894   5.099   6.683   2.325  0.4090  0.1251  0.1657
20148SOL    HW161895   5.183   6.640   2.342  1.3141  1.7759  0.1003
20148SOL    HW261896   5.090   6.680   2.229  0.6972  0.4923  0.1268
20149SOL     OW61897   2.867   3.692   6.339  0.5335  0.2059  0.1524
20149SOL    HW161898   2.843   3.677   6.247  2.1213  0.0261 -0.2612
20149SOL    HW261899   2.877   3.787   6.346  0.4684  0.2146  0.1257
20150SOL     OW61900   5.044   3.925   1.838  0.3546 -0.0449 -0.1123
20150SOL    HW161901   5.051   3.852   1.776  1.3276 -0.2196  0.1866
20150SOL    HW261902   5.057   4.003   1.784 -1.4261 -0.0004 -0.5697
20151SOL     OW61903   5.756   8.027   2.516 -0.2588 -0.4402 -0.0229
20151SOL    HW161904   5.686   8.017   2.580 -0.7751 -1.0403 -0.6579
20151SOL    HW261905   5.771   8.122   2.511  0.9076 -0.4734  2.1290
20152SOL     OW61906   2.037   1.751   5.500  0.1730 -0.1165 -0.2308
20152SOL    HW161907   1.958   1.804   5.509 -0.1633 -0.7032  0.2803
20152SOL    HW261908   2.080   1.757   5.585  1.3778  1.2712 -0.8763
20153SOL     OW61909   4.326   6.217   5.663 -0.0496  0.1731  0.4021
20153SOL    HW161910   4.349   6.305   5.636 -2.7947  1.3034  1.3618
20153SOL    HW261911   4.363   6.209   5.751 -0.0108  0.4733  0.4148
20154SOL     OW61912   7.723   2.247   0.439 -0.1896  0.0229 -0.3808
20154SOL    HW161913   7.776   2.225   0.362 -1.2465 -0.7115 -0.9201
20154SOL    HW261914   7.711   2.164   0.485 -0.4766  0.2693 -0.0088
20155SOL     OW61915   0.924   6.747   3.376 -0.7171  0.6909  0.0794
20155SOL    HW161916   0.949   6.826   3.424 -0.4956  0.4688  0.3371
20155SOL    HW261917   0.828   6.743   3.385 -0.6540  0.5254  0.7056
20156SOL     OW61918   8.181   1.933   8.081 -0.2685 -0.0659 -1.0115
20156SOL    HW161919   8.212   1.844   8.100  1.2400  0.3292 -1.4678
20156SOL    HW261920   8.183   1.978   8.165  0.7698  0.0473 -1.0891
20157SOL     OW61921   1.519   6.374   4.074 -0.0272 -0.1575 -0.1741
20157SOL    HW161922   1.545   6.362   3.983 -0.7563 -1.1046 -0.2754
20157SOL    HW261923   1.601   6.371   4.123  0.3760  0.4077 -0.7918
20158SOL     OW61924   6.764   1.174   2.296 -0.3299  0.2867  0.2542
20158SOL    HW161925   6.673   1.148   2.282  0.2218 -1.0855 -1.0020
20158SOL    HW261926   6.777   1.166   2.391 -1.8700  1.8279  0.6350
20159SOL     OW61927   8.449   8.446   4.458 -0.6390 -0.0156  0.3766
20159SOL    HW161928   8.469   8.492   4.540 -0.0119 -0.9172  0.7512
20159SOL    HW261929   8.462   8.512   4.390 -1.6147  0.8745  1.0264
20160SOL     OW61930   5.750   6.807   4.326  0.1056 -0.4037  0.8094
20160SOL    HW161931   5.722   6.773   4.411  0.8640  0.8731  1.6249
20160SOL    HW261932   5.835   6.849   4.345  0.4230 -0.3588 -0.6415
20161SOL     OW61933   3.393   5.251   6.771  0.1017  0.3121 -0.1560
20161SOL    HW161934   3.479   5.254   6.729 -0.1665  2.0506 -0.6597
20161SOL    HW261935   3.405   5.194   6.846  1.5216 -0.0096 -0.6015
20162SOL     OW61936   4.285   0.774   6.038 -0.5034  0.2960  0.2690
20162SOL    HW161937   4.239   0.836   6.095 -1.9830 -1.7145  1.3897
20162SOL    HW261938   4.271   0.809   5.950 -1.6427  1.3267  0.8248
20163SOL     OW61939   8.121   8.948   0.714 -0.6473 -0.3836 -0.6710
20163SOL    HW161940   8.088   8.924   0.627  0.9315  0.4966 -1.5598
20163SOL    HW261941   8.154   8.866   0.750  1.6161 -0.2807 -2.2800
20164SOL     OW61942   6.185   8.116   1.086 -0.0063  0.6496 -0.8369
20164SOL    HW161943   6.207   8.032   1.047 -0.5942 -0.8243  1.7856
20164SOL    HW261944   6.268   8.162   1.094  0.6276 -0.5288 -0.4793
20165SOL     OW61945   8.975   4.968   1.489  0.3952 -0.3990  0.2248
20165SOL    HW161946   9.011   4.914   1.419  0.0655  1.6711 -1.6684
20165SOL    HW261947   9.033   5.044   1.493  0.2270 -0.3285  2.0247
20166SOL     OW61948   4.574   5.002   1.631  0.2237 -0.3051  0.0400
20166SOL    HW161949   4.496   5.015   1.684  0.8907  1.5884  0.6282
20166SOL    HW261950   4.543   4.955   1.554 -1.4724  0.2578  0.3474
20167SOL     OW61951   0.667   6.273   5.804 -0.1634  0.8362  0.1952
20167SOL    HW161952   0.572   6.279   5.812 -0.0996  3.2848 -0.1683
20167SOL    HW261953   0.701   6.337   5.866  1.1953  0.9561 -0.6233
20168SOL     OW61954   6.979   0.166   7.125 -0.1973 -0.1710  0.0682
20168SOL    HW161955   7.057   0.220   7.119 -1.2887  1.5353  0.6349
20168SOL    HW261956   6.988   0.118   7.207  1.7616 -2.5693 -1.4014
20169SOL     OW61957   1.848   2.751   3.529  0.5081 -0.3903  0.0271
20169SOL    HW161958   1.840   2.735   3.623  0.4861 -1.4402 -0.1383
20169SOL    HW261959   1.795   2.828   3.512 -0.5727 -0.9818  0.6640
20170SOL     OW61960   9.248   4.442   2.018 -0.6606  0.3503 -0.3251
20170SOL    HW161961   9.233   4.507   1.949  0.6954  1.3466  0.2893
20170SOL    HW261962   9.171   4.451   2.075 -1.4743 -0.0279 -1.3141
20171SOL     OW61963   1.318   2.906   4.098  0.3123  0.1926 -0.5644
20171SOL    HW161964   1.386   2.843   4.073 -1.6871 -2.0357 -0.7675
20171SOL    HW261965   1.269   2.862   4.167 -1.8641  1.0139 -1.5080
20172SOL     OW61966   7.296   5.226   3.237  0.0095  0.1726 -0.1093
20172SOL    HW161967   7.335   5.288   3.298  0.9846 -0.6076  0.0842
20172SOL    HW261968   7.250   5.281   3.173  1.2565  1.1354 -0.2304
20173SOL     OW61969   7.914   4.052   5.057 -0.5499  0.1520 -0.5040
20173SOL    HW161970   7.891   3.961   5.040 -1.1664  0.1511  0.2741
20173SOL    HW261971   7.833   4.092   5.089  0.4797  0.1129  2.4961
20174SOL     OW61972   7.046   8.186   0.760 -0.0146 -0.3639  0.6667
20174SOL    HW161973   7.030   8.097   0.727 -1.1229 -0.2490  0.8861
20174SOL    HW261974   7.039   8.241   0.682 -0.5207 -0.3348  0.7312
20175SOL     OW61975   1.808   8.678   4.992 -0.1168 -0.5140 -0.0181
20175SOL    HW161976   1.822   8.607   4.929  0.5071  0.1218 -0.6112
20175SOL    HW261977   1.728   8.720   4.963 -0.6726 -1.1744  0.5328
20176SOL     OW61978   5.463   0.956   4.794 -0.0806 -0.0552  0.0152
20176SOL    HW161979   5.372   0.982   4.802  0.0499  0.5201 -0.3119
20176SOL    HW261980   5.479   0.956   4.700  0.0553 -0.8673  0.0335
20177SOL     OW61981   1.098   3.669   8.164 -0.2893  0.3980 -0.5343
20177SOL    HW161982   1.103   3.753   8.210 -0.8689  0.4427 -0.5447
20177SOL    HW261983   1.049   3.688   8.084  0.6744  0.3083 -1.1619
20178SOL     OW61984   8.089   0.735   5.289  0.0953 -0.0922 -0.1297
20178SOL    HW161985   8.175   0.776   5.302  0.8314 -1.6352  0.0731
20178SOL    HW261986   8.084   0.721   5.195  1.3969 -2.6282  0.0885
20179SOL     OW61987   5.313   3.266   4.915  0.6943  0.5456  0.1062
20179SOL    HW161988   5.326   3.172   4.906  0.9866  0.6653 -0.8279
20179SOL    HW261989   5.222   3.275   4.943  0.2179  0.0382 -1.2245
20180SOL     OW61990   3.618   5.001   1.425  0.3393 -0.1405  0.1283
20180SOL    HW161991   3.685   4.946   1.384  0.8543  0.1259  0.5960
20180SOL    HW261992   3.536   4.952   1.412  0.0698  0.9441 -3.1053
20181SOL     OW61993   5.209   6.063   9.276  0.3678 -0.1735  0.1469
20181SOL    HW161994   5.297   6.040   9.307  0.9316  0.0717 -1.1867
20181SOL    HW261995   5.155   5.988   9.301  0.7836 -0.0240  1.5986
20182SOL     OW61996   7.778   0.677   6.832  0.0709  0.0380  0.5713
20182SOL    HW161997   7.708   0.731   6.795  0.4141  0.1727  0.1010
20182SOL    HW261998   7.781   0.702   6.925 -0.6238 -0.1092  0.6350
20183SOL     OW61999   6.279   5.974   5.669  0.8474  0.4200 -0.2126
20183SOL    HW162000   6.293   5.954   5.762 -0.3765 -1.0532 -0.3000
20183SOL    HW262001   6.362   6.012   5.640  2.2559 -1.6527  0.8349
20184SOL     OW62002   9.064   7.993   6.114 -0.1316 -0.0068  0.0127
20184SOL    HW162003   8.970   7.975   6.108 -0.4957  1.7200 -0.1990
20184SOL    HW262004   9.092   8.002   6.024 -0.1710  1.2117  0.0997
20185SOL     OW62005   2.671   4.479   1.096  0.5753  0.5994  0.0006
20185SOL    HW162006   2.627   4.530   1.028  2.7295 -1.2717 -3.0645
20185SOL    HW262007   2.633   4.510   1.178 -3.3825  1.9133 -2.0827
20186SOL     OW62008   3.872   1.554   3.946 -0.0437  0.1314 -0.3134
20186SOL    HW162009   3.881   1.639   3.989  0.2385 -0.1387  0.1656
20186SOL    HW262010   3.904   1.568   3.857  1.3193  0.1920  0.1652
20187SOL     OW62011   6.154   8.650   5.010 -0.0264  0.0452 -0.1811
20187SOL    HW162012   6.124   8.729   4.964  1.3554  1.7633  1.7020
20187SOL    HW262013   6.081   8.627   5.067 -0.4459 -0.1017 -0.7569
20188SOL     OW62014   7.266   2.522   5.084 -0.0277 -0.2339  0.5104
20188SOL    HW162015   7.289   2.563   5.167 -2.0015 -0.7361  1.3588
20188SOL    HW262016   7.333   2.456   5.070 -0.2044 -0.8229  2.2385
20189SOL     OW62017   4.135   7.136   8.556 -0.6960 -0.1631  0.4106
20189SOL    HW162018   4.043   7.162   8.562 -0.5553  1.1666 -2.0084
20189SOL    HW262019   4.183   7.208   8.596 -0.6340 -0.1476  0.3088
20190SOL     OW62020   2.010   6.213   2.524  0.1345 -0.1201  0.0643
20190SOL    HW162021   2.017   6.119   2.543 -0.0071 -0.3276 -0.8788
20190SOL    HW262022   2.080   6.253   2.575 -1.0503 -0.4812  2.1181
20191SOL     OW62023   4.881   3.227   1.555 -0.1853 -0.5495 -0.5347
20191SOL    HW162024   4.958   3.224   1.612 -0.7448  0.2685  0.2972
20191SOL    HW262025   4.840   3.311   1.575 -0.1225  0.0007 -2.5298
20192SOL     OW62026   8.537   3.992   2.777  0.2185  0.2829  0.0100
20192SOL    HW162027   8.546   4.087   2.771 -0.4541  0.4254  1.0873
20192SOL    HW262028   8.487   3.968   2.699  0.4957  0.7920 -0.3336
20193SOL     OW62029   1.247   1.432   0.989 -0.2794 -0.3116 -0.1624
20193SOL    HW162030   1.287   1.508   1.033  1.1821  0.1131 -2.1082
20193SOL    HW262031   1.287   1.431   0.902 -1.2911 -2.5384 -0.6574
20194SOL     OW62032   6.141   4.001   6.202  0.1606  0.9313 -0.3051
20194SOL    HW162033   6.234   3.988   6.220 -0.4806 -0.8873  2.3785
20194SOL    HW262034   6.123   4.090   6.235  0.4985  0.3369  1.5978
20195SOL     OW62035   1.675   8.854   4.271  0.3134 -0.1431 -0.1600
20195SOL    HW162036   1.598   8.912   4.276  0.3609 -0.0686 -0.2856
20195SOL    HW262037   1.715   8.860   4.358 -0.6070 -1.2637  0.3625
20196SOL     OW62038   1.017   2.883   1.218  0.3085 -0.8353 -0.6548
20196SOL    HW162039   1.066   2.952   1.264  2.7980 -1.7557 -1.7900
20196SOL    HW262040   0.970   2.929   1.149  0.4874 -0.0728 -0.2831
20197SOL     OW62041   3.201   4.043   8.777 -0.1404  0.2464 -0.0308
20197SOL    HW162042   3.114   4.010   8.756  0.4761 -0.9484 -0.8299
20197SOL    HW262043   3.242   4.058   8.691 -0.1651  2.5809  0.2882
20198SOL     OW62044   3.314   2.694   2.136  0.3762 -0.0710  0.0950
20198SOL    HW162045   3.357   2.714   2.052  0.3085  1.3418  0.3694
20198SOL    HW262046   3.338   2.604   2.154  2.0607  0.2311 -0.4583
20199SOL     OW62047   4.771   3.263   5.898 -0.7357  0.0569 -0.0662
20199SOL    HW162048   4.772   3.322   5.823  1.7364 -1.0529 -1.0425
20199SOL    HW262049   4.750   3.177   5.861 -3.6593  0.0992  1.2357
20200SOL     OW62050   1.092   8.725   0.830 -0.1516 -0.5581  0.7291
20200SOL    HW162051   1.109   8.819   0.831 -1.6131 -0.2564  0.0256
20200SOL    HW262052   1.111   8.698   0.741  0.7270 -1.0483  1.0480
20201SOL     OW62053   0.098   1.988   7.568  0.4502  0.1983 -0.1629
20201SOL    HW162054   0.122   2.037   7.489 -0.6638  0.2511 -0.4753
20201SOL    HW262055   0.142   2.035   7.639  2.2235 -0.3693 -0.8063
20202SOL     OW62056   2.462   1.930   0.686 -0.0655  0.3590  0.6430
20202SOL    HW162057   2.445   1.874   0.762  0.8232 -2.6339 -1.2128
20202SOL    HW262058   2.410   1.893   0.616 -0.6341  2.8750 -0.3566
20203SOL     OW62059   0.963   0.308   6.968  0.3222 -0.1436 -0.3348
20203SOL    HW162060   1.012   0.321   6.886  0.3096 -0.3318 -0.3723
20203SOL    HW262061   1.008   0.365   7.031 -0.0212  0.4440 -0.6110
20204SOL     OW62062   9.003   4.295   8.891 -0.5002  0.0117 -0.0422
20204SOL    HW162063   8.926   4.330   8.846  0.1739  2.4229  0.5467
20204SOL    HW262064   8.993   4.324   8.982  0.0143 -1.5856  0.5567
20205SOL     OW62065   1.473   6.767   2.879 -0.5663 -0.2744  0.0859
20205SOL    HW162066   1.415   6.725   2.816 -0.3114 -1.1829  0.4411
20205SOL    HW262067   1.543   6.704   2.893  0.0620  0.4587  0.3039
20206SOL     OW62068   1.712   5.722   1.291 -0.3801 -0.6570  0.5263
20206SOL    HW162069   1.784   5.694   1.234  0.2938  1.8441  0.0417
20206SOL    HW262070   1.697   5.813   1.268 -1.6297 -0.2166  2.7805
20207SOL     OW62071   5.576   3.866   2.760 -0.3602  0.3757 -0.3626
20207SOL    HW162072   5.567   3.869   2.665  1.0146  1.4962 -0.4830
20207SOL    HW262073   5.626   3.786   2.778 -1.5267 -0.4079 -0.4656
20208SOL     OW62074   8.077   0.831   6.404  0.5205  0.3570  0.0253
20208SOL    HW162075   8.105   0.761   6.462  0.1906 -0.2618 -0.5536
20208SOL    HW262076   8.055   0.788   6.321 -3.5544  0.5060  0.8209
20209SOL     OW62077   0.108   8.427   5.680  0.0786  0.0438 -0.5418
20209SOL    HW162078   0.085   8.337   5.707 -0.7958  0.5132  0.3701
20209SOL    HW262079   0.137   8.418   5.590  0.9666 -1.3016 -0.1655
20210SOL     OW62080   0.973   5.557   0.713  0.0924 -0.2164  1.0179
20210SOL    HW162081   1.055   5.552   0.664 -0.5554 -1.5444  0.0120
20210SOL    HW262082   1.000   5.556   0.805  1.2501  0.7063  0.7116
20211SOL     OW62083   1.589   7.062   5.259  0.3042 -0.8974  0.1563
20211SOL    HW162084   1.506   7.019   5.279 -0.1543 -0.5571 -0.8911
20211SOL    HW262085   1.622   7.093   5.343 -1.4227  0.3566  0.4254
20212SOL     OW62086   2.040   8.253   5.987 -0.7123 -0.0123 -0.4708
20212SOL    HW162087   1.960   8.220   5.944  0.2139  0.7492 -2.9609
20212SOL    HW262088   2.111   8.205   5.944  0.2534 -0.3319  1.3717
20213SOL     OW62089   7.442   0.553   4.056  0.5004 -0.2782  0.1953
20213SOL    HW162090   7.528   0.594   4.044  0.3831 -0.4266 -1.3236
20213SOL    HW262091   7.395   0.612   4.114  1.7879 -0.4541  1.4952
20214SOL     OW62092   5.423   2.601   2.443 -0.1988 -0.5880  0.0549
20214SOL    HW162093   5.453   2.692   2.449 -0.6705 -0.4908  1.1217
20214SOL    HW262094   5.460   2.569   2.360  1.5201  0.0093  0.5433
20215SOL     OW62095   8.893   1.394   3.916 -0.1691 -0.2262  0.2440
20215SOL    HW162096   8.915   1.359   4.002  0.4857  2.8540  1.4417
20215SOL    HW262097   8.965   1.452   3.894 -0.8057 -0.1748 -1.9688
20216SOL     OW62098   6.973   5.178   6.222 -0.4424 -0.2976 -0.2835
20216SOL    HW162099   7.015   5.200   6.139  3.0808  1.2623  1.6701
20216SOL    HW262100   7.009   5.092   6.244 -0.5771 -0.2721  0.0401
20217SOL     OW62101   1.785   5.494   4.431  0.1677 -0.1757 -0.1124
20217SOL    HW162102   1.846   5.513   4.502  0.0077 -1.7775  0.4998
20217SOL    HW262103   1.743   5.412   4.457 -0.2405 -0.5576 -1.8380
20218SOL     OW62104   3.345   2.576   7.390 -0.2707 -0.5360  0.3319
20218SOL    HW162105   3.353   2.648   7.452 -1.2035 -0.5724  0.5171
20218SOL    HW262106   3.255   2.544   7.402 -0.4004 -0.6884 -0.8683
20219SOL     OW62107   6.358   0.434   2.749  0.1403 -0.3021  0.2134
20219SOL    HW162108   6.318   0.375   2.813 -0.8588  1.2584  1.1054
20219SOL    HW262109   6.354   0.521   2.790 -0.2833  0.7233 -1.8453
20220SOL     OW62110   2.564   0.283   2.066  0.6593 -0.4166  0.1050
20220SOL    HW162111   2.590   0.278   2.158  0.5382  0.8546  0.2149
20220SOL    HW262112   2.629   0.340   2.025  0.4644 -0.6244 -0.5129
20221SOL     OW62113   4.663   4.303   8.419  0.3979 -0.4709  0.2790
20221SOL    HW162114   4.617   4.358   8.356 -1.0448 -2.1233 -0.2084
20221SOL    HW262115   4.647   4.344   8.504  2.8065  2.0873 -0.3398
20222SOL     OW62116   0.461   5.320   2.443 -0.4081 -0.1460  0.2033
20222SOL    HW162117   0.380   5.269   2.440  0.2173 -1.1289 -2.4660
20222SOL    HW262118   0.441   5.399   2.393  0.2023 -0.2665 -0.2362
20223SOL     OW62119   3.103   5.775   4.224  0.1679 -0.2110 -0.1290
20223SOL    HW162120   3.070   5.862   4.245 -0.2857 -0.2287 -0.7269
20223SOL    HW262121   3.118   5.734   4.309  0.2236  0.3879  0.1579
20224SOL     OW62122   1.909   2.346   4.917  0.1059  0.4489 -0.4834
20224SOL    HW162123   1.980   2.337   4.980  0.1963 -2.4284 -0.8424
20224SOL    HW262124   1.952   2.372   4.835  0.1666  2.7227  0.2135
20225SOL     OW62125   3.371   4.518   2.781 -0.1422  0.5381 -0.1321
20225SOL    HW162126   3.336   4.456   2.717  1.0178 -1.7308  1.2781
20225SOL    HW262127   3.379   4.601   2.733  0.0123 -0.8546 -2.7050
20226SOL     OW62128   3.742   2.086   2.813 -0.2190 -0.0940 -0.1628
20226SOL    HW162129   3.652   2.117   2.806 -0.2699 -0.3541 -0.7405
20226SOL    HW262130   3.763   2.054   2.725  0.0995 -0.9377  0.2115
20227SOL     OW62131   6.931   5.552   1.447 -0.1034  0.0673 -0.4562
20227SOL    HW162132   6.850   5.515   1.482 -0.1360  0.1977 -0.3924
20227SOL    HW262133   6.905   5.635   1.408 -0.0937 -0.1484 -0.9326
20228SOL     OW62134   0.185   4.852   0.289 -0.6704 -0.2637 -0.3678
20228SOL    HW162135   0.280   4.862   0.284 -0.4572 -1.5355  0.6485
20228SOL    HW262136   0.152   4.940   0.309  0.2686  0.2136 -0.8742
20229SOL     OW62137   4.446   7.412   3.429  0.3070  0.0678  0.1169
20229SOL    HW162138   4.389   7.469   3.480  0.0993  0.0066 -0.0471
20229SOL    HW262139   4.535   7.433   3.459  0.0871 -1.5467  2.2078
20230SOL     OW62140   8.346   0.424   2.810  0.5025 -0.3999  0.0694
20230SOL    HW162141   8.285   0.495   2.833 -1.2944 -1.4825 -1.0891
20230SOL    HW262142   8.417   0.467   2.763 -0.3262  0.6970 -0.2183
20231SOL     OW62143   4.136   2.642   0.516  0.9837  0.4076  0.1569
20231SOL    HW162144   4.090   2.608   0.439  1.9983  3.3843 -1.9525
20231SOL    HW262145   4.071   2.640   0.586  0.0095 -2.3877 -0.6767
20232SOL     OW62146   5.670   7.424   8.591 -0.2156 -0.1383 -0.3888
20232SOL    HW162147   5.604   7.365   8.626  1.6775 -1.1064  1.8340
20232SOL    HW262148   5.620   7.490   8.543 -2.6903 -1.3749  0.3056
20233SOL     OW62149   8.962   5.573   1.056 -0.4840 -1.0148 -0.0479
20233SOL    HW162150   8.970   5.541   0.966 -0.1686  0.0259 -0.4012
20233SOL    HW262151   8.887   5.633   1.053 -0.1778 -0.6141  0.2779
20234SOL     OW62152   3.916   6.256   0.527  0.1479  0.1309 -0.1025
20234SOL    HW162153   3.920   6.324   0.460  0.5786  1.5631  1.3216
20234SOL    HW262154   3.823   6.239   0.538  0.0086  0.8217 -0.1692
20235SOL     OW62155   4.110   1.806   1.420 -0.3145  0.1367 -0.4997
20235SOL    HW162156   4.205   1.798   1.427 -0.4003 -2.5307 -1.1816
20235SOL    HW262157   4.095   1.830   1.328 -0.3198  0.7164 -0.3529
20236SOL     OW62158   1.023   8.131   3.054  1.2214 -0.2446  0.4682
20236SOL    HW162159   1.002   8.214   3.097 -0.5139 -0.6830  0.5326
20236SOL    HW262160   1.115   8.115   3.077  1.0161  0.6746  2.0910
20237SOL     OW62161   9.173   8.994   8.488  0.1573  0.3570  0.4754
20237SOL    HW162162   9.204   8.980   8.398  0.0832 -0.8944  0.6244
20237SOL    HW262163   9.118   9.072   8.483  0.1445  0.2898 -0.5706
20238SOL     OW62164   1.306   2.171   3.415  0.5229  0.1762  0.1775
20238SOL    HW162165   1.230   2.122   3.445  0.6254 -1.2096 -1.6877
20238SOL    HW262166   1.313   2.244   3.476 -3.6545  1.7052 -0.8495
20239SOL     OW62167   5.902   0.364   8.681 -0.3855 -0.2630  0.5390
20239SOL    HW162168   5.923   0.291   8.739 -0.3720  0.2471  1.1952
20239SOL    HW262169   5.924   0.442   8.733 -1.9970  0.2467  0.4927
20240SOL     OW62170   0.132   4.819   8.540  0.3677  0.4665 -0.2738
20240SOL    HW162171   0.161   4.736   8.503  2.2005  1.4800 -1.2709
20240SOL    HW262172   0.040   4.805   8.561  0.7716 -1.9868  0.1845
20241SOL     OW62173   4.362   5.006   8.172 -0.5289 -0.2754  0.2193
20241SOL    HW162174   4.280   4.957   8.163  0.4862 -1.9197 -0.5501
20241SOL    HW262175   4.427   4.953   8.126  1.1228  0.6304  1.3834
20242SOL     OW62176   6.340   3.047   6.060  0.1015  0.1098 -0.2474
20242SOL    HW162177   6.258   3.058   6.107 -0.2713  1.1492 -1.1089
20242SOL    HW262178   6.315   3.037   5.968  0.8424 -1.4501 -0.3253
20243SOL     OW62179   3.097   5.996   7.115 -0.2916  0.2323 -0.0221
20243SOL    HW162180   3.074   6.036   7.200 -0.1143 -0.5756  0.4152
20243SOL    HW262181   3.020   5.944   7.092 -0.0330 -0.1711  0.0279
20244SOL     OW62182   6.876   4.147   3.354  0.1645  0.1674 -0.2311
20244SOL    HW162183   6.918   4.226   3.388 -0.1223  1.9290 -3.6300
20244SOL    HW262184   6.782   4.161   3.369  0.2198 -0.4320  0.7955
20245SOL     OW62185   1.351   6.428   2.908 -0.0234 -0.6897 -0.4096
20245SOL    HW162186   1.406   6.420   2.829  0.6171  1.0157 -0.1901
20245SOL    HW262187   1.414   6.441   2.979 -0.6030 -2.1461  0.3998
20246SOL     OW62188   5.104   1.238   3.298  0.2803  0.0913 -0.5109
20246SOL    HW162189   5.071   1.154   3.266 -1.5061  0.9599 -1.0767
20246SOL    HW262190   5.043   1.303   3.263  0.9436  1.5289  0.8688
20247SOL     OW62191   1.705   6.975   3.435  0.0093 -0.1300 -0.2978
20247SOL    HW162192   1.790   6.986   3.393  0.4858  2.0339  1.0465
20247SOL    HW262193   1.644   7.021   3.378  0.5867  2.4338  0.9834
20248SOL     OW62194   7.144   0.641   8.248  0.7188 -0.0506 -0.1467
20248SOL    HW162195   7.083   0.712   8.229 -0.5103 -0.9127  0.4489
20248SOL    HW262196   7.111   0.567   8.197  1.1631 -0.5801  0.3160
20249SOL     OW62197   7.235   0.807   7.376  0.3589 -0.5640  0.0709
20249SOL    HW162198   7.171   0.752   7.421 -1.2984 -0.7091 -2.2629
20249SOL    HW262199   7.197   0.821   7.289  2.2906  1.5559 -0.5313
20250SOL     OW62200   2.614   0.260   5.488 -0.6625  0.2767  0.2608
20250SOL    HW162201   2.701   0.261   5.529 -0.4045  1.3393 -0.2904
20250SOL    HW262202   2.630   0.231   5.398 -0.8192  0.8557  0.0428
20251SOL     OW62203   3.055   5.372   4.345 -0.1991 -0.3720  0.5958
20251SOL    HW162204   3.093   5.433   4.407  0.8125  0.2898 -0.6178
20251SOL    HW262205   2.978   5.417   4.309 -0.5858 -0.6177  1.1049
20252SOL     OW62206   6.537   4.014   2.616  0.1945  0.1306 -0.4505
20252SOL    HW162207   6.565   3.923   2.624 -2.4504 -0.6458  1.4590
20252SOL    HW262208   6.453   4.011   2.572 -1.2786  1.2534  2.0246
20253SOL     OW62209   6.506   4.590   1.022  0.4969 -0.1923  0.1796
20253SOL    HW162210   6.499   4.684   1.037  1.6799 -0.1391  0.5558
20253SOL    HW262211   6.507   4.580   0.927  1.6689  0.3155  0.1207
20254SOL     OW62212   5.085   8.463   6.820  0.2903 -0.4930 -0.0494
20254SOL    HW162213   5.091   8.551   6.858  2.7546 -1.1791  1.4007
20254SOL    HW262214   5.075   8.478   6.726 -0.7279  1.2961  0.2917
20255SOL     OW62215   1.990   5.352   0.745 -0.5711 -0.0739  0.6665
20255SOL    HW162216   1.986   5.433   0.795 -3.5800  1.7826 -2.1628
20255SOL    HW262217   2.030   5.376   0.662 -0.3746 -1.7972  0.2129
20256SOL     OW62218   5.262   7.536   7.175 -0.0654 -0.3097 -0.3050
20256SOL    HW162219   5.268   7.465   7.240  0.1648  1.4326  1.6898
20256SOL    HW262220   5.350   7.573   7.172 -0.2206  0.0066 -1.1962
20257SOL     OW62221   6.496   7.557   2.206 -0.0254  0.4972 -0.0848
20257SOL    HW162222   6.588   7.557   2.180  0.1589  1.0278  0.5397
20257SOL    HW262223   6.490   7.489   2.272  0.0977  0.9849  0.4426
20258SOL     OW62224   0.662   5.691   1.852  0.4230  0.1401  0.5493
20258SOL    HW162225   0.580   5.741   1.854  0.4564  0.3440 -1.3621
20258SOL    HW262226   0.642   5.617   1.795  1.3516 -0.2272  0.6990
20259SOL     OW62227   5.559   0.292   5.396  0.3370  0.1636 -0.0534
20259SOL    HW162228   5.465   0.293   5.377  0.1520  0.3064  0.8319
20259SOL    HW262229   5.600   0.317   5.313 -0.3538 -0.7912 -0.7038
20260SOL     OW62230   2.620   6.289   8.572 -0.2941 -0.2286 -0.4068
20260SOL    HW162231   2.627   6.323   8.482  0.5003  0.0556 -0.2402
20260SOL    HW262232   2.630   6.194   8.562 -1.2696 -0.3157 -0.7287
20261SOL     OW62233   2.328   2.106   0.343  0.6063  0.2351  0.8863
20261SOL    HW162234   2.322   2.154   0.261  1.4162 -0.0156  0.6714
20261SOL    HW262235   2.266   2.149   0.401 -2.2319 -1.3570 -0.7280
20262SOL     OW62236   0.596   6.690   1.112  0.0187 -0.0613 -0.4042
20262SOL    HW162237   0.627   6.699   1.202 -1.0914  1.1398 -0.1111
20262SOL    HW262238   0.524   6.752   1.105 -0.5446 -0.8294 -1.8538
20263SOL     OW62239   0.938   7.471   3.548  0.3566 -0.7636  0.2901
20263SOL    HW162240   0.995   7.449   3.475 -0.4725  0.1997 -0.6927
20263SOL    HW262241   0.849   7.458   3.514 -0.0709  0.6830  0.7563
20264SOL     OW62242   6.062   3.082   0.578  0.2918  1.2710 -0.4312
20264SOL    HW162243   6.021   3.135   0.646  2.0045  0.3962  1.3967
20264SOL    HW262244   6.139   3.133   0.551  0.5222  0.8853 -0.5141
20265SOL     OW62245   4.887   7.863   1.786  0.6798 -0.0861  0.0980
20265SOL    HW162246   4.901   7.861   1.691  0.0498 -1.2591  0.0018
20265SOL    HW262247   4.972   7.843   1.824  0.6929 -0.7929 -0.2749
20266SOL     OW62248   7.211   2.206   7.737  0.7565 -0.9738 -0.1835
20266SOL    HW162249   7.278   2.234   7.799 -0.3185 -1.9195  1.4904
20266SOL    HW262250   7.250   2.221   7.651  2.3767  0.2236  0.7008
20267SOL     OW62251   0.760   6.451   5.982  0.3758 -0.0514 -0.8069
20267SOL    HW162252   0.685   6.509   5.996  0.0013 -0.5984 -0.4980
20267SOL    HW262253   0.836   6.506   6.000 -0.0131 -0.0111  0.8461
20268SOL     OW62254   3.081   2.310   8.364  0.2226 -0.2855  0.4338
20268SOL    HW162255   3.176   2.320   8.360  0.1724  1.1081  1.6842
20268SOL    HW262256   3.062   2.233   8.310  2.1863 -1.3487  1.1498
20269SOL     OW62257   3.477   0.500   5.592  0.0831  0.3186  0.2666
20269SOL    HW162258   3.557   0.459   5.559  0.1892 -0.5691  1.5553
20269SOL    HW262259   3.478   0.481   5.686 -0.6231  2.0441  0.6537
20270SOL     OW62260   8.904   1.761   5.998  0.2934 -0.2790  0.1923
20270SOL    HW162261   8.858   1.766   5.914 -0.9165  1.4252  0.8980
20270SOL    HW262262   8.847   1.708   6.053  1.3121 -1.7995 -0.1309
20271SOL     OW62263   1.432   8.620   4.313  0.0666  0.6629 -0.3883
20271SOL    HW162264   1.510   8.564   4.315 -1.3456 -1.4231  1.1973
20271SOL    HW262265   1.458   8.699   4.360  1.6439  0.6780 -1.2228
20272SOL     OW62266   3.224   0.808   6.721  0.7162  0.1189  0.3998
20272SOL    HW162267   3.132   0.780   6.717  0.7739  0.0044 -0.1316
20272SOL    HW262268   3.274   0.726   6.723  0.8454  0.1777 -0.2494
20273SOL     OW62269   4.010   2.481   0.312 -0.1005  0.4008  0.2107
20273SOL    HW162270   4.063   2.402   0.310  0.6581  0.7064 -4.3131
20273SOL    HW262271   3.922   2.451   0.287  0.2303  0.8562 -1.7042
20274SOL     OW62272   1.403   0.293   4.199 -0.5306  0.3614  0.1879
20274SOL    HW162273   1.409   0.218   4.140 -3.6799  1.5983 -1.9813
20274SOL    HW262274   1.456   0.361   4.157 -0.5207  0.4177  0.2900
20275SOL     OW62275   2.727   6.314   2.348 -0.5654  0.5097 -0.4608
20275SOL    HW162276   2.750   6.239   2.402  0.0418  0.6374 -0.5363
20275SOL    HW262277   2.764   6.294   2.262  2.1174  2.0981  0.1848
20276SOL     OW62278   1.376   6.022   6.247  0.1680 -0.1059  1.2346
20276SOL    HW162279   1.397   5.967   6.172  2.0246  1.1933  0.7589
20276SOL    HW262280   1.357   5.959   6.317  2.1675 -1.4050  0.7017
20277SOL     OW62281   2.831   4.274   1.729  0.1143 -0.8276  1.3143
20277SOL    HW162282   2.875   4.275   1.644 -0.4367 -2.4230  0.9634
20277SOL    HW262283   2.800   4.363   1.742 -0.1128 -0.6438 -0.3347
20278SOL     OW62284   2.383   0.454   1.541 -0.2368  0.3408  0.3637
20278SOL    HW162285   2.373   0.449   1.446  0.6999 -0.4125  0.2831
20278SOL    HW262286   2.458   0.512   1.554  0.3628 -0.4568  0.5784
20279SOL     OW62287   4.751   1.526   3.827  0.3314 -0.2436 -0.1648
20279SOL    HW162288   4.714   1.579   3.757  1.1208 -0.2212 -0.5760
20279SOL    HW262289   4.709   1.558   3.906  0.1436  0.3925 -0.5190
20280SOL     OW62290   7.958   3.751   0.371  0.4040 -0.1164  0.6502
20280SOL    HW162291   7.909   3.674   0.346 -0.3819  0.4719  0.3562
20280SOL    HW262292   8.043   3.740   0.328  0.2393 -0.7261  0.4712
20281SOL     OW62293   6.943   5.089   9.063  0.0973  0.0482 -0.2079
20281SOL    HW162294   7.023   5.141   9.065 -1.0149  1.8497  0.4462
20281SOL    HW262295   6.885   5.137   9.003 -1.4202  0.3293  1.3988
20282SOL     OW62296   7.003   5.241   2.035  0.0569  0.5511 -0.0822
20282SOL    HW162297   6.968   5.246   2.124 -0.3988 -0.6934 -0.1752
20282SOL    HW262298   7.040   5.153   2.029  0.5325  0.7981 -0.9713
20283SOL     OW62299   5.520   0.733   5.158 -0.1166 -0.0917  0.1352
20283SOL    HW162300   5.606   0.745   5.117  0.1838  0.0226  0.7830
20283SOL    HW262301   5.505   0.815   5.204 -0.4803 -0.1970  0.2008
20284SOL     OW62302   6.604   0.944   3.941  0.2281  0.2562 -0.4724
20284SOL    HW162303   6.542   0.917   3.873 -2.7002 -1.7096  2.6064
20284SOL    HW262304   6.584   1.036   3.957  1.5718  0.9987 -2.7300
20285SOL     OW62305   1.089   5.051   3.518 -0.3201 -0.2319 -0.5655
20285SOL    HW162306   1.053   5.102   3.591 -0.7184 -0.7382 -0.4068
20285SOL    HW262307   1.183   5.070   3.520 -0.5161  0.8370 -0.7751
20286SOL     OW62308   7.292   7.654   0.698  0.1817 -0.4345  0.1701
20286SOL    HW162309   7.241   7.585   0.740  1.7594 -0.2850  2.4738
20286SOL    HW262310   7.357   7.607   0.646 -0.6015 -0.6151 -0.6902
20287SOL     OW62311   4.829   3.665   8.101 -0.0347 -0.0437 -0.4220
20287SOL    HW162312   4.791   3.688   8.185 -0.1175  0.6391 -0.6407
20287SOL    HW262313   4.873   3.582   8.117 -1.1369 -0.5721 -0.0315
20288SOL     OW62314   0.586   0.485   8.637 -0.8225  1.0285 -0.1962
20288SOL    HW162315   0.589   0.435   8.718  0.0035 -1.6161 -1.7301
20288SOL    HW262316   0.675   0.519   8.626 -0.6189  0.4193 -0.5101
20289SOL     OW62317   6.281   5.554   7.084 -0.9444  0.1668  0.0705
20289SOL    HW162318   6.288   5.460   7.066  1.0388 -0.1388  1.9620
20289SOL    HW262319   6.199   5.580   7.042 -1.5369 -2.3820 -0.5739
20290SOL     OW62320   3.348   3.880   2.530 -0.2209 -0.3620 -0.3735
20290SOL    HW162321   3.280   3.945   2.516 -3.3086 -3.2733 -0.2286
20290SOL    HW262322   3.357   3.874   2.625  1.3749  0.9770 -0.3957
20291SOL     OW62323   7.696   5.854   5.531  0.4708  0.3969 -0.3874
20291SOL    HW162324   7.778   5.898   5.507  1.0167 -0.0160  0.6803
20291SOL    HW262325   7.712   5.762   5.512 -0.1425  0.4422 -1.1937
20292SOL     OW62326   3.108   1.534   2.817 -0.5611 -0.3557 -0.1088
20292SOL    HW162327   3.158   1.506   2.739  2.1340  0.8920  1.0323
20292SOL    HW262328   3.088   1.452   2.863  2.3801 -0.8909  0.4204
20293SOL     OW62329   6.879   1.503   0.895  0.1898 -0.7866  0.0516
20293SOL    HW162330   6.929   1.530   0.818 -0.1644 -0.0622  0.0753
20293SOL    HW262331   6.793   1.544   0.885  0.8576  1.3082  1.9694
20294SOL     OW62332   6.045   7.899   3.501 -0.4855 -0.0906 -0.0476
20294SOL    HW162333   6.097   7.945   3.567 -1.3191 -0.4501  0.8953
20294SOL    HW262334   5.977   7.854   3.552 -0.2002 -1.6862 -1.0037
20295SOL     OW62335   4.438   5.618   1.243 -0.5243  0.1531  0.2812
20295SOL    HW162336   4.495   5.606   1.319 -1.7045 -2.6388  0.8272
20295SOL    HW262337   4.486   5.578   1.170 -0.4924  0.5355  0.0901
20296SOL     OW62338   5.185   8.209   5.249  0.1679  0.1771 -0.2231
20296SOL    HW162339   5.103   8.217   5.201  1.0289  0.0331 -1.7749
20296SOL    HW262340   5.172   8.262   5.328 -1.8897 -0.9635  0.2788
20297SOL     OW62341   3.904   8.231   0.162  0.1066  0.6584 -0.1763
20297SOL    HW162342   3.993   8.267   0.170  0.5275  0.0280 -1.7856
20297SOL    HW262343   3.914   8.154   0.107 -1.3734  0.2769  0.0625
20298SOL     OW62344   6.197   2.310   2.052 -0.0459 -0.6145  0.5677
20298SOL    HW162345   6.202   2.217   2.075  2.1590 -0.7250 -0.1539
20298SOL    HW262346   6.113   2.339   2.089 -0.4933 -2.7172  1.3594
20299SOL     OW62347   5.215   8.091   2.331 -0.1072  0.3443  0.5472
20299SOL    HW162348   5.210   8.029   2.404  0.6282 -2.8698 -1.8907
20299SOL    HW262349   5.309   8.107   2.320 -0.1621  0.3105 -0.0230
20300SOL     OW62350   2.163   0.902   1.711 -0.2972 -0.1877  0.2449
20300SOL    HW162351   2.230   0.920   1.777 -0.5253 -0.2872  0.5050
20300SOL    HW262352   2.121   0.987   1.697  1.5308  0.4738 -1.7814
20301SOL     OW62353   2.696   8.453   3.860  0.3575 -0.1469  0.1741
20301SOL    HW162354   2.640   8.488   3.791  0.1384 -0.4398  0.2045
20301SOL    HW262355   2.665   8.497   3.940  0.1173 -0.3676  0.2036
20302SOL     OW62356   7.043   5.941   1.248 -0.8249 -0.1443  0.3649
20302SOL    HW162357   7.105   5.950   1.320  0.1739 -0.9068 -0.3693
20302SOL    HW262358   6.971   5.889   1.285 -0.1701 -0.8082  0.7437
20303SOL     OW62359   8.796   6.124   4.391 -0.6506 -0.4377  0.6860
20303SOL    HW162360   8.720   6.085   4.347  0.0621 -0.6458 -0.4091
20303SOL    HW262361   8.870   6.101   4.335 -0.0085  1.2414  0.7800
20304SOL     OW62362   3.740   2.863   2.043  0.3929  0.2657 -0.0247
20304SOL    HW162363   3.805   2.932   2.055  0.3346  0.4681 -0.7875
20304SOL    HW262364   3.788   2.792   2.000  0.1748  0.3182 -0.3603
20305SOL     OW62365   7.088   0.384   3.206 -0.0633 -0.7018 -0.3048
20305SOL    HW162366   7.182   0.364   3.208  0.2865  0.8056 -0.1254
20305SOL    HW262367   7.072   0.415   3.117  0.0360  0.8293  0.1873
20306SOL     OW62368   5.344   0.678   1.627  0.2353 -0.3644 -0.1022
20306SOL    HW162369   5.318   0.728   1.705 -1.6919 -1.0949 -0.2360
20306SOL    HW262370   5.324   0.587   1.649  2.4600 -0.9738 -0.3712
20307SOL     OW62371   8.826   1.441   8.004  0.2475  0.1337 -0.5329
20307SOL    HW162372   8.864   1.529   8.014 -0.4935  0.3319  0.7134
20307SOL    HW262373   8.900   1.382   8.011  0.6451  0.6173 -0.5733
20308SOL     OW62374   7.382   0.125   8.639 -0.3290 -0.0800  0.6838
20308SOL    HW162375   7.440   0.162   8.573 -0.7259 -3.1915 -1.6237
20308SOL    HW262376   7.441   0.097   8.709  0.6767 -0.8093 -0.4224
20309SOL     OW62377   6.405   3.862   4.419 -0.0586  0.0878  0.4416
20309SOL    HW162378   6.417   3.956   4.406  2.4599 -0.3826 -1.4992
20309SOL    HW262379   6.367   3.831   4.337 -0.8517 -0.6138  1.0560
20310SOL     OW62380   6.971   1.006   7.207  0.9745 -0.0318 -0.2636
20310SOL    HW162381   6.922   0.928   7.180  0.8014 -0.0343  0.0592
20310SOL    HW262382   6.962   1.009   7.302  1.5873 -0.0234 -0.2027
20311SOL     OW62383   5.725   0.529   9.032  0.3837  0.0595  0.2639
20311SOL    HW162384   5.701   0.555   9.121  0.2796 -1.5390  0.7289
20311SOL    HW262385   5.660   0.572   8.976 -0.6513 -0.3647  1.1147
20312SOL     OW62386   3.457   7.525   0.334  0.3724 -0.3236 -0.2667
20312SOL    HW162387   3.483   7.432   0.329 -1.1426 -0.7753 -0.1302
20312SOL    HW262388   3.438   7.548   0.243 -0.3059 -0.4664 -0.1623
20313SOL     OW62389   4.344   0.222   0.961  0.1520 -0.0982  0.2151
20313SOL    HW162390   4.262   0.231   0.913  0.8879 -0.5631 -1.1835
20313SOL    HW262391   4.321   0.173   1.039 -0.8337 -0.6010 -0.3720
20314SOL     OW62392   7.999   6.953   8.154 -0.1956  0.1710 -0.2586
20314SOL    HW162393   8.071   7.003   8.118 -0.8692  0.2438 -1.5460
20314SOL    HW262394   8.011   6.958   8.249  1.2887  0.4506 -0.4454
20315SOL     OW62395   6.297   0.124   0.143 -0.4301  0.1935  0.2403
20315SOL    HW162396   6.316   0.218   0.151 -0.9741  0.2929  0.4119
20315SOL    HW262397   6.205   0.120   0.115 -0.7511 -0.2987  1.3087
20316SOL     OW62398   4.629   0.639   7.150  0.2253  0.0927 -0.3630
20316SOL    HW162399   4.692   0.568   7.141  2.6236  2.0029  0.4092
20316SOL    HW262400   4.617   0.673   7.062  1.3528  0.5434 -0.3607
20317SOL     OW62401   0.186   0.187   2.920  0.3250 -0.2422 -0.1452
20317SOL    HW162402   0.137   0.117   2.877 -0.1719  1.3554 -2.3664
20317SOL    HW262403   0.124   0.225   2.982 -0.3052 -0.1100 -0.8364
20318SOL     OW62404   5.697   2.732   8.233  0.1895  0.3995 -0.0626
20318SOL    HW162405   5.662   2.666   8.293  0.2065  1.7313  1.4827
20318SOL    HW262406   5.783   2.699   8.209  0.8179  0.5009  1.8551
20319SOL     OW62407   3.015   5.953   6.557  0.1409  0.1854 -0.1837
20319SOL    HW162408   3.047   5.942   6.646 -2.9039 -0.7851  0.9360
20319SOL    HW262409   3.079   5.908   6.502  1.5739 -0.0664  1.6072
20320SOL     OW62410   2.950   3.875   4.705  0.0209  0.1286 -0.7565
20320SOL    HW162411   2.857   3.876   4.682  0.1056 -1.6057 -1.3435
20320SOL    HW262412   2.956   3.931   4.782 -1.3503  0.9832 -1.2248
20321SOL     OW62413   3.270   3.371   2.690 -0.3599 -0.4444 -0.3697
20321SOL    HW162414   3.362   3.383   2.666 -0.9159  1.4105 -1.8717
20321SOL    HW262415   3.237   3.461   2.702 -1.8709 -1.0861  0.5886
20322SOL     OW62416   7.467   8.381   6.205  0.6927 -0.0316 -0.0251
20322SOL    HW162417   7.546   8.348   6.248 -0.0847 -1.6029  0.2716
20322SOL    HW262418   7.498   8.418   6.122  1.7568 -0.4153  0.1853
20323SOL     OW62419   5.368   6.441   7.247 -0.1253  0.2866  0.1430
20323SOL    HW162420   5.452   6.426   7.205 -0.0061  0.7362  0.2101
20323SOL    HW262421   5.319   6.360   7.234  0.6287 -0.3040  0.8392
20324SOL     OW62422   6.007   0.199   8.457  0.5203 -0.3326  0.2519
20324SOL    HW162423   6.093   0.165   8.483  2.9955  3.9421 -1.3567
20324SOL    HW262424   5.968   0.231   8.538  1.3733 -0.4636  0.7274
20325SOL     OW62425   4.958   4.824   7.814  0.1706  0.0698  0.2940
20325SOL    HW162426   4.974   4.733   7.840  1.1370  0.2480  0.3786
20325SOL    HW262427   5.046   4.863   7.808  0.0912  0.0754 -3.1630
20326SOL     OW62428   3.577   1.087   2.723  0.3470 -0.2704 -0.0242
20326SOL    HW162429   3.563   1.137   2.803  0.2835 -1.0229  0.4505
20326SOL    HW262430   3.581   1.152   2.653 -3.5989  0.2167 -0.0081
20327SOL     OW62431   8.688   9.032   5.754 -0.5147  0.6081 -0.3934
20327SOL    HW162432   8.627   8.978   5.704  0.4894  0.0625 -1.0647
20327SOL    HW262433   8.652   9.121   5.747 -1.6783  0.1916 -0.0547
20328SOL     OW62434   5.537   1.628   2.649 -0.4276 -0.0861  0.5261
20328SOL    HW162435   5.499   1.548   2.611  1.9649 -0.7292 -0.6791
20328SOL    HW262436   5.544   1.689   2.575 -1.0798  0.8047  1.1832
20329SOL     OW62437   7.891   3.282   2.801  0.2078  0.3368 -0.1224
20329SOL    HW162438   7.925   3.210   2.747  2.2849  0.2940  1.1186
20329SOL    HW262439   7.798   3.264   2.810  0.2966 -1.0395 -1.5555
20330SOL     OW62440   0.924   5.592   1.785 -0.0541 -0.2154 -0.2849
20330SOL    HW162441   0.886   5.564   1.702 -0.3940  0.9275 -0.5373
20330SOL    HW262442   0.850   5.599   1.845  0.2279 -1.3068  0.2037
20331SOL     OW62443   3.834   0.643   4.612  0.1514 -0.4170  0.3111
20331SOL    HW162444   3.814   0.735   4.630 -1.5906 -0.3371 -1.6455
20331SOL    HW262445   3.770   0.595   4.664 -0.7027 -0.3964 -0.6884
20332SOL     OW62446   7.823   6.861   6.423  0.2091  0.2999  0.5914
20332SOL    HW162447   7.865   6.785   6.464  0.2276 -0.4533 -0.7428
20332SOL    HW262448   7.894   6.903   6.374  0.0795  0.8853  0.8964
20333SOL     OW62449   1.637   2.509   2.012  0.6694 -0.4037  0.5431
20333SOL    HW162450   1.731   2.503   1.992  0.5444 -0.4685 -0.0692
20333SOL    HW262451   1.594   2.484   1.930  0.1131 -1.0029  1.0040
20334SOL     OW62452   3.934   5.963   0.676 -0.4607  0.2611 -0.0180
20334SOL    HW162453   4.001   6.002   0.619  0.8605 -0.9398  0.6187
20334SOL    HW262454   3.851   5.999   0.645  0.1970 -0.2930 -2.6777
20335SOL     OW62455   7.343   1.995   2.913  0.5969  0.2644 -0.3711
20335SOL    HW162456   7.303   1.965   2.994 -1.2204 -2.5146 -2.1291
20335SOL    HW262457   7.310   2.085   2.902 -0.0983  0.2487  1.3325
20336SOL     OW62458   3.780   3.343   2.615 -0.5759  0.1877  0.0544
20336SOL    HW162459   3.757   3.405   2.685 -2.8822  1.4037 -1.6570
20336SOL    HW262460   3.702   3.339   2.560  0.7231 -1.6866 -1.7857
20337SOL     OW62461   1.978   2.909   2.396  0.3466  0.1522  0.1002
20337SOL    HW162462   2.056   2.942   2.351  1.1462 -0.7599  0.8019
20337SOL    HW262463   1.975   2.816   2.374 -0.0984  0.0138  0.7333
20338SOL     OW62464   2.319   0.402   1.251 -0.3466 -0.1486  0.0065
20338SOL    HW162465   2.258   0.475   1.241  0.5457  0.3373 -2.3498
20338SOL    HW262466   2.267   0.333   1.292 -1.9399  0.9073 -0.1667
20339SOL     OW62467   3.553   1.166   0.881  0.2489 -0.1836 -1.0920
20339SOL    HW162468   3.462   1.138   0.895  1.3328 -2.7621  1.9776
20339SOL    HW262469   3.577   1.211   0.962  2.1367 -0.9198 -1.1969
20340SOL     OW62470   5.634   6.494   2.620 -0.1151  0.2060  0.1808
20340SOL    HW162471   5.642   6.406   2.656  1.3450  0.0811 -0.3979
20340SOL    HW262472   5.565   6.535   2.672  0.3505 -0.7151  1.5721
20341SOL     OW62473   7.041   3.774   6.177  0.5879  0.1870  0.6804
20341SOL    HW162474   7.026   3.856   6.129  0.0065  0.8278  1.9122
20341SOL    HW262475   7.019   3.706   6.114  0.6816  0.9781 -0.2439
20342SOL     OW62476   1.409   7.658   8.107  0.0285  0.0743 -0.0329
20342SOL    HW162477   1.381   7.575   8.068 -1.2931  1.3615 -2.0478
20342SOL    HW262478   1.504   7.651   8.112  0.0329 -1.1747 -1.1625
20343SOL     OW62479   7.188   7.107   0.398 -0.0626 -0.1870  0.6001
20343SOL    HW162480   7.157   7.047   0.466 -0.3208 -0.8933 -0.1194
20343SOL    HW262481   7.224   7.049   0.331 -0.6182  0.4486 -0.2588
20344SOL     OW62482   3.283   4.656   2.263 -0.0181 -0.6822  0.3890
20344SOL    HW162483   3.365   4.688   2.226 -0.1153 -0.3988  0.4145
20344SOL    HW262484   3.308   4.580   2.316  0.4740  0.3822  1.7529
20345SOL     OW62485   1.953   4.945   8.783  0.6166  0.0162 -0.3306
20345SOL    HW162486   1.883   4.890   8.819 -0.0984  2.1798  1.8796
20345SOL    HW262487   1.935   4.947   8.689 -2.3164  0.4181  0.1325
20346SOL     OW62488   5.720   2.882   0.182 -0.3169  0.6884  0.5905
20346SOL    HW162489   5.766   2.803   0.152 -0.5415 -0.2666  2.6061
20346SOL    HW262490   5.628   2.857   0.184 -0.5603  1.4685 -0.0219
20347SOL     OW62491   7.788   7.691   5.716 -0.0521  0.1509 -0.2745
20347SOL    HW162492   7.784   7.608   5.668 -1.5802  1.0732 -1.8673
20347SOL    HW262493   7.882   7.712   5.720  0.2512 -0.9557 -1.0767
20348SOL     OW62494   1.413   0.993   8.167 -0.4195 -0.0253 -0.4656
20348SOL    HW162495   1.406   0.902   8.139 -0.5091 -0.5337  1.1336
20348SOL    HW262496   1.504   1.003   8.195 -0.6975  0.0465  0.4372
20349SOL     OW62497   2.903   4.395   2.462  0.0434  0.2270 -0.2498
20349SOL    HW162498   2.906   4.460   2.392  0.6747  1.2709  0.7064
20349SOL    HW262499   2.953   4.434   2.533 -1.4123 -0.3487  1.1684
20350SOL     OW62500   2.264   8.623   3.233  0.1701  0.0805  0.2073
20350SOL    HW162501   2.323   8.698   3.230  0.4352 -0.0775  1.1554
20350SOL    HW262502   2.258   8.601   3.326 -4.1561  2.2953  0.7073
20351SOL     OW62503   7.027   7.351   1.179  0.6609  0.2129  0.3924
20351SOL    HW162504   7.113   7.392   1.187  2.5264 -2.5020 -2.9779
20351SOL    HW262505   7.042   7.259   1.201 -2.3225  0.2544  3.2431
20352SOL     OW62506   4.719   4.424   1.493 -0.2323  0.1239 -0.0002
20352SOL    HW162507   4.736   4.517   1.508  0.8523 -0.0976  0.2036
20352SOL    HW262508   4.753   4.407   1.405  1.7497 -0.5660  0.8263
20353SOL     OW62509   0.379   4.291   3.700  0.1585  0.4542  0.2504
20353SOL    HW162510   0.337   4.211   3.732  1.7562 -0.3667  0.3776
20353SOL    HW262511   0.315   4.360   3.718 -0.4780 -0.5024  1.9095
20354SOL     OW62512   4.216   7.509   5.427  0.7124 -0.0051  0.5763
20354SOL    HW162513   4.227   7.588   5.480  1.1401 -0.1579  0.7182
20354SOL    HW262514   4.287   7.451   5.456  0.6008 -0.3104  0.2388
20355SOL     OW62515   5.502   3.039   5.018 -0.0418  0.4186 -0.7734
20355SOL    HW162516   5.512   3.048   5.113 -0.8843 -1.7592 -0.4425
20355SOL    HW262517   5.586   3.070   4.983  0.9336 -0.3472  0.7836
20356SOL     OW62518   8.500   1.619   9.195  0.4513  0.3486  0.4738
20356SOL    HW162519   8.434   1.659   9.139  1.4267  1.0412 -0.2053
20356SOL    HW262520   8.480   1.525   9.192  0.7361  0.3157 -1.3901
20357SOL     OW62521   5.362   7.184   7.947 -0.1116  0.5295  0.3216
20357SOL    HW162522   5.434   7.142   7.995  0.7714  1.8525  0.2257
20357SOL    HW262523   5.327   7.249   8.009 -0.6027  0.5504  0.0265
20358SOL     OW62524   2.390   5.312   6.445  0.1149  0.2470 -0.6164
20358SOL    HW162525   2.431   5.226   6.433 -0.7551 -0.3137  0.2267
20358SOL    HW262526   2.327   5.319   6.374  0.9504  0.6887 -1.3389
20359SOL     OW62527   0.135   0.947   5.721 -0.6631 -0.1932  0.1520
20359SOL    HW162528   0.077   0.880   5.685 -1.9063  0.2705  1.2177
20359SOL    HW262529   0.199   0.963   5.651 -1.0855 -1.5773 -0.5953
20360SOL     OW62530   6.999   5.736   8.974 -0.2225 -0.0848  0.1153
20360SOL    HW162531   6.940   5.660   8.975 -1.2365  0.6264 -1.5340
20360SOL    HW262532   7.081   5.701   8.938  0.3537 -1.0259  2.1970
20361SOL     OW62533   3.726   6.892   6.663  0.1340 -0.3420  0.6720
20361SOL    HW162534   3.817   6.899   6.692 -0.3691  0.3107  2.1882
20361SOL    HW262535   3.694   6.982   6.662 -1.0557 -0.7070  2.1169
20362SOL     OW62536   8.557   6.043   2.297  0.1433 -0.4326  0.2028
20362SOL    HW162537   8.596   5.977   2.239  1.8837 -0.5869  1.4601
20362SOL    HW262538   8.467   6.052   2.266  0.4622 -1.8908 -1.2977
20363SOL     OW62539   7.349   4.135   5.339 -0.0541  0.1755 -0.2010
20363SOL    HW162540   7.273   4.148   5.396  0.1685  1.3822 -0.1562
20363SOL    HW262541   7.314   4.147   5.251  0.4142  2.6879 -0.1047
20364SOL     OW62542   3.000   7.334   9.020 -0.4315 -0.4631  0.2749
20364SOL    HW162543   3.094   7.332   9.039 -0.0000 -0.2360 -1.6068
20364SOL    HW262544   2.964   7.394   9.084  0.8315 -0.0151  0.6071
20365SOL     OW62545   0.937   7.944   7.259  0.0451  0.0366 -0.0861
20365SOL    HW162546   0.842   7.934   7.247 -0.1506  0.1258  1.2425
20365SOL    HW262547   0.962   7.869   7.314  0.4120  1.0120  1.1039
20366SOL     OW62548   6.382   5.191   7.698 -0.4113  0.2973  0.4092
20366SOL    HW162549   6.345   5.231   7.619  1.0094 -1.7655 -1.4204
20366SOL    HW262550   6.453   5.250   7.724 -0.5474  0.7225 -0.1747
20367SOL     OW62551   1.230   2.640   2.193 -0.5503  0.4628  0.0033
20367SOL    HW162552   1.280   2.594   2.260  0.4392  0.7372 -0.5228
20367SOL    HW262553   1.149   2.589   2.184 -0.4750  0.1390  1.0327
20368SOL     OW62554   5.789   8.663   3.683 -0.2684 -0.3480  0.0859
20368SOL    HW162555   5.881   8.658   3.709 -0.1148  1.0690 -0.1203
20368SOL    HW262556   5.742   8.681   3.764 -0.1835  0.5198 -0.0552
20369SOL     OW62557   7.969   6.111   8.405  0.2312  0.0557  0.1746
20369SOL    HW162558   7.962   6.041   8.470  0.1624 -2.8692 -2.7333
20369SOL    HW262559   8.058   6.103   8.371  0.3636  1.7416  0.0420
20370SOL     OW62560   5.902   4.490   1.142 -0.2676  0.3290 -0.2405
20370SOL    HW162561   5.869   4.556   1.081 -3.2341 -0.9628 -0.1883
20370SOL    HW262562   5.884   4.406   1.100  2.2141 -0.5736  0.2894
20371SOL     OW62563   0.036   5.547   0.071  0.1721  0.3792  0.0553
20371SOL    HW162564   0.031   5.524   0.163 -0.7403  2.1667  0.5053
20371SOL    HW262565   0.129   5.556   0.052  0.4604 -1.7439  0.2982
20372SOL     OW62566   1.201   1.293   6.470 -0.1884  0.1215  0.3842
20372SOL    HW162567   1.140   1.367   6.475  0.3972  0.7020 -0.8176
20372SOL    HW262568   1.198   1.254   6.558 -0.3863  1.6691  1.0966
20373SOL     OW62569   1.902   3.577   3.058 -0.3851  0.0939 -0.4267
20373SOL    HW162570   1.839   3.507   3.074 -0.3414 -0.0865 -1.0358
20373SOL    HW262571   1.851   3.647   3.016 -0.0819 -0.2604 -1.4047
20374SOL     OW62572   7.245   1.660   2.894 -0.4845  0.2440 -0.3702
20374SOL    HW162573   7.223   1.751   2.915  1.0515  0.4561  0.4230
20374SOL    HW262574   7.341   1.656   2.901 -0.6304 -1.9119  1.6327
20375SOL     OW62575   4.203   7.967   7.864  0.6581  0.0037 -0.0343
20375SOL    HW162576   4.159   7.922   7.791 -0.3196  0.6791  0.1153
20375SOL    HW262577   4.296   7.958   7.845  0.4219  0.8318 -1.7970
20376SOL     OW62578   6.304   0.582   8.268 -0.0834  0.2831 -0.7902
20376SOL    HW162579   6.326   0.491   8.248 -0.6884  0.0285 -0.3125
20376SOL    HW262580   6.377   0.632   8.231  1.0428 -0.4961  0.2853
20377SOL     OW62581   4.285   7.624   8.132  0.2133  0.0627 -0.2077
20377SOL    HW162582   4.307   7.583   8.216 -1.3895  1.5137  0.9905
20377SOL    HW262583   4.337   7.705   8.131 -0.7935  0.7274  0.0535
20378SOL     OW62584   9.240   4.729   7.370  0.3340 -0.0047 -0.1006
20378SOL    HW162585   9.152   4.697   7.354 -0.2994  1.0091  1.1123
20378SOL    HW262586   9.297   4.672   7.318 -1.1808  0.8074 -2.8449
20379SOL     OW62587   4.445   8.684   9.243  0.2367  0.0496 -0.3343
20379SOL    HW162588   4.484   8.769   9.225  1.1985 -0.0606  1.0965
20379SOL    HW262589   4.519   8.624   9.249 -0.4368 -0.9746 -1.6061
20380SOL     OW62590   5.906   6.214   1.385 -0.1350  0.2823  0.5222
20380SOL    HW162591   5.991   6.171   1.374 -0.2417  0.4718 -1.4233
20380SOL    HW262592   5.921   6.304   1.358 -1.2983 -0.1039 -1.7148
20381SOL     OW62593   5.772   6.170   4.816  0.1236 -0.0670  0.5525
20381SOL    HW162594   5.832   6.226   4.866  0.2228  1.5181 -1.2197
20381SOL    HW262595   5.726   6.231   4.759 -0.5652 -1.7083 -0.6946
20382SOL     OW62596   3.567   1.018   0.651  0.0198 -0.2408 -0.3772
20382SOL    HW162597   3.590   1.046   0.740  2.5910  1.3567 -1.4501
20382SOL    HW262598   3.473   1.002   0.655  0.0736 -0.4214  2.6667
20383SOL     OW62599   0.725   7.190   6.756 -0.1127 -0.2006  0.6198
20383SOL    HW162600   0.757   7.109   6.796  0.6342  0.1063  0.6599
20383SOL    HW262601   0.696   7.244   6.830  0.7011  0.1218  0.7187
20384SOL     OW62602   2.227   1.522   4.004  0.1625 -0.0515  0.1238
20384SOL    HW162603   2.317   1.529   4.035 -0.2026 -2.1280  1.8997
20384SOL    HW262604   2.188   1.607   4.023  1.5712  0.6925 -0.1847
20385SOL     OW62605   2.234   8.486   2.994 -0.3119  0.7179  0.2896
20385SOL    HW162606   2.277   8.419   3.047 -1.9030  0.0317  0.7657
20385SOL    HW262607   2.240   8.566   3.046 -1.7603  0.0718  1.4919
20386SOL     OW62608   5.392   8.956   5.124 -0.2288 -0.1325  0.2250
20386SOL    HW162609   5.341   8.922   5.051 -0.5082  0.4580  0.1366
20386SOL    HW262610   5.382   8.890   5.193 -1.1000 -0.0334  0.2041
20387SOL     OW62611   7.062   4.438   6.900  0.1762 -0.0724 -0.1982
20387SOL    HW162612   6.984   4.436   6.845  0.0176 -0.1941  0.0316
20387SOL    HW262613   7.032   4.474   6.984  0.4096  0.0797 -0.1797
20388SOL     OW62614   5.466   4.101   2.414 -0.0335 -0.3104  0.2488
20388SOL    HW162615   5.405   4.172   2.431  1.1519  0.3478  2.1741
20388SOL    HW262616   5.535   4.140   2.360  0.4116 -0.0749  0.9694
20389SOL     OW62617   4.809   6.353   4.366 -0.1343  0.3160 -0.1089
20389SOL    HW162618   4.755   6.402   4.304  0.2922  1.4378  0.3750
20389SOL    HW262619   4.899   6.373   4.340  0.1019 -1.5122 -0.8925
20390SOL     OW62620   8.957   2.540   8.562  0.3623  0.4979 -0.2039
20390SOL    HW162621   8.936   2.622   8.607 -0.9242 -0.5198  1.1595
20390SOL    HW262622   9.034   2.560   8.510  0.8229  2.2487  1.0583
20391SOL     OW62623   2.662   9.220   0.713  0.3202  0.0076  0.0471
20391SOL    HW162624   2.700   9.136   0.691 -1.3040 -0.5414 -0.8559
20391SOL    HW262625   2.727   9.263   0.768  0.7175 -2.2852  1.4833
20392SOL     OW62626   4.836   5.072   8.945  0.0991 -0.0053 -0.2406
20392SOL    HW162627   4.803   5.149   8.993 -0.9952 -0.6043  0.0163
20392SOL    HW262628   4.930   5.086   8.940  0.2010  0.3203  1.6999
20393SOL     OW62629   7.606   7.226   8.465 -0.2742  0.0538  0.2131
20393SOL    HW162630   7.670   7.253   8.531 -0.9893  0.6665  0.6772
20393SOL    HW262631   7.656   7.222   8.384  0.0047  2.3038  0.2199
20394SOL     OW62632   5.844   5.948   1.277 -0.1665  0.0041 -0.5923
20394SOL    HW162633   5.895   5.884   1.326  0.5109  0.8775 -0.1190
20394SOL    HW262634   5.831   6.021   1.339 -1.1930  0.1990 -1.0065
20395SOL     OW62635   4.985   8.260   5.076 -0.7063  0.2451 -0.0282
20395SOL    HW162636   5.005   8.204   5.001  0.8479 -0.4279  0.8407
20395SOL    HW262637   4.890   8.276   5.070 -1.4416 -3.2714  0.2055
20396SOL     OW62638   8.954   7.765   3.008 -0.3801 -0.4066 -0.6189
20396SOL    HW162639   9.025   7.702   3.023 -1.1217 -1.0681  0.1952
20396SOL    HW262640   8.877   7.724   3.047 -1.1650  0.4191 -1.2662
20397SOL     OW62641   7.252   0.881   4.654  0.7465 -0.7320 -0.7664
20397SOL    HW162642   7.198   0.955   4.627 -0.3148 -0.5352  1.6850
20397SOL    HW262643   7.192   0.821   4.698  2.3722 -0.7984  1.5232
20398SOL     OW62644   5.066   4.870   3.883  0.0471  0.0388 -0.2353
20398SOL    HW162645   5.045   4.911   3.799  0.7740  0.9247  0.0051
20398SOL    HW262646   5.082   4.778   3.862 -1.8102 -0.2027 -0.7507
20399SOL     OW62647   5.449   8.064   0.739 -0.6965  0.1314 -0.0226
20399SOL    HW162648   5.391   8.115   0.795 -0.5307 -1.4223  1.6384
20399SOL    HW262649   5.536   8.103   0.752 -0.9244  0.8344 -0.5382
20400SOL     OW62650   0.759   6.239   0.549  0.2700 -0.0711 -0.3092
20400SOL    HW162651   0.730   6.255   0.459  2.2030 -1.1235 -1.1804
20400SOL    HW262652   0.720   6.155   0.572 -0.7643  0.5036  0.1227
20401SOL     OW62653   7.022   8.518   5.355  0.0379 -0.7359 -0.7411
20401SOL    HW162654   6.966   8.474   5.292 -2.1301 -1.2995  1.4323
20401SOL    HW262655   7.024   8.460   5.431 -0.4745  1.4889  1.0927
20402SOL     OW62656   2.141   3.613   8.398 -0.3348  0.2742 -0.0997
20402SOL    HW162657   2.061   3.567   8.426 -0.2076  0.3199  0.3438
20402SOL    HW262658   2.129   3.703   8.428 -0.9339  0.7439 -1.6641
20403SOL     OW62659   1.556   0.522   0.388 -0.4241 -0.2721  0.4134
20403SOL    HW162660   1.590   0.586   0.325 -0.0882 -0.9271 -0.0824
20403SOL    HW262661   1.629   0.504   0.447 -0.1754 -1.0036 -0.1054
20404SOL     OW62662   4.656   3.123   8.447  0.1048 -0.1654  0.4690
20404SOL    HW162663   4.567   3.107   8.480 -0.0148 -1.3392 -0.3565
20404SOL    HW262664   4.686   3.037   8.419  0.8319  0.5206 -0.9321
20405SOL     OW62665   4.847   6.938   7.116  0.3918 -0.0488 -0.5549
20405SOL    HW162666   4.762   6.974   7.140  1.4770  1.2826  1.6313
20405SOL    HW262667   4.862   6.868   7.180  0.1596 -1.6454 -2.1420
20406SOL     OW62668   8.276   0.681   8.397  0.1378 -0.1341 -0.7058
20406SOL    HW162669   8.191   0.685   8.353 -0.5077 -0.4787  0.4610
20406SOL    HW262670   8.276   0.757   8.455 -0.1156 -1.0560  0.5467
20407SOL     OW62671   2.943   3.548   0.343 -0.0667 -0.1072  0.1684
20407SOL    HW162672   3.032   3.512   0.337  0.6214  1.6437 -1.3059
20407SOL    HW262673   2.918   3.565   0.252 -1.8122 -0.2702  0.5785
20408SOL     OW62674   1.282   7.970   7.801  0.3730  0.2973 -0.4889
20408SOL    HW162675   1.330   7.994   7.722  0.0120  1.3394 -0.4053
20408SOL    HW262676   1.210   7.915   7.769  1.4662 -1.1087 -0.6304
20409SOL     OW62677   0.454   6.007   7.167 -0.6309  0.1982  0.7811
20409SOL    HW162678   0.545   6.037   7.168 -1.0038  1.4030 -0.1691
20409SOL    HW262679   0.443   5.967   7.080 -0.8657 -0.4584  1.1033
20410SOL     OW62680   0.555   8.202   2.122  0.3391  0.0641 -0.7960
20410SOL    HW162681   0.523   8.114   2.144 -0.2492  0.8101  1.6396
20410SOL    HW262682   0.650   8.192   2.118  0.1845 -1.2284 -3.5157
20411SOL     OW62683   5.427   1.126   2.752 -0.6126  0.1655  0.2334
20411SOL    HW162684   5.505   1.158   2.796 -0.2038 -0.9768  0.3686
20411SOL    HW262685   5.364   1.109   2.822 -0.8884  0.8088  0.1485
20412SOL     OW62686   0.526   8.582   3.792 -0.6988  0.1890  0.5018
20412SOL    HW162687   0.506   8.527   3.715 -1.1508  1.4367 -0.3017
20412SOL    HW262688   0.609   8.548   3.825 -0.6971 -0.6255 -0.3030
20413SOL     OW62689   0.221   6.694   7.984 -0.2325 -0.5933  0.2883
20413SOL    HW162690   0.135   6.685   7.944  0.3716  0.9428 -1.4889
20413SOL    HW262691   0.277   6.635   7.935 -0.0964 -1.0438  0.9651
20414SOL     OW62692   7.137   9.266   4.475  0.1143  0.5157 -0.3030
20414SOL    HW162693   7.155   9.284   4.568  1.2791  0.0963 -0.4242
20414SOL    HW262694   7.203   9.200   4.451 -1.6608 -1.1699 -0.8121
20415SOL     OW62695   9.035   8.184   4.258  0.1118  1.0148 -0.3186
20415SOL    HW162696   9.009   8.167   4.167  0.9550  2.6074 -0.8748
20415SOL    HW262697   9.097   8.256   4.253 -0.7588  1.9790  1.6328
20416SOL     OW62698   7.258   9.062   2.448  0.1180  0.6407 -0.2975
20416SOL    HW162699   7.290   9.107   2.527 -0.8517  0.5340  0.1748
20416SOL    HW262700   7.263   8.969   2.469 -1.1589  0.6350  0.0758
20417SOL     OW62701   8.907   3.020   6.329  0.3643 -0.0061  0.1920
20417SOL    HW162702   8.943   3.088   6.271 -2.2330  0.4098 -1.0420
20417SOL    HW262703   8.814   3.040   6.336 -0.1415 -2.3711  1.3595
20418SOL     OW62704   3.145   8.881   3.250 -0.0107  0.0551 -0.1017
20418SOL    HW162705   3.052   8.858   3.248  0.1429 -0.8984  1.5484
20418SOL    HW262706   3.157   8.939   3.175 -1.4088 -1.7508 -1.8344
20419SOL     OW62707   0.155   0.672   8.077  0.3493  0.7433  0.0433
20419SOL    HW162708   0.145   0.577   8.079 -1.0066  0.8190 -1.4238
20419SOL    HW262709   0.073   0.706   8.111 -0.1578  1.3634 -1.6873
20420SOL     OW62710   2.852   1.510   2.311 -0.4370 -0.4964  0.1462
20420SOL    HW162711   2.837   1.418   2.288 -3.1433 -0.8403  2.6171
20420SOL    HW262712   2.794   1.559   2.254 -0.2652 -0.4819 -0.0159
20421SOL     OW62713   6.650   2.119   6.934 -0.1311  0.1831  0.1190
20421SOL    HW162714   6.613   2.118   6.845  0.0954  0.5853  0.0172
20421SOL    HW262715   6.744   2.134   6.920 -0.0313 -0.1470  0.4107
20422SOL     OW62716   4.746   4.490   4.628 -0.0314  0.7020  0.4141
20422SOL    HW162717   4.763   4.460   4.539 -2.9428  0.0076 -0.0214
20422SOL    HW262718   4.778   4.580   4.629  0.4640  0.5849 -1.1838
20423SOL     OW62719   7.621   1.925   6.324  0.4375 -0.2541  0.3702
20423SOL    HW162720   7.595   1.946   6.234 -1.8628 -1.6715  0.6000
20423SOL    HW262721   7.627   1.829   6.325 -1.2437 -0.3972  2.0738
20424SOL     OW62722   2.364   4.117   8.540 -0.0375 -0.3291  0.7074
20424SOL    HW162723   2.379   4.187   8.478 -0.3778 -0.3194  0.6355
20424SOL    HW262724   2.440   4.059   8.530 -1.1575 -1.5661 -1.3799
20425SOL     OW62725   3.356   0.662   7.589 -0.0313  0.3112 -0.4980
20425SOL    HW162726   3.436   0.622   7.623  0.5813  1.6126 -0.3208
20425SOL    HW262727   3.333   0.610   7.513  0.6325 -0.4711 -0.1766
20426SOL     OW62728   2.002   4.800   9.054 -0.4187  0.1378  0.1108
20426SOL    HW162729   2.051   4.861   9.109  0.6568  0.2866 -0.9569
20426SOL    HW262730   2.016   4.832   8.965  0.8079 -2.0180 -0.5653
20427SOL     OW62731   0.271   6.377   0.892  0.2185  0.3395  0.1339
20427SOL    HW162732   0.200   6.376   0.828 -0.3708 -1.1604  0.7717
20427SOL    HW262733   0.240   6.435   0.962  1.2125  2.6716 -1.2303
20428SOL     OW62734   1.264   0.624   0.777 -0.3746 -0.0501  0.4197
20428SOL    HW162735   1.196   0.574   0.823  1.1552 -1.2407  1.5262
20428SOL    HW262736   1.286   0.569   0.701  1.4405 -1.2698  1.7382
20429SOL     OW62737   1.580   1.017   3.219  0.0596 -0.7765 -0.1304
20429SOL    HW162738   1.495   1.005   3.262  0.2450  0.9181  0.7952
20429SOL    HW262739   1.617   0.929   3.215 -1.6523 -1.5337 -0.4209
20430SOL     OW62740   9.126   8.768   2.921 -0.0162  0.5984 -0.4745
20430SOL    HW162741   9.110   8.847   2.972 -0.2728  0.2472 -0.0134
20430SOL    HW262742   9.199   8.725   2.965 -0.7181 -0.0818  0.0311
20431SOL     OW62743   5.446   3.711   0.048 -0.4584 -0.3648 -0.0303
20431SOL    HW162744   5.530   3.668   0.033 -0.8597 -0.9468 -0.6825
20431SOL    HW262745   5.442   3.779  -0.019 -1.0112 -1.1035 -0.7586
20432SOL     OW62746   4.624   8.227   5.561  0.2238 -0.0210  0.2197
20432SOL    HW162747   4.683   8.174   5.614 -0.0338  0.2074  0.7409
20432SOL    HW262748   4.643   8.201   5.471  1.1017  0.0305  0.3802
20433SOL     OW62749   7.257   8.211   7.408  0.4081 -0.3712 -0.4003
20433SOL    HW162750   7.283   8.275   7.474 -1.9134 -1.2676  1.5270
20433SOL    HW262751   7.187   8.256   7.359  1.4731 -0.0587 -1.6870
20434SOL     OW62752   1.046   5.479   1.397 -0.1932 -0.5289  0.2237
20434SOL    HW162753   1.058   5.396   1.351  0.4297  0.4419 -1.4268
20434SOL    HW262754   0.985   5.458   1.468  0.7844 -2.6295  0.5474
20435SOL     OW62755   9.067   0.343   3.603 -0.2710  0.1704 -0.0076
20435SOL    HW162756   9.016   0.339   3.683 -0.3186 -3.0048 -0.0558
20435SOL    HW262757   9.121   0.422   3.612 -2.9427  1.9658  1.3661
20436SOL     OW62758   6.689   1.264   7.186  0.1363  0.3296 -0.3467
20436SOL    HW162759   6.706   1.278   7.279 -1.2564  0.2185 -0.0561
20436SOL    HW262760   6.594   1.269   7.178  0.2528  0.5827 -1.8109
20437SOL     OW62761   8.693   6.352   1.617  0.0363 -0.3130 -0.3548
20437SOL    HW162762   8.644   6.285   1.569  0.8878 -0.0933 -1.5778
20437SOL    HW262763   8.727   6.410   1.549  1.9096 -0.4040  0.4342
20438SOL     OW62764   8.090   0.983   5.965 -0.1071 -0.3617 -0.0576
20438SOL    HW162765   8.050   1.063   6.000  0.9393 -0.1376  0.6725
20438SOL    HW262766   8.106   0.928   6.042  1.4343 -0.2224 -0.2471
20439SOL     OW62767   4.964   0.203   5.819  0.3272 -0.1617  0.6286
20439SOL    HW162768   4.984   0.109   5.829  0.9514 -0.1359 -0.2981
20439SOL    HW262769   4.875   0.205   5.786  1.1865 -0.5567 -1.8805
20440SOL     OW62770   0.825   1.262   5.379  0.2271 -0.0002 -0.6160
20440SOL    HW162771   0.774   1.230   5.305 -1.1161 -1.0064  0.6829
20440SOL    HW262772   0.779   1.229   5.456 -0.0966  3.3497  0.8129
20441SOL     OW62773   3.391   3.227   7.655 -0.0600  0.5432  0.0604
20441SOL    HW162774   3.351   3.272   7.581 -2.4664  0.0705  0.9899
20441SOL    HW262775   3.354   3.269   7.732  1.8832  0.5797  1.0554
20442SOL     OW62776   4.589   8.975   6.146  0.4447 -0.5779 -0.0265
20442SOL    HW162777   4.662   9.022   6.107  0.7102  0.0896  1.2432
20442SOL    HW262778   4.543   9.040   6.200  0.0302 -1.4384  0.6941
20443SOL     OW62779   8.986   4.587   1.053  0.1204 -0.8451  0.3121
20443SOL    HW162780   8.976   4.606   0.960  0.8368 -1.7818  0.0334
20443SOL    HW262781   8.911   4.631   1.095  1.0311  1.5316 -0.4022
20444SOL     OW62782   0.157   8.197   1.858 -0.7294 -0.4075  0.6373
20444SOL    HW162783   0.157   8.141   1.780 -1.0570 -1.7318  1.5505
20444SOL    HW262784   0.202   8.277   1.831 -3.7131  0.5961 -1.8699
20445SOL     OW62785   1.545   5.100   4.670 -0.0759 -0.1196  0.3215
20445SOL    HW162786   1.450   5.085   4.672 -0.0623 -0.4526 -0.9268
20445SOL    HW262787   1.583   5.013   4.676  0.1463 -0.0172  0.3998
20446SOL     OW62788   1.448   8.351   5.112  0.1299 -0.2378  0.5274
20446SOL    HW162789   1.450   8.349   5.017 -2.2242  3.1584  0.2212
20446SOL    HW262790   1.485   8.437   5.134 -0.8462 -0.2924  2.5744
20447SOL     OW62791   1.543   0.135   1.915 -0.4732 -0.1051 -0.0185
20447SOL    HW162792   1.538   0.209   1.854 -0.2850 -1.2312 -1.4710
20447SOL    HW262793   1.629   0.143   1.955  0.2185 -0.3774 -1.3615
20448SOL     OW62794   5.171   4.807   8.823  0.1588  0.1633 -0.2599
20448SOL    HW162795   5.152   4.892   8.862  0.4806 -0.1135  0.5348
20448SOL    HW262796   5.232   4.766   8.885 -0.0082 -0.6448 -0.6178
20449SOL     OW62797   0.151   1.862   1.735  0.2487 -0.1974 -0.3597
20449SOL    HW162798   0.147   1.798   1.663  2.5295  0.1445 -0.8544
20449SOL    HW262799   0.235   1.846   1.776  0.5190  1.9776  0.0196
20450SOL     OW62800   1.987   4.998   5.569 -0.5790 -0.5691  0.1707
20450SOL    HW162801   2.064   4.958   5.528 -0.2077 -0.7037  0.9745
20450SOL    HW262802   2.013   5.009   5.660 -0.8135  1.1479  0.0519
20451SOL     OW62803   9.043   2.516   4.173 -0.3647  0.0525 -0.1879
20451SOL    HW162804   9.031   2.597   4.222  2.1154  2.0198 -2.5288
20451SOL    HW262805   9.127   2.481   4.204 -0.2515 -0.2937 -0.8504
20452SOL     OW62806   8.618   7.087   6.223 -0.5466 -0.2781 -0.1593
20452SOL    HW162807   8.603   7.057   6.312  2.6339 -1.0529  0.2497
20452SOL    HW262808   8.610   7.183   6.229  1.0595 -0.1841  1.3605
20453SOL     OW62809   0.462   4.349   5.832 -0.1440 -0.1490 -0.4835
20453SOL    HW162810   0.450   4.304   5.916  2.3470  0.7286  0.4454
20453SOL    HW262811   0.394   4.313   5.775 -1.5606 -1.2035  1.7198
20454SOL     OW62812   0.968   2.145   6.856 -0.3027  0.5009  0.6290
20454SOL    HW162813   1.006   2.079   6.798  1.0671  0.5096  1.4779
20454SOL    HW262814   0.921   2.095   6.922 -1.1066  0.4659  0.0485
20455SOL     OW62815   3.740   0.339   2.971  0.9290  0.6983 -0.7749
20455SOL    HW162816   3.799   0.411   2.949 -0.1611  2.3644  1.3159
20455SOL    HW262817   3.695   0.369   3.050 -1.1417 -1.4109 -1.0529
20456SOL     OW62818   1.529   5.227   3.174  0.1826  0.2268 -0.6761
20456SOL    HW162819   1.605   5.228   3.116 -0.3581 -1.0938 -1.4620
20456SOL    HW262820   1.554   5.167   3.245  0.3574  0.8378 -0.2089
20457SOL     OW62821   7.817   3.896   0.057  0.1492 -0.3160 -0.5361
20457SOL    HW162822   7.789   3.813   0.095  0.5375 -0.1940  0.0288
20457SOL    HW262823   7.907   3.880   0.026  1.0868  0.4721  1.5660
20458SOL     OW62824   7.125   4.213   5.535 -0.3685 -0.2017  0.2412
20458SOL    HW162825   7.049   4.266   5.511  0.8569  1.0847 -0.9911
20458SOL    HW262826   7.156   4.251   5.617  1.3889  2.1268 -1.3645
20459SOL     OW62827   7.181   0.042   3.135 -0.6974 -0.0016  0.3109
20459SOL    HW162828   7.104   0.042   3.078 -0.6579 -2.5380  0.1052
20459SOL    HW262829   7.151  -0.001   3.216  0.5634 -1.6021  0.0006
20460SOL     OW62830   4.284   3.632   3.748 -0.4402  0.2430 -0.2053
20460SOL    HW162831   4.339   3.576   3.693  0.1376 -1.3865  1.9237
20460SOL    HW262832   4.195   3.619   3.715 -0.0047  0.1948 -1.4326
20461SOL     OW62833   7.578   2.582   3.639  0.0658 -0.2433 -0.5850
20461SOL    HW162834   7.627   2.529   3.702  1.8876 -0.1876 -1.8704
20461SOL    HW262835   7.489   2.582   3.673  0.7695 -0.9972  1.4629
20462SOL     OW62836   1.084   6.905   7.839 -0.0043 -0.3169  0.5020
20462SOL    HW162837   1.095   6.971   7.907 -0.8147  0.7517 -0.3833
20462SOL    HW262838   1.014   6.938   7.783  0.1643 -1.5057 -0.4627
20463SOL     OW62839   7.701   3.318   4.002 -0.1440 -0.7241 -0.1279
20463SOL    HW162840   7.777   3.367   3.970  0.9103 -3.0648 -1.5192
20463SOL    HW262841   7.721   3.299   4.094  0.7209 -0.8063 -0.3196
20464SOL     OW62842   6.564   4.871   6.171 -0.4552 -0.5754 -0.2750
20464SOL    HW162843   6.627   4.930   6.129 -0.9041 -0.1599 -0.3716
20464SOL    HW262844   6.617   4.798   6.201 -0.2045 -1.2862 -2.2641
20465SOL     OW62845   8.139   3.124   4.231  0.3201  0.6090 -0.9759
20465SOL    HW162846   8.061   3.078   4.264  0.8895  0.4355  0.1989
20465SOL    HW262847   8.145   3.099   4.139 -0.9142  0.4880 -1.0340
20466SOL     OW62848   4.211   5.962   7.715  0.3504 -0.3933 -0.4154
20466SOL    HW162849   4.255   5.922   7.639  0.2554  0.4415 -0.9180
20466SOL    HW262850   4.243   5.912   7.790  2.2966  0.2734 -0.7437
20467SOL     OW62851   5.266   3.126   3.758  0.0693 -0.0940 -0.1042
20467SOL    HW162852   5.180   3.122   3.798 -0.1691 -0.4390 -0.6462
20467SOL    HW262853   5.253   3.094   3.669  0.6012  0.6285 -0.4498
20468SOL     OW62854   9.070   7.886   1.366 -0.7996 -0.3690 -0.2333
20468SOL    HW162855   9.059   7.948   1.438 -1.0116 -1.3698  0.6141
20468SOL    HW262856   9.149   7.837   1.389 -1.5265 -1.4980 -0.0576
20469SOL     OW62857   7.327   3.248   7.692  0.1049  0.0920 -0.0584
20469SOL    HW162858   7.405   3.257   7.747  1.0474  1.5052 -1.5203
20469SOL    HW262859   7.256   3.233   7.754  1.4473 -0.7929  1.3532
20470SOL     OW62860   4.354   1.477   4.681  0.9517  0.7909  0.6302
20470SOL    HW162861   4.387   1.429   4.605 -2.2552  0.2046 -0.5687
20470SOL    HW262862   4.385   1.567   4.668  2.0384  0.2925 -0.3530
20471SOL     OW62863   8.370   7.970   2.040 -0.1946 -0.5072 -0.1459
20471SOL    HW162864   8.449   7.924   2.067  0.2451 -0.1014 -0.7285
20471SOL    HW262865   8.401   8.043   1.987 -0.7550  1.6268  2.2815
20472SOL     OW62866   4.730   2.497   0.512 -0.2779 -0.0960  0.4374
20472SOL    HW162867   4.635   2.507   0.505 -0.3453  0.4053  1.8552
20472SOL    HW262868   4.745   2.403   0.498 -0.8075  0.0483 -1.3140
20473SOL     OW62869   6.909   4.309   8.394  0.5842 -0.3152 -0.0002
20473SOL    HW162870   6.906   4.381   8.331  0.9492 -0.6030 -0.3446
20473SOL    HW262871   6.932   4.352   8.477 -2.5972  0.4952  0.6020
20474SOL     OW62872   1.535   6.179   7.418 -0.5588 -0.0711 -0.3425
20474SOL    HW162873   1.507   6.102   7.468 -0.1055  0.8284  1.3863
20474SOL    HW262874   1.468   6.245   7.436 -0.8841  0.0112 -1.7244
20475SOL     OW62875   1.959   3.025   2.639 -0.1660 -0.3692 -0.5003
20475SOL    HW162876   1.889   3.084   2.612  0.1131  0.4922  0.5643
20475SOL    HW262877   1.964   2.960   2.569 -1.8828 -0.3418 -0.7060
20476SOL     OW62878   4.988   8.445   6.199 -0.2346  0.1936  0.1958
20476SOL    HW162879   4.986   8.458   6.104 -0.2436  0.1536  0.1904
20476SOL    HW262880   4.902   8.408   6.220  0.6489 -2.3167 -0.1656
20477SOL     OW62881   8.885   8.854   7.734  0.3276 -0.4235  0.0129
20477SOL    HW162882   8.953   8.865   7.669  0.7957  0.0697  0.5718
20477SOL    HW262883   8.930   8.861   7.818 -0.3663 -0.3560  0.3919
20478SOL     OW62884   3.401   1.647   0.371  0.4267  0.0272 -0.1015
20478SOL    HW162885   3.338   1.583   0.403  0.8050 -0.8482 -1.0330
20478SOL    HW262886   3.353   1.697   0.305  0.2089  0.5331  0.4352
20479SOL     OW62887   6.181   7.214   1.764  0.4676  0.3620 -0.3404
20479SOL    HW162888   6.147   7.156   1.695 -0.5890 -1.2628  1.4394
20479SOL    HW262889   6.219   7.155   1.829 -0.2289  1.6815  1.3468
20480SOL     OW62890   6.863   0.343   3.011 -0.1986  0.2195 -0.2162
20480SOL    HW162891   6.775   0.306   3.017  0.1032 -0.7625 -1.5106
20480SOL    HW262892   6.896   0.340   3.100 -0.4610 -1.9749 -0.1411
20481SOL     OW62893   5.135   8.666   3.351  0.6488 -0.0375  0.2247
20481SOL    HW162894   5.138   8.678   3.446  0.8184  1.4646  0.0625
20481SOL    HW262895   5.052   8.706   3.325 -0.4924 -2.4004 -0.0625
20482SOL     OW62896   8.558   8.595   1.648 -0.3652 -0.2005  0.5468
20482SOL    HW162897   8.465   8.600   1.672 -0.3429 -0.2331  0.6399
20482SOL    HW262898   8.558   8.565   1.557 -0.5601  2.9449 -0.6137
20483SOL     OW62899   6.470   8.332   4.658 -0.3925  0.5835  0.0024
20483SOL    HW162900   6.464   8.427   4.643 -1.2244  0.4632 -0.4365
20483SOL    HW262901   6.547   8.305   4.607  0.7000  1.2337  1.2388
20484SOL     OW62902   7.081   2.632   2.640  0.0956 -0.3952 -0.1005
20484SOL    HW162903   7.137   2.709   2.641 -1.6703  0.9682  0.5234
20484SOL    HW262904   7.120   2.573   2.706 -1.2776  2.2026  3.3605
20485SOL     OW62905   2.670   2.898   4.144 -0.5421  0.5099  0.3498
20485SOL    HW162906   2.691   2.987   4.115  1.8425  0.4438  1.5819
20485SOL    HW262907   2.694   2.897   4.237  2.5564 -2.1916 -0.2820
20486SOL     OW62908   7.047   5.701   1.650 -0.2889  0.2181  1.0846
20486SOL    HW162909   7.109   5.635   1.682  0.8496 -0.2179 -1.7309
20486SOL    HW262910   6.999   5.656   1.581 -1.8580  1.3996  1.3580
20487SOL     OW62911   4.071   2.194   4.069  0.0290  0.0316  0.0108
20487SOL    HW162912   4.145   2.170   4.124 -0.2252 -0.2381  0.2421
20487SOL    HW262913   4.014   2.246   4.125 -0.7620 -1.1518  0.3567
20488SOL     OW62914   0.183   2.849   5.496  0.0381  0.6123  0.4326
20488SOL    HW162915   0.187   2.927   5.441 -0.5713  0.1078 -0.3543
20488SOL    HW262916   0.099   2.809   5.475  1.1816 -1.3331 -0.7064
20489SOL     OW62917   5.112   4.732   8.465  0.2779 -0.0016 -0.4103
20489SOL    HW162918   5.052   4.777   8.524 -0.3714 -0.7707 -0.4693
20489SOL    HW262919   5.191   4.717   8.517  0.3289  0.7793 -0.2512
20490SOL     OW62920   8.431   8.455   6.228  0.3673 -0.1853  0.2484
20490SOL    HW162921   8.353   8.494   6.191  1.3429 -0.3862 -2.1909
20490SOL    HW262922   8.400   8.374   6.269 -0.9265  0.6618  1.0259
20491SOL     OW62923   1.859   7.756   1.407 -0.0061  0.4300  0.0730
20491SOL    HW162924   1.798   7.827   1.426 -2.6706 -1.5748 -0.3571
20491SOL    HW262925   1.916   7.753   1.483 -0.6499  2.1669  0.6832
20492SOL     OW62926   5.884   9.142   2.860  0.6060 -0.4808  0.6141
20492SOL    HW162927   5.813   9.145   2.795  1.1067  0.5688  0.0840
20492SOL    HW262928   5.839   9.134   2.944 -0.0972 -0.8863  0.2130
20493SOL     OW62929   3.743   6.245   1.306 -0.2522  0.5193  0.4068
20493SOL    HW162930   3.782   6.214   1.224  0.6969  0.0085  1.0310
20493SOL    HW262931   3.666   6.189   1.318 -0.4456  0.6514 -0.1714
20494SOL     OW62932   8.429   7.798   7.435 -0.3939  0.6709  0.1401
20494SOL    HW162933   8.515   7.788   7.394  0.6670  1.0899  2.1348
20494SOL    HW262934   8.408   7.711   7.467 -1.0391  0.4331 -0.8648
20495SOL     OW62935   2.781   6.666   9.146 -0.4311  0.1334  0.2003
20495SOL    HW162936   2.688   6.666   9.167 -1.1223 -3.5268 -1.9209
20495SOL    HW262937   2.808   6.575   9.156  2.8386  0.9775  0.2201
20496SOL     OW62938   7.106   9.252   5.771  0.2114 -0.0942  0.2290
20496SOL    HW162939   7.030   9.210   5.729  1.1308 -1.5609 -0.0293
20496SOL    HW262940   7.118   9.204   5.852  0.4222  0.6295  0.6340
20497SOL     OW62941   0.687   4.299   8.950  0.2500 -0.1049  0.6612
20497SOL    HW162942   0.595   4.272   8.953  0.2603 -0.2569 -0.1517
20497SOL    HW262943   0.708   4.322   9.040 -1.2646  2.1960  0.5101
20498SOL     OW62944   5.163   6.814   3.026 -0.3411 -0.0532  0.0058
20498SOL    HW162945   5.068   6.823   3.021 -0.5725 -1.6241  1.0864
20498SOL    HW262946   5.189   6.789   2.937 -0.6704  2.1625 -0.7775
20499SOL     OW62947   6.806   5.665   3.014 -0.4255  0.4331  0.0334
20499SOL    HW162948   6.779   5.574   3.003  0.4661  0.2719 -1.0955
20499SOL    HW262949   6.725   5.713   3.030 -0.9154 -0.5436  0.5456
20500SOL     OW62950   3.504   3.979   0.736 -0.5401  0.4541  0.0257
20500SOL    HW162951   3.503   4.036   0.813  0.2217 -1.1889  1.3251
20500SOL    HW262952   3.412   3.969   0.712 -0.6755  2.3979 -0.4129
20501SOL     OW62953   4.272   7.682   6.276  0.4717 -0.0934 -0.2276
20501SOL    HW162954   4.294   7.649   6.363 -0.9621  1.8542  0.9577
20501SOL    HW262955   4.191   7.732   6.289  0.9164  1.3293 -2.4371
20502SOL     OW62956   7.102   0.057   2.055 -0.4151  0.1703  0.3710
20502SOL    HW162957   7.121   0.077   2.147 -0.0467 -0.9190  0.5350
20502SOL    HW262958   7.044   0.129   2.027 -0.6507  0.4337  1.4897
20503SOL     OW62959   9.043   8.068   3.635 -0.0509  0.1163  0.0617
20503SOL    HW162960   9.037   8.072   3.730  0.4832  0.9064  0.0681
20503SOL    HW262961   9.068   8.157   3.609 -2.2214  0.5073 -0.9617
20504SOL     OW62962   1.284   2.440   4.072  0.5175  0.1896  0.0375
20504SOL    HW162963   1.282   2.346   4.058 -0.0629  0.4278 -1.8779
20504SOL    HW262964   1.193   2.465   4.087  0.5020  0.5712 -0.6294
20505SOL     OW62965   7.307   6.087   8.999  0.1473 -0.2704 -0.3057
20505SOL    HW162966   7.222   6.053   9.028  0.7383 -1.3637  0.1950
20505SOL    HW262967   7.370   6.048   9.059  1.1876 -0.8678 -1.7295
20506SOL     OW62968   1.049   1.659   0.117 -0.1905 -0.5502  0.8403
20506SOL    HW162969   1.017   1.742   0.080  1.6896 -0.5202 -0.8991
20506SOL    HW262970   1.003   1.591   0.067 -1.5658 -0.6137  2.1167
20507SOL     OW62971   8.253   6.939   6.805 -0.5975  0.0151 -0.4917
20507SOL    HW162972   8.158   6.929   6.809 -0.7047  0.8038 -0.8030
20507SOL    HW262973   8.283   6.920   6.894 -1.0899  0.1497 -0.2937
20508SOL     OW62974   2.313   2.743   6.086 -0.5740 -0.7451 -0.2646
20508SOL    HW162975   2.221   2.718   6.096 -1.3772  1.9927  0.1072
20508SOL    HW262976   2.337   2.781   6.170 -0.3399  1.9930 -1.4635
20509SOL     OW62977   5.381   5.784   4.717 -0.0137  0.6081  0.8366
20509SOL    HW162978   5.430   5.812   4.640 -0.1291  2.3275  1.3397
20509SOL    HW262979   5.297   5.829   4.709 -0.3566  0.1023  1.5231
20510SOL     OW62980   3.305   6.666   0.130 -0.0102 -0.4427 -0.5363
20510SOL    HW162981   3.379   6.684   0.072 -0.2966 -0.0886 -0.7891
20510SOL    HW262982   3.229   6.701   0.085 -0.5721 -2.1059 -0.9662
20511SOL     OW62983   8.682   6.406   2.230  0.1213  0.1757 -0.1255
20511SOL    HW162984   8.612   6.349   2.199  0.0254  0.7963 -1.0766
20511SOL    HW262985   8.748   6.346   2.265 -0.2116 -0.4867 -0.6167
20512SOL     OW62986   8.585   8.472   1.412 -0.1872 -1.0138  0.5400
20512SOL    HW162987   8.534   8.402   1.372  1.0585 -0.4980 -2.2117
20512SOL    HW262988   8.672   8.435   1.425  0.7912  0.2059 -1.9360
20513SOL     OW62989   7.289   2.837   2.670 -0.2731  0.3294 -0.1767
20513SOL    HW162990   7.324   2.926   2.668 -1.1779  0.7088  0.1215
20513SOL    HW262991   7.264   2.823   2.761 -0.7709  0.0359 -0.3495
20514SOL     OW62992   4.195   1.571   4.051 -0.1995 -0.2852  0.0518
20514SOL    HW162993   4.210   1.620   3.970  1.7054  0.1764  0.6383
20514SOL    HW262994   4.188   1.480   4.024 -1.6260  0.0631 -0.8263
20515SOL     OW62995   1.004   0.645   8.002 -0.2094 -0.0475  0.2516
20515SOL    HW162996   0.976   0.719   7.948 -2.3203 -1.0159 -0.0980
20515SOL    HW262997   1.025   0.576   7.939  0.7499 -0.0816  0.5990
20516SOL     OW62998   1.895   1.769   8.472  0.2537 -0.7983 -0.3075
20516SOL    HW162999   1.861   1.832   8.535 -0.9976 -0.5032 -1.2474
20516SOL    HW263000   1.824   1.706   8.459 -0.2491  0.1605 -2.7543
20517SOL     OW63001   6.381   5.234   3.374 -0.0721  0.2712  0.1977
20517SOL    HW163002   6.389   5.139   3.383  2.6831  0.4313  0.3442
20517SOL    HW263003   6.319   5.260   3.442  0.4543 -1.2617  1.3148
20518SOL     OW63004   6.114   7.362   5.441 -0.1527 -0.2515 -0.3678
20518SOL    HW163005   6.027   7.330   5.416  0.1129 -0.7831 -0.6296
20518SOL    HW263006   6.169   7.283   5.442  0.1787 -0.0185  0.4418
20519SOL     OW63007   4.740   1.574   0.648 -0.0564 -0.4554  0.1694
20519SOL    HW163008   4.705   1.646   0.701 -2.6847 -0.4113 -1.4483
20519SOL    HW263009   4.694   1.496   0.679 -0.5378 -0.6631 -1.0096
20520SOL     OW63010   7.889   8.727   8.889  0.4827 -0.0656 -0.4758
20520SOL    HW163011   7.962   8.692   8.837  1.4073  0.6679  0.2768
20520SOL    HW263012   7.870   8.812   8.849  0.6713  0.1505 -0.1175
20521SOL     OW63013   2.815   0.376   4.598  0.0446 -0.2061  0.0622
20521SOL    HW163014   2.838   0.304   4.657 -1.1219 -0.8776 -0.2701
20521SOL    HW263015   2.733   0.412   4.634  0.5613  0.9168  0.1760
20522SOL     OW63016   1.207   5.551   3.381  0.1293 -0.8220 -0.2527
20522SOL    HW163017   1.251   5.515   3.304  0.3414 -0.6262 -0.2234
20522SOL    HW263018   1.252   5.511   3.456  0.4866 -0.3588 -0.2164
20523SOL     OW63019   2.092   8.222   0.101  0.0068  0.1038 -0.2364
20523SOL    HW163020   2.052   8.153   0.049 -1.0259  0.0080  0.6574
20523SOL    HW263021   2.058   8.209   0.190 -1.8601  2.9065 -0.3971
20524SOL     OW63022   3.459   7.353   3.956 -0.3376 -0.0391  0.3913
20524SOL    HW163023   3.490   7.326   3.869  0.2646  0.4866  0.4353
20524SOL    HW263024   3.460   7.273   4.008 -0.5814 -0.3335 -0.0536
20525SOL     OW63025   7.319   4.186   7.844 -0.0775 -0.1010  0.1291
20525SOL    HW163026   7.339   4.188   7.937 -0.0094 -2.0599  0.2138
20525SOL    HW263027   7.237   4.138   7.838 -0.5784  0.8309 -0.7736
20526SOL     OW63028   4.830   7.902   6.914  0.2105 -0.1353  0.3954
20526SOL    HW163029   4.741   7.870   6.899  0.4634 -0.6216 -0.1154
20526SOL    HW263030   4.876   7.884   6.832  0.4473  1.2885  0.1825
20527SOL     OW63031   7.522   3.630   2.443  0.0391  0.1136  0.5913
20527SOL    HW163032   7.599   3.575   2.425 -0.4811 -0.8790  1.3588
20527SOL    HW263033   7.494   3.659   2.356 -1.8277 -3.7889 -0.3163
20528SOL     OW63034   8.580   1.998   5.959 -0.0379  0.1389  1.0194
20528SOL    HW163035   8.632   2.051   6.019 -0.1314  0.5802  0.7114
20528SOL    HW263036   8.623   2.008   5.874  1.2064 -1.9481  1.3181
20529SOL     OW63037   7.009   4.049   6.089  0.0796 -0.0761 -0.1627
20529SOL    HW163038   7.002   4.085   6.001  1.1604  0.4147 -0.0658
20529SOL    HW263039   7.000   4.125   6.147  2.7306  0.2050  0.0373
20530SOL     OW63040   4.218   2.977   8.621  0.3996  0.0486 -0.2428
20530SOL    HW163041   4.221   2.932   8.536 -1.3152 -1.0139  0.2117
20530SOL    HW263042   4.246   2.912   8.684  0.7138  0.5362  0.1275
20531SOL     OW63043   4.980   5.429   7.089 -0.6658 -0.3511  0.4018
20531SOL    HW163044   4.998   5.335   7.091 -1.2416 -0.4946 -0.6387
20531SOL    HW263045   4.937   5.446   7.173  0.9391 -0.6756  1.3395
20532SOL     OW63046   4.596   4.786   9.065  0.3511 -0.2499  0.5920
20532SOL    HW163047   4.686   4.805   9.039  0.6017  0.1435  1.6973
20532SOL    HW263048   4.553   4.872   9.070  0.1042 -0.3781  0.7135
20533SOL     OW63049   6.353   0.412   5.897 -0.2354  0.0005 -0.0229
20533SOL    HW163050   6.397   0.465   5.830  1.1706 -0.7761  0.2575
20533SOL    HW263051   6.331   0.474   5.966  0.0789  0.4678 -0.3392
20534SOL     OW63052   2.190   1.421   4.656  0.8323 -0.2565  0.1722
20534SOL    HW163053   2.276   1.386   4.633  0.6152 -0.2651 -0.6615
20534SOL    HW263054   2.183   1.409   4.751  1.6164 -0.5488  0.1940
20535SOL     OW63055   3.354   7.190   1.772 -0.0461 -0.3078 -0.1096
20535SOL    HW163056   3.347   7.283   1.795 -0.4162 -0.1528 -0.8124
20535SOL    HW263057   3.347   7.189   1.676  3.4965 -0.7041 -0.4958
20536SOL     OW63058   5.002   5.913   0.110  0.0496  0.2513 -0.3097
20536SOL    HW163059   4.980   5.998   0.147 -0.7035  0.0167 -0.1999
20536SOL    HW263060   5.018   5.857   0.186 -0.2119  0.1034 -0.3612
20537SOL     OW63061   5.083   5.189   4.614  0.1170 -0.3259  0.4458
20537SOL    HW163062   5.047   5.265   4.660 -2.1263  0.3003 -2.0980
20537SOL    HW263063   5.095   5.123   4.682 -3.3823  0.3721  1.9616
20538SOL     OW63064   6.884   1.275   1.065 -0.0196 -0.3022 -0.2380
20538SOL    HW163065   6.852   1.307   1.150 -0.1845 -0.9734 -0.0438
20538SOL    HW263066   6.893   1.355   1.012 -2.2462 -0.0829 -0.3872
20539SOL     OW63067   1.844   2.614   0.762 -0.7007 -0.2465  0.3053
20539SOL    HW163068   1.818   2.606   0.854  0.1525  1.6250  0.7711
20539SOL    HW263069   1.774   2.572   0.713 -1.1403 -1.3455  1.8084
20540SOL     OW63070   4.202   3.107   2.249 -0.0765 -0.1761 -0.1711
20540SOL    HW163071   4.145   3.152   2.312  2.2196  0.2713  1.7339
20540SOL    HW263072   4.257   3.177   2.213  0.1048 -0.7599 -1.0457
20541SOL     OW63073   0.060   5.145   6.309  0.3464 -0.1444  0.0181
20541SOL    HW163074  -0.020   5.103   6.278 -1.4013  2.5147  0.4921
20541SOL    HW263075   0.094   5.087   6.377 -1.1700 -1.3658 -0.2242
20542SOL     OW63076   2.695   1.009   7.294 -0.0143  0.6289 -0.2475
20542SOL    HW163077   2.661   1.058   7.369 -0.0480 -0.0347  0.1820
20542SOL    HW263078   2.618   0.996   7.238 -0.5308 -0.9322  0.7589
20543SOL     OW63079   1.306   6.262   7.664 -0.7579 -0.0212 -0.3751
20543SOL    HW163080   1.233   6.204   7.641 -3.3944  2.3403  1.2845
20543SOL    HW263081   1.310   6.325   7.592 -2.5862  1.6836  0.8996
20544SOL     OW63082   6.504   5.163   6.261 -0.5211  0.9398 -0.1453
20544SOL    HW163083   6.592   5.162   6.298 -1.0729  0.0821  1.2291
20544SOL    HW263084   6.504   5.092   6.197 -0.0943  1.2179 -0.4557
20545SOL     OW63085   6.801   1.167   8.429  0.0594 -0.5166  0.2847
20545SOL    HW163086   6.843   1.232   8.373 -0.5714  0.0220  0.4193
20545SOL    HW263087   6.872   1.131   8.482  0.3185  0.5814  0.7175
20546SOL     OW63088   0.012   0.415   1.462  0.2310  0.1212  0.0132
20546SOL    HW163089  -0.079   0.429   1.434  0.3659 -0.9443 -1.0652
20546SOL    HW263090   0.006   0.398   1.556 -0.9690 -1.9423 -0.3508
20547SOL     OW63091   5.492   3.606   4.072  0.3391 -0.0207  0.1668
20547SOL    HW163092   5.397   3.603   4.066  0.4396  0.2686 -3.6419
20547SOL    HW263093   5.518   3.515   4.090 -0.5921 -0.1666  0.8443
20548SOL     OW63094   2.556   8.604   3.662  1.0660 -0.4981  0.1782
20548SOL    HW163095   2.597   8.623   3.577 -0.1798 -0.8496 -0.5310
20548SOL    HW263096   2.538   8.690   3.699  0.9791 -0.3299 -0.2438
20549SOL     OW63097   4.894   1.867   1.200  0.0531 -0.0304 -0.3340
20549SOL    HW163098   4.958   1.897   1.134  0.5719 -0.2219  0.0780
20549SOL    HW263099   4.928   1.900   1.283 -0.0377 -0.6891 -0.0287
20550SOL     OW63100   4.254   5.837   8.731  0.7079 -0.4180 -0.3770
20550SOL    HW163101   4.337   5.796   8.710  2.5931  1.8682  1.9086
20550SOL    HW263102   4.206   5.771   8.781  1.9223 -1.1697 -0.1727
20551SOL     OW63103   3.800   5.431   7.630  0.3085 -0.0087  0.2980
20551SOL    HW163104   3.856   5.447   7.706  0.8908  0.2214 -0.1690
20551SOL    HW263105   3.825   5.499   7.568  0.1108 -0.4340 -0.2536
20552SOL     OW63106   0.103   0.158   8.508  0.3824  0.4607  0.3882
20552SOL    HW163107   0.186   0.109   8.513 -0.3377 -0.7066  1.6442
20552SOL    HW263108   0.130   0.249   8.503  1.7602  0.0538 -0.2111
20553SOL     OW63109   3.540   1.379   0.322 -0.0123  0.3475 -0.4415
20553SOL    HW163110   3.599   1.442   0.362 -1.0335  0.5337  0.8199
20553SOL    HW263111   3.470   1.366   0.386 -0.2932 -1.4126 -1.0302
20554SOL     OW63112   7.424   2.999   2.342 -0.3545  0.0371 -0.1698
20554SOL    HW163113   7.395   2.925   2.396 -1.0845  0.6084  0.2466
20554SOL    HW263114   7.343   3.044   2.319 -0.1952 -0.8062 -2.7126
20555SOL     OW63115   2.695   7.957   6.673  0.0458  0.4713 -0.1035
20555SOL    HW163116   2.777   7.918   6.643  2.1079  4.0788  0.3107
20555SOL    HW263117   2.714   7.989   6.761 -2.1519  0.5670  0.4084
20556SOL     OW63118   7.582   0.834   5.876 -0.0532 -0.4085 -0.0658
20556SOL    HW163119   7.574   0.810   5.783 -0.7008 -1.1864  0.1718
20556SOL    HW263120   7.650   0.900   5.878  0.0194 -0.4303 -1.0948
20557SOL     OW63121   5.487   8.945   2.499 -0.3170 -0.1160 -0.2219
20557SOL    HW163122   5.499   8.854   2.527 -1.8441  0.3165  2.1221
20557SOL    HW263123   5.444   8.939   2.414 -0.6240 -1.5901  0.0160
20558SOL     OW63124   1.715   1.186   6.043 -0.4038  0.4702 -0.1602
20558SOL    HW163125   1.650   1.238   6.090 -0.1490  1.3576 -0.7678
20558SOL    HW263126   1.664   1.119   5.997 -0.7621  0.3751  0.3609
20559SOL     OW63127   5.889   6.926   7.963  0.4817  0.4704 -0.0864
20559SOL    HW163128   5.867   7.016   7.987  0.3637  0.3003  0.4422
20559SOL    HW263129   5.832   6.872   8.016  0.9006  0.0652 -0.0400
20560SOL     OW63130   7.441   0.623   7.415 -0.3065 -0.0210 -0.0976
20560SOL    HW163131   7.516   0.644   7.359 -0.0079 -1.3932 -0.2493
20560SOL    HW263132   7.377   0.692   7.397 -0.1756 -0.3808 -2.0505
20561SOL     OW63133   7.997   9.042   6.426  0.1056 -0.6127 -0.1178
20561SOL    HW163134   8.007   9.026   6.333  2.0532 -0.4859  0.0262
20561SOL    HW263135   8.000   9.137   6.435  0.0022 -0.6265  0.0751
20562SOL     OW63136   2.639   6.041   6.109 -0.1927  0.4598  0.3244
20562SOL    HW163137   2.702   6.109   6.133  0.3062 -0.1253  0.7249
20562SOL    HW263138   2.557   6.069   6.150  0.4517 -0.1052  2.1178
20563SOL     OW63139   2.098   0.731   3.132  0.3925 -0.4376  0.3477
20563SOL    HW163140   2.134   0.772   3.053  1.9732 -0.1656  1.1762
20563SOL    HW263141   2.173   0.692   3.176 -0.6797 -1.8899  0.9915
20564SOL     OW63142   5.822   1.758   5.262  0.5071  0.3540 -0.3608
20564SOL    HW163143   5.878   1.788   5.190  2.9409  1.0352  1.6919
20564SOL    HW263144   5.779   1.838   5.293  0.6110  0.3075 -0.1018
20565SOL     OW63145   0.296   5.724   4.690  0.0574  0.2025  0.5494
20565SOL    HW163146   0.351   5.647   4.703  0.4138  0.1988 -0.7619
20565SOL    HW263147   0.211   5.689   4.662 -0.9775  0.1665  3.4550
20566SOL     OW63148   5.899   8.613   9.103 -0.2284 -0.0739  0.0013
20566SOL    HW163149   5.843   8.546   9.142  0.0757  0.2395  1.0345
20566SOL    HW263150   5.869   8.695   9.143  0.2807  0.2247 -0.2189
20567SOL     OW63151   4.165   4.269   7.541 -0.2337  0.0779  0.9732
20567SOL    HW163152   4.230   4.307   7.481  0.9488 -2.5883  0.3861
20567SOL    HW263153   4.115   4.208   7.486 -0.8519 -0.5241  2.1733
20568SOL     OW63154   7.152   8.286   4.897  0.3166  0.0696 -0.1237
20568SOL    HW163155   7.059   8.283   4.921  0.2898  0.5526 -0.1596
20568SOL    HW263156   7.176   8.195   4.886 -0.4597 -0.0198 -1.2772
20569SOL     OW63157   3.902   7.550   8.706 -1.0639  0.2331  0.6322
20569SOL    HW163158   3.915   7.475   8.764 -1.7863 -0.7235 -0.4042
20569SOL    HW263159   3.989   7.566   8.669 -0.8287  0.1507  1.1362
20570SOL     OW63160   0.372   1.403   6.805  0.6043 -0.0965  0.5437
20570SOL    HW163161   0.412   1.315   6.805  0.5125 -0.1648 -0.6393
20570SOL    HW263162   0.293   1.392   6.751  1.6058  1.1185 -1.2676
20571SOL     OW63163   7.237   6.053   7.921 -0.3373  0.4601  0.2343
20571SOL    HW163164   7.221   6.013   8.006  0.3777  1.0477  0.6653
20571SOL    HW263165   7.226   5.982   7.858 -0.6751 -0.0279  0.8334
20572SOL     OW63166   4.984   2.699   0.906  0.1305 -0.3077  0.3466
20572SOL    HW163167   4.910   2.638   0.911 -2.6911  2.8194  0.2534
20572SOL    HW263168   5.047   2.655   0.850 -1.3746 -3.3726  0.8220
20573SOL     OW63169   5.012   5.574   8.933 -0.2073  0.4269 -0.2561
20573SOL    HW163170   5.041   5.641   8.995  0.0295  1.0600 -1.0369
20573SOL    HW263171   4.990   5.623   8.853  1.8921 -0.5904 -1.5231
20574SOL     OW63172   2.457   8.199   3.930 -0.0438  0.1057  0.2565
20574SOL    HW163173   2.394   8.151   3.877  0.7992  0.3031 -0.9646
20574SOL    HW263174   2.461   8.286   3.890  0.1790  0.4429  1.0035
20575SOL     OW63175   2.984   5.251   8.032  0.1552 -0.1313 -0.0500
20575SOL    HW163176   2.983   5.170   7.981 -0.9024 -0.3340  0.2604
20575SOL    HW263177   2.976   5.321   7.966 -0.0480 -0.3374 -0.2474
20576SOL     OW63178   6.169   7.533   4.348  0.2169  0.0335  0.0518
20576SOL    HW163179   6.087   7.493   4.319  1.0889 -2.1403  0.4604
20576SOL    HW263180   6.196   7.587   4.274  0.1789 -1.9968 -1.5174
20577SOL     OW63181   9.102   4.598   0.093 -0.5061  0.3408  0.2190
20577SOL    HW163182   9.060   4.523   0.051 -1.1640  0.7612  0.1010
20577SOL    HW263183   9.179   4.616   0.039  0.7096 -1.3766  1.3021
20578SOL     OW63184   8.119   3.786   1.922 -0.4950  0.2170 -0.5022
20578SOL    HW163185   8.125   3.882   1.930 -1.0537  0.1628  0.8809
20578SOL    HW263186   8.060   3.771   1.849 -1.4182  0.9568  0.0730
20579SOL     OW63187   0.733   7.300   6.504  0.2773  0.0354  0.0033
20579SOL    HW163188   0.712   7.217   6.463  1.1686 -0.0553 -0.2845
20579SOL    HW263189   0.742   7.280   6.597  4.1926 -1.0040 -0.4474
20580SOL     OW63190   2.736   0.123   8.773  0.4709 -0.7477 -0.1183
20580SOL    HW163191   2.781   0.041   8.752 -0.2493 -0.8391 -1.4711
20580SOL    HW263192   2.650   0.095   8.806  0.8582 -0.5553  1.0810
20581SOL     OW63193   3.787   0.981   8.312 -0.1246  0.6087  0.2332
20581SOL    HW163194   3.807   1.019   8.226  0.0681 -0.5142 -0.2236
20581SOL    HW263195   3.854   1.018   8.370  1.0345 -0.2334 -0.5298
20582SOL     OW63196   1.632   0.722   3.976  0.1381 -0.0876  0.0782
20582SOL    HW163197   1.611   0.810   3.944  0.1472 -0.3101 -0.5705
20582SOL    HW263198   1.645   0.671   3.896  2.8954 -0.0430  0.3949
20583SOL     OW63199   8.409   2.648   1.383 -0.7735  0.5036  0.0647
20583SOL    HW163200   8.415   2.563   1.340 -0.8194  0.7108 -0.3531
20583SOL    HW263201   8.330   2.688   1.346 -0.3340  1.0405 -0.2962
20584SOL     OW63202   6.036   1.948   5.508  0.3958  0.3691  0.3675
20584SOL    HW163203   6.054   1.874   5.449 -1.0573  0.8487 -0.7416
20584SOL    HW263204   6.089   2.020   5.474  3.0011 -0.4785  2.3508
20585SOL     OW63205   4.035   4.090   1.147  0.1284  0.1673  0.5211
20585SOL    HW163206   4.025   4.185   1.143  0.1057  0.1256 -0.7317
20585SOL    HW263207   3.992   4.065   1.229  0.4850  1.2686  1.0693
20586SOL     OW63208   7.002   3.957   2.781 -0.4278  0.1825  0.0430
20586SOL    HW163209   6.915   3.918   2.789 -1.5255  2.6420  1.1073
20586SOL    HW263210   7.032   3.969   2.871  0.1380  1.1056 -0.2500
20587SOL     OW63211   5.852   7.567   4.636  0.0833 -0.0210  0.0653
20587SOL    HW163212   5.833   7.577   4.729  1.3790 -2.2452  0.6578
20587SOL    HW263213   5.778   7.608   4.592 -1.2201 -0.0401  2.0880
20588SOL     OW63214   3.872   5.833   5.052 -0.1760 -0.0664 -0.3203
20588SOL    HW163215   3.876   5.916   5.005 -1.3975 -0.0592 -0.4230
20588SOL    HW263216   3.794   5.790   5.019 -0.4456 -0.5490  0.8983
20589SOL     OW63217   8.726   0.399   2.812 -0.3622  0.1641 -0.2454
20589SOL    HW163218   8.804   0.454   2.805 -1.6632  2.3544  1.3815
20589SOL    HW263219   8.665   0.436   2.749 -0.8115 -0.2457 -0.0542
20590SOL     OW63220   4.629   2.984   1.650  0.1538  0.6712  0.0622
20590SOL    HW163221   4.705   2.936   1.682 -1.8904 -3.1507 -0.2425
20590SOL    HW263222   4.658   3.021   1.567  1.7168 -0.6655 -0.0492
20591SOL     OW63223   1.331   6.338   8.844  0.0010  0.1821  0.3325
20591SOL    HW163224   1.260   6.400   8.860  0.5738  0.8978  0.1815
20591SOL    HW263225   1.342   6.338   8.749  0.4145  0.3180  0.3798
20592SOL     OW63226   1.876   9.265   8.897  0.3029  0.3075  0.3231
20592SOL    HW163227   1.952   9.322   8.884  1.7897 -1.5133  0.6325
20592SOL    HW263228   1.899   9.184   8.852 -1.4047 -0.3658  0.5835
20593SOL     OW63229   5.275   4.790   1.174  0.2692 -0.3964  0.1682
20593SOL    HW163230   5.216   4.764   1.104  0.7249 -0.4658 -0.1951
20593SOL    HW263231   5.248   4.879   1.197 -0.1528 -0.5314  0.1950
20594SOL     OW63232   4.819   0.938   4.004 -0.2783 -0.6069 -0.5709
20594SOL    HW163233   4.816   1.033   4.014 -0.8535 -0.7436  0.7634
20594SOL    HW263234   4.854   0.906   4.087 -0.9268 -1.6132 -0.6650
20595SOL     OW63235   2.992   8.464   4.812  0.4183 -0.4861 -0.4102
20595SOL    HW163236   2.921   8.495   4.756 -0.3409 -1.8704 -0.2590
20595SOL    HW263237   2.992   8.369   4.800  2.6060 -0.4818 -0.8111
20596SOL     OW63238   5.053   4.413   8.488  0.2144 -0.0708 -0.1841
20596SOL    HW163239   4.996   4.402   8.564 -0.4716  0.8852 -0.5347
20596SOL    HW263240   4.999   4.461   8.425  1.2193  0.3434 -0.7512
20597SOL     OW63241   7.609   2.518   6.905  0.1990 -0.1025  0.2895
20597SOL    HW163242   7.656   2.439   6.880  0.5345 -0.1249  0.9500
20597SOL    HW263243   7.652   2.589   6.857 -0.3977 -0.3659 -0.6577
20598SOL     OW63244   7.630   6.518   7.341  0.0206 -0.3853 -0.5634
20598SOL    HW163245   7.632   6.469   7.423  1.0347 -0.6195 -0.7232
20598SOL    HW263246   7.547   6.493   7.301 -0.2073 -0.7270  0.1076
20599SOL     OW63247   5.989   0.456   3.374 -0.4938  0.4282  0.0735
20599SOL    HW163248   5.953   0.523   3.317  0.0261  1.3530  0.8078
20599SOL    HW263249   6.066   0.496   3.413 -0.3211 -0.5011  0.7242
20600SOL     OW63250   2.770   0.090   9.126 -0.0638 -0.0467  0.0086
20600SOL    HW163251   2.736   0.004   9.149  0.0512  0.3370  1.7703
20600SOL    HW263252   2.703   0.129   9.071  0.0456 -1.3743 -1.1381
20601SOL     OW63253   4.847   0.915   7.179  0.7444  0.2213  0.1270
20601SOL    HW163254   4.771   0.859   7.186  1.2174 -0.4568 -0.0276
20601SOL    HW263255   4.831   0.987   7.240 -1.1979  1.5012 -1.7413
20602SOL     OW63256   3.159   7.236   5.424  0.2498  0.5278  0.3083
20602SOL    HW163257   3.072   7.262   5.455  1.0998  1.6768  1.8954
20602SOL    HW263258   3.213   7.234   5.503  2.3298  2.6123 -0.9376
20603SOL     OW63259   0.938   4.410   8.940  0.7818  0.1372  0.4654
20603SOL    HW163260   0.853   4.372   8.921  2.0051 -2.5886 -0.0574
20603SOL    HW263261   0.953   4.473   8.870 -0.3601 -0.1115 -0.0131
20604SOL     OW63262   8.348   8.037   1.524  0.5030  0.1507 -0.0153
20604SOL    HW163263   8.295   8.110   1.555 -0.2051  0.5349 -2.0011
20604SOL    HW263264   8.285   7.976   1.486  1.3540  0.1432 -1.5130
20605SOL     OW63265   2.674   2.710   6.516 -0.2368  0.1162 -0.0984
20605SOL    HW163266   2.629   2.709   6.600 -1.5607  0.6312 -0.7639
20605SOL    HW263267   2.605   2.689   6.452  0.7998 -0.5529 -1.0312
20606SOL     OW63268   0.468   3.522   7.454  0.0864  0.1491 -0.0358
20606SOL    HW163269   0.538   3.504   7.516  0.5677 -1.3318 -0.9621
20606SOL    HW263270   0.508   3.508   7.368 -1.1575 -0.0840 -0.5953
20607SOL     OW63271   8.299   8.658   6.512 -0.3067  0.0000 -0.2972
20607SOL    HW163272   8.378   8.703   6.479 -0.4128 -0.6968 -1.5726
20607SOL    HW263273   8.241   8.729   6.538 -0.2721  0.6336 -1.8157
20608SOL     OW63274   6.175   1.077   6.150  0.1800 -0.4934 -0.0234
20608SOL    HW163275   6.199   1.167   6.127  0.6675 -0.6339 -0.0894
20608SOL    HW263276   6.165   1.079   6.245  1.8434 -0.7212  0.1954
20609SOL     OW63277   6.444   1.231   2.081  0.4360 -0.0310 -0.1160
20609SOL    HW163278   6.492   1.233   1.998  0.2662 -0.5065 -0.2275
20609SOL    HW263279   6.472   1.310   2.126  1.2693 -0.2587 -0.2158
20610SOL     OW63280   8.072   5.049   8.245  0.2203 -0.0139 -0.0212
20610SOL    HW163281   8.075   5.125   8.186 -1.5048  0.3749  0.3145
20610SOL    HW263282   8.110   5.080   8.327  0.2931  0.2333 -0.1474
20611SOL     OW63283   5.707   8.498   6.100  0.3167 -0.5207 -0.8162
20611SOL    HW163284   5.731   8.463   6.014  0.8835 -1.2727 -0.3544
20611SOL    HW263285   5.789   8.534   6.135  0.1630 -0.5298 -0.4456
20612SOL     OW63286   1.633   6.627   5.121 -0.2638 -0.3183 -0.6262
20612SOL    HW163287   1.633   6.571   5.198  0.3269 -0.8609 -1.0114
20612SOL    HW263288   1.544   6.662   5.116 -0.9028 -1.8864 -0.8564
20613SOL     OW63289   5.369   1.102   6.349 -0.4009  0.2656  0.5788
20613SOL    HW163290   5.369   1.065   6.261 -0.3977 -0.0142  0.6943
20613SOL    HW263291   5.404   1.031   6.404 -3.0112 -0.6015  1.2392
20614SOL     OW63292   7.764   7.069   8.250  0.1754 -0.3854 -0.9508
20614SOL    HW163293   7.823   7.022   8.191  1.0576  2.2181 -2.3259
20614SOL    HW263294   7.783   7.162   8.234 -2.7880  0.5446  0.1546
20615SOL     OW63295   1.881   0.684   3.617 -0.1186  0.4226 -0.8022
20615SOL    HW163296   1.813   0.727   3.565 -0.7182 -0.9246 -1.1975
20615SOL    HW263297   1.902   0.605   3.567 -0.4464 -0.7437  0.8247
20616SOL     OW63298   2.566   4.065   0.698 -0.2338 -0.0448  0.2249
20616SOL    HW163299   2.596   4.144   0.653  0.8457 -0.5316  0.0415
20616SOL    HW263300   2.574   4.086   0.791 -0.3153  0.1999  0.1753
20617SOL     OW63301   7.740   5.294   5.627  0.1411  0.0775  0.4584
20617SOL    HW163302   7.733   5.386   5.602  0.1494 -0.2274 -0.7224
20617SOL    HW263303   7.650   5.261   5.623  0.1195  0.0632  1.0084
20618SOL     OW63304   7.043   1.137   4.194  0.0993 -0.1411  0.0911
20618SOL    HW163305   6.998   1.053   4.196  0.2238 -0.2047  0.2419
20618SOL    HW263306   7.088   1.142   4.278  1.8021 -0.8537 -0.7411
20619SOL     OW63307   7.708   2.446   8.527  0.3044 -0.2284 -0.0392
20619SOL    HW163308   7.670   2.518   8.577 -0.1517 -0.8088  0.4695
20619SOL    HW263309   7.633   2.405   8.484  0.5457 -0.4674 -0.2338
20620SOL     OW63310   7.771   0.739   2.474  0.2183 -0.1014 -0.2800
20620SOL    HW163311   7.805   0.816   2.428 -0.8178  0.0895 -0.7429
20620SOL    HW263312   7.676   0.753   2.479  0.3379  0.2845  2.6277
20621SOL     OW63313   7.426   7.581   4.244 -0.5077  0.2325 -0.2246
20621SOL    HW163314   7.438   7.674   4.262  3.8138 -0.1488 -0.2351
20621SOL    HW263315   7.417   7.576   4.148 -1.0215  0.6214 -0.2014
20622SOL     OW63316   3.834   4.739   5.171  0.1356 -0.5135 -0.1710
20622SOL    HW163317   3.831   4.829   5.205 -3.2569 -0.9192  0.9761
20622SOL    HW263318   3.822   4.749   5.077  1.1516  0.2729 -0.2322
20623SOL     OW63319   7.594   1.357   3.810 -0.2492 -0.1405 -0.1248
20623SOL    HW163320   7.503   1.336   3.831 -0.1327  1.9459  3.0412
20623SOL    HW263321   7.644   1.285   3.849 -0.4199  0.3131  0.9732
20624SOL     OW63322   1.292   2.886   9.016  0.2060 -0.2970 -0.0191
20624SOL    HW163323   1.353   2.921   9.081  0.2952  0.7208 -0.6390
20624SOL    HW263324   1.291   2.951   8.946 -0.0482 -1.2813 -0.9529
20625SOL     OW63325   2.402   1.662   7.824  0.1713  0.2314  0.6886
20625SOL    HW163326   2.327   1.720   7.813 -1.4713 -1.7367  0.9760
20625SOL    HW263327   2.446   1.693   7.903 -0.6993  1.0248  0.8664
20626SOL     OW63328   5.339   0.474   8.306  0.7175 -0.0711 -0.7207
20626SOL    HW163329   5.305   0.492   8.218 -0.3803 -0.5916 -0.4057
20626SOL    HW263330   5.302   0.389   8.330  0.2199  0.5055  0.6436
20627SOL     OW63331   2.400   1.185   5.577 -1.3793  0.6308 -0.2264
20627SOL    HW163332   2.316   1.182   5.623 -0.7715  1.0277  0.9412
20627SOL    HW263333   2.454   1.244   5.629 -0.0316 -0.4046 -0.3850
20628SOL     OW63334   1.921   2.615   6.529 -0.4520  0.1411 -0.5492
20628SOL    HW163335   1.839   2.639   6.572  1.1211  1.6750  1.7950
20628SOL    HW263336   1.921   2.665   6.448 -0.8226  1.9865  0.5345
20629SOL     OW63337   4.102   6.111   4.157 -0.3088  0.0858  0.1380
20629SOL    HW163338   4.112   6.072   4.070 -0.5058 -2.9677  1.3572
20629SOL    HW263339   4.141   6.198   4.149  3.1880 -1.4583 -2.0593
20630SOL     OW63340   7.765   7.101   6.679 -0.4424  0.0038 -0.0544
20630SOL    HW163341   7.728   7.139   6.759 -0.1115  1.3590 -0.5223
20630SOL    HW263342   7.755   7.007   6.691 -0.5133  0.1800  1.5286
20631SOL     OW63343   4.078   4.830   0.888  0.2044  0.3993 -0.0380
20631SOL    HW163344   4.137   4.762   0.856 -2.7283 -1.7636 -1.2168
20631SOL    HW263345   4.095   4.905   0.831  1.6433 -0.2117 -0.4457
20632SOL     OW63346   6.842   8.360   1.714 -0.2945  0.1667 -0.1133
20632SOL    HW163347   6.864   8.281   1.763  2.3025  0.3047 -0.8933
20632SOL    HW263348   6.785   8.409   1.772 -0.6228 -1.5265  1.0626
20633SOL     OW63349   0.497   5.421   8.267 -0.3253  0.6925  0.5411
20633SOL    HW163350   0.492   5.345   8.326  1.4276  0.8778  0.9810
20633SOL    HW263351   0.409   5.458   8.268 -0.9260 -0.6883  1.2000
20634SOL     OW63352   0.072   1.893   6.897 -0.4589  0.9797 -0.0972
20634SOL    HW163353   0.063   1.977   6.942 -1.5505  0.7286  0.1819
20634SOL    HW263354   0.164   1.868   6.911 -0.6021  1.2226  1.4644
20635SOL     OW63355   1.238   8.856   7.339 -0.2087  0.9514 -0.3130
20635SOL    HW163356   1.233   8.945   7.303  1.0866  2.0532  2.0557
20635SOL    HW263357   1.239   8.868   7.434  2.3041 -1.4272  0.0804
20636SOL     OW63358   7.450   2.490   6.083  0.0257 -0.5549 -0.4082
20636SOL    HW163359   7.514   2.418   6.088 -0.2652 -0.7554  1.1091
20636SOL    HW263360   7.381   2.464   6.144  0.4231  1.4751  1.0220
20637SOL     OW63361   5.428   0.300   0.192  0.1960  0.0749 -0.1506
20637SOL    HW163362   5.423   0.284   0.286 -0.6172 -1.4156 -0.4164
20637SOL    HW263363   5.522   0.297   0.172  0.4196  1.0131  0.6896
20638SOL     OW63364   3.751   8.578   8.384  0.1329  0.0814 -0.2950
20638SOL    HW163365   3.842   8.596   8.410 -0.0977  0.2986  0.3801
20638SOL    HW263366   3.758   8.509   8.318  0.6350 -2.2552  2.0081
20639SOL     OW63367   0.303   7.603   1.902  0.1399  0.1446 -0.4658
20639SOL    HW163368   0.269   7.574   1.817  0.7421  0.9318 -0.9889
20639SOL    HW263369   0.359   7.678   1.881 -2.1427  2.3955  0.8942
20640SOL     OW63370   3.456   7.197   7.899 -0.1014 -0.4641  0.1845
20640SOL    HW163371   3.478   7.126   7.959  0.1180  0.1843  0.8954
20640SOL    HW263372   3.534   7.209   7.846  0.7865  0.8208  1.6843
20641SOL     OW63373   5.722   7.059   0.842 -0.6095  0.4767  0.3639
20641SOL    HW163374   5.709   6.965   0.840 -0.7035  0.4966 -0.9023
20641SOL    HW263375   5.634   7.096   0.849 -0.5835  0.4696  0.7190
20642SOL     OW63376   7.913   7.916   8.608 -0.9291 -0.1120  0.4349
20642SOL    HW163377   7.978   7.957   8.665 -1.0714 -1.6156  1.7402
20642SOL    HW263378   7.848   7.985   8.592  0.8318  1.3725 -0.7607
20643SOL     OW63379   5.940   3.729   8.828  0.0419  0.0626  0.1824
20643SOL    HW163380   5.888   3.681   8.893 -0.3498  0.2054 -0.0207
20643SOL    HW263381   5.878   3.790   8.789  0.5939  0.9121  0.6133
20644SOL     OW63382   3.660   6.114   3.864  0.2568  0.5166 -0.0109
20644SOL    HW163383   3.587   6.141   3.807 -1.7396 -0.3932  1.9704
20644SOL    HW263384   3.681   6.192   3.915 -0.0402  0.5141  0.1190
20645SOL     OW63385   0.048   4.477   6.538  0.2832  0.1012  0.0221
20645SOL    HW163386   0.069   4.520   6.620  0.5493 -2.2274  1.2486
20645SOL    HW263387   0.131   4.472   6.491  0.2421  0.8943 -0.1532
20646SOL     OW63388   8.278   7.115   5.439 -0.3783 -0.3018  0.5457
20646SOL    HW163389   8.319   7.172   5.374 -0.8758 -1.0861 -0.4942
20646SOL    HW263390   8.307   7.027   5.415  0.1114 -0.5369  1.9184
20647SOL     OW63391   1.633   1.341   8.840 -0.0251 -0.1981  0.3459
20647SOL    HW163392   1.590   1.304   8.763  0.7477 -1.3477  0.4369
20647SOL    HW263393   1.724   1.350   8.815  0.2019 -0.4117  1.0471
20648SOL     OW63394   8.901   7.858   2.259  0.0557 -0.6594  0.2810
20648SOL    HW163395   8.875   7.816   2.177  1.2768  0.6641 -0.8288
20648SOL    HW263396   8.943   7.939   2.232  1.1698 -0.5518  2.1849
20649SOL     OW63397   4.815   7.409   4.176  0.1331  0.1939  0.0439
20649SOL    HW163398   4.726   7.419   4.210 -0.4786  1.4417 -1.7864
20649SOL    HW263399   4.803   7.366   4.091  1.1770  1.1491 -0.6093
20650SOL     OW63400   8.171   5.102   7.431  0.2079 -0.7028  0.5974
20650SOL    HW163401   8.095   5.130   7.481 -0.3436 -1.1076 -0.0060
20650SOL    HW263402   8.246   5.130   7.484 -0.3554 -0.4210  1.2580
20651SOL     OW63403   7.533   3.324   5.107  0.4857 -0.6701  0.0783
20651SOL    HW163404   7.480   3.289   5.035 -2.0821  3.1481 -0.1921
20651SOL    HW263405   7.585   3.393   5.066  1.8036 -0.8946  1.3029
20652SOL     OW63406   2.532   7.246   5.656 -0.3386  0.8159  0.2896
20652SOL    HW163407   2.479   7.196   5.719 -1.9180  2.3262  0.2319
20652SOL    HW263408   2.473   7.263   5.584  0.9980  0.4819 -0.9326
20653SOL     OW63409   6.860   7.594   7.487 -0.0884  0.3555  0.1107
20653SOL    HW163410   6.917   7.653   7.439  0.5246 -0.2696  0.0509
20653SOL    HW263411   6.791   7.571   7.425 -0.6434  1.4317  0.3152
20654SOL     OW63412   4.253   6.542   5.730  0.3614  0.3306  0.2625
20654SOL    HW163413   4.236   6.526   5.823  0.3979  1.3171  0.4457
20654SOL    HW263414   4.177   6.592   5.700  1.7649  2.7670  0.5352
20655SOL     OW63415   6.507   8.069   5.830  0.5744  0.5274 -0.6589
20655SOL    HW163416   6.449   8.007   5.874 -0.4914  1.2893 -0.9550
20655SOL    HW263417   6.481   8.064   5.738  1.2990  0.5422 -0.8667
20656SOL     OW63418   7.303   2.384   7.149 -0.6631  0.2580 -0.0280
20656SOL    HW163419   7.375   2.324   7.130 -0.1480  0.7760  0.2621
20656SOL    HW263420   7.323   2.419   7.236 -0.6837  1.2234 -0.3985
20657SOL     OW63421   8.126   1.006   1.379 -1.0247  0.0740 -0.1970
20657SOL    HW163422   8.158   1.096   1.382 -2.5348  0.6941 -1.5684
20657SOL    HW263423   8.136   0.980   1.287  0.3483 -1.5620  0.3580
20658SOL     OW63424   7.300   3.383   3.195 -0.4737 -0.1724 -0.3546
20658SOL    HW163425   7.354   3.304   3.191  1.3492  1.0606 -1.8164
20658SOL    HW263426   7.328   3.426   3.277  0.5130  0.2479 -0.8903
20659SOL     OW63427   4.440   8.320   1.961  0.6383 -0.2195  0.1023
20659SOL    HW163428   4.430   8.397   1.906  1.5691  0.2630  0.5852
20659SOL    HW263429   4.469   8.251   1.900 -0.3534 -0.2479 -0.3539
20660SOL     OW63430   5.185   0.082   7.639  0.1115 -0.1502  0.1174
20660SOL    HW163431   5.272   0.048   7.660 -0.0786  0.3269  1.8247
20660SOL    HW263432   5.202   0.167   7.597  0.4816 -0.8556 -1.2336
20661SOL     OW63433   7.533   8.935   3.653 -0.1752  0.8812  0.2126
20661SOL    HW163434   7.588   8.928   3.731  0.0532  0.6404  0.0322
20661SOL    HW263435   7.551   9.022   3.618 -0.5222  1.1173  0.6071
20662SOL     OW63436   8.845   5.704   5.859  0.4497  0.0569  0.2055
20662SOL    HW163437   8.931   5.661   5.866  0.4393 -0.1377 -0.7505
20662SOL    HW263438   8.787   5.635   5.827  0.1678  0.4642 -0.1657
20663SOL     OW63439   3.613   4.617   0.844  0.1153 -0.0615  0.0250
20663SOL    HW163440   3.635   4.664   0.925  0.1120 -1.2477  0.7219
20663SOL    HW263441   3.569   4.538   0.872 -3.3951  1.2280 -1.2669
20664SOL     OW63442   3.440   1.185   6.292  0.2969  0.2186 -0.4849
20664SOL    HW163443   3.455   1.271   6.332  1.3951 -0.0272 -0.3214
20664SOL    HW263444   3.498   1.126   6.341 -0.4510 -0.6213 -0.5867
20665SOL     OW63445   5.317   6.689   6.497 -0.1746  0.5979 -0.5562
20665SOL    HW163446   5.252   6.666   6.563 -1.1616  1.1808 -1.2951
20665SOL    HW263447   5.324   6.611   6.441 -1.0830  0.9197 -1.1332
20666SOL     OW63448   4.011   1.185   1.913 -0.3586  0.1520  0.3539
20666SOL    HW163449   4.078   1.123   1.885 -1.4192 -0.5658 -0.6822
20666SOL    HW263450   4.060   1.260   1.945  0.9864 -1.3882  2.1559
20667SOL     OW63451   8.694   1.140   1.852 -0.1068 -0.3342  0.4053
20667SOL    HW163452   8.656   1.199   1.917  1.7043 -0.5434  1.7306
20667SOL    HW263453   8.717   1.197   1.779  2.2067  0.8501  1.9158
20668SOL     OW63454   6.024   3.634   5.844 -0.4895 -0.5421 -0.1337
20668SOL    HW163455   5.955   3.584   5.888 -0.3916 -0.6164 -0.0622
20668SOL    HW263456   5.991   3.724   5.841 -0.2360 -0.4172  0.6462
20669SOL     OW63457   0.870   2.293   5.541 -0.4852 -0.1606  0.2605
20669SOL    HW163458   0.823   2.342   5.608 -0.9217  1.3710 -1.1219
20669SOL    HW263459   0.851   2.201   5.562  0.2333  0.1722  2.8073
20670SOL     OW63460   6.441   6.090   6.947  0.1232 -0.4848 -0.2838
20670SOL    HW163461   6.392   6.169   6.968  1.4473 -0.0727  1.4050
20670SOL    HW263462   6.442   6.088   6.851  1.1003  2.2216 -0.4068
20671SOL     OW63463   3.908   8.316   0.885 -0.4970  0.0846 -0.1320
20671SOL    HW163464   3.833   8.371   0.907 -1.4064 -1.2722  0.2884
20671SOL    HW263465   3.928   8.269   0.967  0.6023  0.1868 -0.3270
20672SOL     OW63466   2.422   3.246   2.536 -0.5314  0.5633 -0.7386
20672SOL    HW163467   2.496   3.191   2.561 -0.7524  0.6537  0.1332
20672SOL    HW263468   2.353   3.223   2.597 -0.4012  2.3296  0.1342
20673SOL     OW63469   8.242   4.604   0.390 -0.0955 -0.2591 -0.0823
20673SOL    HW163470   8.197   4.685   0.363 -1.6610 -1.0257  0.0707
20673SOL    HW263471   8.334   4.628   0.394 -0.3858  1.2273 -1.1361
20674SOL     OW63472   2.596   5.813   2.767 -0.4998 -0.2884  0.1236
20674SOL    HW163473   2.668   5.875   2.769 -1.5544  1.1258 -1.8473
20674SOL    HW263474   2.598   5.777   2.678 -2.9895  0.8468 -0.4795
20675SOL     OW63475   3.028   9.040   7.166  0.1517  0.1693  0.3554
20675SOL    HW163476   2.971   9.072   7.236  0.1329  1.4117 -0.2142
20675SOL    HW263477   2.971   9.040   7.089  1.0581  2.0312 -0.3591
20676SOL     OW63478   7.917   1.942   2.092 -0.4000  0.1671 -0.1863
20676SOL    HW163479   7.851   1.978   2.032  0.2822  0.9303 -0.4897
20676SOL    HW263480   7.964   1.877   2.039 -0.8572 -0.3316  0.0115
20677SOL     OW63481   8.339   4.285   3.887 -0.1112  0.1282  0.0925
20677SOL    HW163482   8.278   4.358   3.877  0.7772  0.9976  0.8866
20677SOL    HW263483   8.288   4.217   3.932 -1.0138  0.1440 -0.8658
20678SOL     OW63484   7.077   0.671   4.082 -0.1695 -0.0833  0.1820
20678SOL    HW163485   7.054   0.661   4.175 -1.2385 -0.9825 -0.1568
20678SOL    HW263486   7.041   0.593   4.040 -0.6393  0.8222 -1.1609
20679SOL     OW63487   1.998   6.268   0.860  0.0972  0.2773 -0.4494
20679SOL    HW163488   1.917   6.222   0.837 -0.3154  0.7589  0.0223
20679SOL    HW263489   1.994   6.349   0.810 -1.2096  1.7258  1.8206
20680SOL     OW63490   1.504   6.558   7.309 -0.2066  0.1082  0.6020
20680SOL    HW163491   1.550   6.522   7.233  2.6465 -0.4220  2.4114
20680SOL    HW263492   1.505   6.653   7.294  0.3504  0.0191 -0.0001
20681SOL     OW63493   2.427   4.731   3.455  0.2476  0.1350 -0.0038
20681SOL    HW163494   2.427   4.687   3.540 -1.3533  1.5866  0.7946
20681SOL    HW263495   2.365   4.682   3.402 -2.0321  1.7015  1.0920
20682SOL     OW63496   7.286   5.193   4.169 -0.3120 -0.1221  0.6332
20682SOL    HW163497   7.206   5.205   4.220  0.1674 -0.7184  1.5669
20682SOL    HW263498   7.304   5.279   4.131 -1.8922 -0.2055 -0.3595
20683SOL     OW63499   3.967   2.926   4.847  0.2568 -0.7809  0.0356
20683SOL    HW163500   4.003   2.920   4.759  0.0839 -1.4205  0.0063
20683SOL    HW263501   4.039   2.963   4.900  0.1265  0.2657 -0.5014
20684SOL     OW63502   3.306   1.458   0.757 -0.2327 -0.1011  0.6625
20684SOL    HW163503   3.323   1.445   0.850 -0.2410  1.1468  0.8620
20684SOL    HW263504   3.352   1.387   0.714  0.3498 -0.3028  1.5807
20685SOL     OW63505   0.112   0.814   7.775 -0.4541  0.9220  0.0840
20685SOL    HW163506   0.199   0.845   7.798  0.2335 -1.0386  0.2923
20685SOL    HW263507   0.054   0.887   7.795  1.1850  2.4427 -0.5311
20686SOL     OW63508   7.359   9.123   1.901 -0.3908  0.1776  0.0029
20686SOL    HW163509   7.292   9.084   1.844 -0.5047  0.8848 -0.3616
20686SOL    HW263510   7.318   9.124   1.988  0.1355 -1.7735  0.3211
20687SOL     OW63511   8.182   8.200   5.447  0.0512  0.0079 -0.0962
20687SOL    HW163512   8.108   8.215   5.506  0.5211  1.4821  0.1601
20687SOL    HW263513   8.200   8.286   5.409  0.3416 -0.7340 -1.7079
20688SOL     OW63514   4.761   2.626   8.684 -0.2941 -0.1066  0.3675
20688SOL    HW163515   4.706   2.704   8.669  1.9975  1.4198 -0.6223
20688SOL    HW263516   4.746   2.572   8.607 -0.2313  0.4188 -0.0211
20689SOL     OW63517   2.208   0.375   9.010 -0.2867 -1.3355  0.1302
20689SOL    HW163518   2.169   0.460   9.032 -1.4705 -1.4298 -1.4827
20689SOL    HW263519   2.292   0.376   9.055 -0.3943  0.5754  0.3875
20690SOL     OW63520   6.570   5.958   8.698 -0.1713  0.1578  0.2638
20690SOL    HW163521   6.591   5.940   8.790 -0.4514 -1.1556  0.0921
20690SOL    HW263522   6.474   5.959   8.695 -0.1721  1.2865  0.1649
20691SOL     OW63523   0.273   7.680   0.653 -0.1721  0.7294  0.0139
20691SOL    HW163524   0.270   7.760   0.600 -2.8457  0.4679 -0.4022
20691SOL    HW263525   0.247   7.610   0.592 -1.8784  0.2004  1.2445
20692SOL     OW63526   7.729   0.907   8.763 -0.3478 -0.2909 -0.6163
20692SOL    HW163527   7.782   0.902   8.683  1.8002 -0.5361  0.7134
20692SOL    HW263528   7.783   0.957   8.824 -0.3293 -2.9048  1.7365
20693SOL     OW63529   2.367   3.362   8.650 -0.2092 -0.1661  0.1735
20693SOL    HW163530   2.381   3.417   8.727  2.0323 -0.8876  0.3561
20693SOL    HW263531   2.318   3.287   8.682 -0.3767  0.1384  0.6294
20694SOL     OW63532   7.849   4.890   2.243  0.4459  0.0823  0.0370
20694SOL    HW163533   7.796   4.815   2.270  1.4799 -1.0395 -0.9377
20694SOL    HW263534   7.909   4.905   2.316  2.7757 -2.4975 -1.1985
20695SOL     OW63535   1.083   8.245   5.048  0.7354  0.2825 -0.0033
20695SOL    HW163536   1.158   8.188   5.064  1.4942  1.1532 -0.3556
20695SOL    HW263537   1.023   8.193   4.994  2.0098  0.2624 -1.4469
20696SOL     OW63538   3.413   6.084   5.629  0.6315 -0.2266  0.1983
20696SOL    HW163539   3.382   6.137   5.556 -0.3967  0.7614  1.2904
20696SOL    HW263540   3.451   6.006   5.589 -1.7417 -0.7054 -1.3620
20697SOL     OW63541   2.605   2.968   8.081 -0.0253  0.4298 -0.1093
20697SOL    HW163542   2.683   2.926   8.117 -0.0146  0.6200  0.0920
20697SOL    HW263543   2.627   2.986   7.989 -0.1944 -0.4068 -0.3220
20698SOL     OW63544   5.153   7.885   0.597  0.3579  0.0167  0.4353
20698SOL    HW163545   5.113   7.804   0.565 -1.1136  0.1033  1.9159
20698SOL    HW263546   5.246   7.864   0.608 -0.0405 -1.5500  1.0259
20699SOL     OW63547   1.120   3.050   4.538 -0.1587 -0.0343  0.4747
20699SOL    HW163548   1.053   2.982   4.539  1.9935 -2.2930  0.8920
20699SOL    HW263549   1.105   3.100   4.617 -1.5499 -0.2599  0.3782
20700SOL     OW63550   1.407   5.319   6.964  0.9555  0.1865  0.6888
20700SOL    HW163551   1.356   5.305   7.043 -0.4162 -3.1717 -0.5956
20700SOL    HW263552   1.365   5.393   6.920  0.0032  0.3130  1.7795
20701SOL     OW63553   7.020   6.168   2.489 -0.1118  0.5186 -0.4787
20701SOL    HW163554   7.033   6.263   2.486 -2.0621  0.8252 -2.1941
20701SOL    HW263555   7.010   6.143   2.397  1.8208 -1.6365 -0.1814
20702SOL     OW63556   7.636   7.994   8.295  0.4579  0.0900 -0.6026
20702SOL    HW163557   7.544   7.971   8.286  0.4786 -0.0791 -0.3897
20702SOL    HW263558   7.649   8.006   8.390  0.4854  0.8111 -0.6872
20703SOL     OW63559   0.834   7.559   1.674 -0.4374 -0.0787  0.4985
20703SOL    HW163560   0.748   7.592   1.650 -0.8936  0.2680  2.4388
20703SOL    HW263561   0.893   7.593   1.607 -1.3146  2.4899  0.9196
20704SOL     OW63562   5.588   1.804   2.099  0.5176  0.1755  0.2236
20704SOL    HW163563   5.589   1.853   2.017  1.8525 -0.0502  0.0860
20704SOL    HW263564   5.667   1.749   2.095  1.3057  1.0828  2.2072
20705SOL     OW63565   6.191   4.852   2.679 -0.2726  0.1255  0.0200
20705SOL    HW163566   6.119   4.877   2.620 -0.5585  0.4873  0.5150
20705SOL    HW263567   6.166   4.766   2.712 -0.1324 -0.0600 -0.3499
20706SOL     OW63568   4.091   5.518   3.030  0.1843 -0.0786 -0.0611
20706SOL    HW163569   4.100   5.424   3.046 -1.7685 -0.2120  0.5009
20706SOL    HW263570   4.178   5.554   3.049  0.6538 -1.6175  0.8773
20707SOL     OW63571   5.292   0.015   8.402 -0.1653  0.6194 -0.3216
20707SOL    HW163572   5.229  -0.056   8.416 -0.5218  1.2053  1.2963
20707SOL    HW263573   5.295   0.025   8.307 -4.9121  2.5965 -0.5785
20708SOL     OW63574   6.744   5.287   0.148  0.0489 -0.5644 -0.3813
20708SOL    HW163575   6.732   5.266   0.240  0.3319  0.9777  0.0458
20708SOL    HW263576   6.814   5.229   0.118 -0.5349 -1.5710  0.1725
20709SOL     OW63577   4.733   3.804   8.352  0.8030  0.0284  0.1640
20709SOL    HW163578   4.692   3.890   8.360 -0.8491 -0.9014  2.9288
20709SOL    HW263579   4.792   3.798   8.427  1.7676 -0.8623 -0.6243
20710SOL     OW63580   7.375   2.309   7.530 -0.0338  0.4725  0.1879
20710SOL    HW163581   7.429   2.230   7.519  0.6749  0.8797  0.6792
20710SOL    HW263582   7.436   2.381   7.518 -1.0612  1.0137 -2.3641
20711SOL     OW63583   4.047   4.885   0.302 -0.3008 -0.2012 -0.1153
20711SOL    HW163584   4.113   4.821   0.277 -1.7196 -1.9863  0.4779
20711SOL    HW263585   4.001   4.844   0.376 -3.5870 -0.1361 -1.9446
20712SOL     OW63586   7.215   1.709   7.734  0.1586  0.5447 -0.0936
20712SOL    HW163587   7.307   1.728   7.717  0.5142  0.0952  1.2030
20712SOL    HW263588   7.169   1.788   7.705  1.0277  1.0732 -0.0750
20713SOL     OW63589   2.595   4.197   0.947  0.1522  0.2368  0.1854
20713SOL    HW163590   2.548   4.150   1.016  0.3967  0.4022  0.4719
20713SOL    HW263591   2.558   4.285   0.949 -1.6872 -0.4310 -1.6686
20714SOL     OW63592   3.271   8.937   8.964  0.2341  0.1118 -0.2428
20714SOL    HW163593   3.326   8.997   8.915  0.1549 -0.1734 -0.6980
20714SOL    HW263594   3.189   8.933   8.913  0.2776 -0.4537 -0.2827
20715SOL     OW63595   9.252   5.493   1.716 -0.3884 -0.0928 -0.0775
20715SOL    HW163596   9.281   5.404   1.736 -0.4728 -0.4563 -1.4689
20715SOL    HW263597   9.254   5.498   1.620  1.2353  1.9333 -0.0152
20716SOL     OW63598   8.437   2.249   6.138 -0.2125  0.1388 -0.3562
20716SOL    HW163599   8.518   2.298   6.155 -0.1074 -0.1076 -0.1424
20716SOL    HW263600   8.374   2.286   6.200  0.4901 -1.5701  1.4680
20717SOL     OW63601   1.464   3.354   6.439  0.3416  0.2356  0.0035
20717SOL    HW163602   1.451   3.272   6.488 -1.0087 -1.6836 -3.2251
20717SOL    HW263603   1.559   3.361   6.429  0.5385 -0.3392  1.2070
20718SOL     OW63604   2.060   5.749   3.084  0.0663 -0.1926 -0.3207
20718SOL    HW163605   2.038   5.805   3.010  0.3801  0.6358  0.1976
20718SOL    HW263606   2.155   5.754   3.091 -0.0869  1.2394  1.2639
20719SOL     OW63607   1.328   8.698   8.015  0.2911  0.5571 -0.2137
20719SOL    HW163608   1.417   8.666   8.024  0.6868  1.4764 -0.7661
20719SOL    HW263609   1.293   8.654   7.938  0.2745  0.2203 -0.0139
20720SOL     OW63610   6.731   5.330   0.803 -0.1865  0.0986 -0.4068
20720SOL    HW163611   6.645   5.297   0.777 -1.9854  3.6847  0.4284
20720SOL    HW263612   6.751   5.399   0.739  2.2048 -0.7278 -0.6705
20721SOL     OW63613   3.208   8.736   1.827 -0.4015 -0.0583  0.5518
20721SOL    HW163614   3.287   8.690   1.853 -1.2602 -0.9344  1.7315
20721SOL    HW263615   3.137   8.687   1.868 -1.5715  0.6443 -0.5488
20722SOL     OW63616   2.871   6.593   3.510 -0.5167 -0.6653  0.5574
20722SOL    HW163617   2.802   6.608   3.445  1.1139 -0.9137 -1.3174
20722SOL    HW263618   2.875   6.498   3.519  1.0776 -0.8103 -1.1279
20723SOL     OW63619   3.022   0.256   2.660 -0.4485  0.3739 -0.3814
20723SOL    HW163620   3.017   0.281   2.568 -1.5282 -1.0952 -0.7672
20723SOL    HW263621   3.012   0.338   2.708 -1.4563  0.9928 -1.5773
20724SOL     OW63622   2.475   7.350   4.995  0.4225  0.2153  0.6788
20724SOL    HW163623   2.528   7.425   4.967  0.2745  0.6535  1.5455
20724SOL    HW263624   2.517   7.319   5.075  1.0452 -1.2420 -0.1736
20725SOL     OW63625   7.127   4.566   8.396 -0.2822  0.3470 -0.2725
20725SOL    HW163626   7.052   4.557   8.455 -0.4356 -0.1493 -0.5378
20725SOL    HW263627   7.204   4.552   8.452 -0.3629  1.3324  0.0957
20726SOL     OW63628   5.108   7.515   9.117  0.2237 -0.3634 -0.1294
20726SOL    HW163629   5.137   7.603   9.095 -1.2629 -0.4019 -2.7378
20726SOL    HW263630   5.184   7.473   9.157  1.3857  1.6541 -0.1203
20727SOL     OW63631   1.010   5.678   8.134 -0.0712  0.3346 -0.1786
20727SOL    HW163632   1.095   5.695   8.174 -0.2171  0.2005  0.2019
20727SOL    HW263633   0.971   5.611   8.191 -0.4172  0.3786 -0.3640
20728SOL     OW63634   1.482   2.066   2.025 -0.1763  0.2263  0.2332
20728SOL    HW163635   1.555   2.071   2.086  0.7191 -0.4389 -0.7576
20728SOL    HW263636   1.412   2.117   2.067  0.8198  0.8184  1.2187
20729SOL     OW63637   8.324   6.893   7.301 -0.1160 -0.2476 -0.2037
20729SOL    HW163638   8.304   6.802   7.322 -1.1485  0.3684  1.6474
20729SOL    HW263639   8.408   6.910   7.344  0.1077 -0.3293 -0.6014
20730SOL     OW63640   7.459   4.518   2.514  0.9180 -0.4375 -0.1334
20730SOL    HW163641   7.453   4.611   2.538  3.5044  0.2288 -1.6886
20730SOL    HW263642   7.380   4.479   2.551 -0.0943  2.3039  0.8768
20731SOL     OW63643   0.015   3.411   4.796 -0.6686  0.0914  0.3088
20731SOL    HW163644  -0.046   3.388   4.726  1.1214  0.2819 -1.3985
20731SOL    HW263645   0.038   3.502   4.777  0.2519 -0.0334  0.8256
20732SOL     OW63646   1.411   6.154   2.263 -0.5910  0.2340  0.0848
20732SOL    HW163647   1.365   6.091   2.206  1.1795 -0.5712 -0.5302
20732SOL    HW263648   1.378   6.135   2.351 -1.6499 -0.0998 -0.3638
20733SOL     OW63649   5.154   5.826   3.135 -0.1952 -0.0998 -0.2770
20733SOL    HW163650   5.174   5.857   3.046  1.3433  0.5799  0.2617
20733SOL    HW263651   5.220   5.869   3.190 -2.1288  0.8122  1.4435
20734SOL     OW63652   6.614   2.592   8.340  0.1557 -0.1405 -0.5756
20734SOL    HW163653   6.604   2.590   8.435 -0.8185  1.3593 -0.6088
20734SOL    HW263654   6.540   2.644   8.310  0.1428 -1.0441 -2.2139
20735SOL     OW63655   6.880   4.219   4.319  0.1978 -0.7555 -0.1405
20735SOL    HW163656   6.902   4.231   4.412  1.8168 -0.1009 -0.5772
20735SOL    HW263657   6.945   4.270   4.272 -0.8255 -0.7771 -1.6494
20736SOL     OW63658   3.995   3.887   6.595 -0.3492  0.2011 -0.3693
20736SOL    HW163659   3.964   3.955   6.655 -0.0928  0.3810 -0.4370
20736SOL    HW263660   4.089   3.903   6.588 -0.6164  1.3289 -2.1987
20737SOL     OW63661   3.555   7.016   4.649  0.7383  0.1856 -0.1279
20737SOL    HW163662   3.483   6.990   4.706  0.1487  1.4954 -0.2533
20737SOL    HW263663   3.547   6.959   4.573  0.8048 -0.7519  0.5444
20738SOL     OW63664   6.052   8.031   1.344 -0.3461  0.5408  0.5829
20738SOL    HW163665   6.107   8.073   1.411  0.2008 -1.1599  1.2714
20738SOL    HW263666   6.037   7.943   1.378 -0.4967 -0.2116 -1.3160
20739SOL     OW63667   2.998   8.461   1.639 -0.2187  0.8504 -0.3897
20739SOL    HW163668   2.922   8.409   1.615 -0.1303  0.4809  0.1047
20739SOL    HW263669   2.999   8.534   1.577 -1.0294  0.9129 -0.3351
20740SOL     OW63670   8.391   2.220   4.546 -0.5347 -0.4002 -0.1649
20740SOL    HW163671   8.440   2.200   4.626  0.1744  0.4390 -0.3702
20740SOL    HW263672   8.344   2.301   4.566 -0.3265 -0.1667 -0.5993
20741SOL     OW63673   2.377   7.338   4.066 -0.2305  0.1967 -0.4149
20741SOL    HW163674   2.411   7.262   4.018 -0.9155  0.1422 -0.8161
20741SOL    HW263675   2.405   7.414   4.014 -1.0083  0.1360 -0.9373
20742SOL     OW63676   6.995   4.135   2.548  0.5773 -0.1780  0.5827
20742SOL    HW163677   6.985   4.093   2.634  1.5326  0.6998  1.1529
20742SOL    HW263678   7.007   4.062   2.487 -0.8929 -0.8538  1.0531
20743SOL     OW63679   8.507   0.408   1.570  0.1154  0.0711  0.0633
20743SOL    HW163680   8.469   0.472   1.631  0.1653  0.9829 -0.8455
20743SOL    HW263681   8.432   0.370   1.525  0.1828  1.5015 -1.3613
20744SOL     OW63682   8.034   1.140   4.988 -0.1881  0.6703  0.0313
20744SOL    HW163683   7.985   1.094   4.920  1.5358  0.1429 -0.9121
20744SOL    HW263684   7.994   1.227   4.991 -0.0546  0.8342 -1.9540
20745SOL     OW63685   2.247   7.943   0.597  0.3701  0.2136  0.4057
20745SOL    HW163686   2.338   7.919   0.578  0.1001  0.8499 -2.0508
20745SOL    HW263687   2.254   8.010   0.665  1.8215  0.8188 -0.2820
20746SOL     OW63688   4.727   5.262   4.028 -0.3607 -0.7553  0.2082
20746SOL    HW163689   4.811   5.305   4.047 -0.4969 -0.0063 -0.7912
20746SOL    HW263690   4.750   5.170   4.016 -0.1544 -1.1525  3.0013
20747SOL     OW63691   2.576   7.617   7.674 -0.0523 -0.0981  0.6118
20747SOL    HW163692   2.514   7.679   7.636  0.0088 -0.3110  0.1488
20747SOL    HW263693   2.572   7.633   7.768 -0.6531  0.0360  0.5682
20748SOL     OW63694   2.358   3.655   3.765 -0.3201  0.1430  0.3445
20748SOL    HW163695   2.277   3.693   3.730  0.2905  1.7081  0.5086
20748SOL    HW263696   2.412   3.638   3.688 -0.2766  0.4144  0.3127
20749SOL     OW63697   3.453   9.101   8.809 -0.2953 -0.7158 -0.1456
20749SOL    HW163698   3.453   9.191   8.842  1.9233 -0.6348 -0.2515
20749SOL    HW263699   3.420   9.109   8.719  1.9020  0.3521 -0.9166
20750SOL     OW63700   2.947   0.715   5.652  0.4304  0.8996 -0.5138
20750SOL    HW163701   2.997   0.761   5.719  2.5692 -0.3780 -1.0994
20750SOL    HW263702   2.952   0.772   5.575  0.1123  1.2420 -0.2815
20751SOL     OW63703   5.149   7.065   2.328  0.2179 -0.0854 -0.4057
20751SOL    HW163704   5.190   6.991   2.282  0.4046 -0.3352  0.1528
20751SOL    HW263705   5.061   7.035   2.349 -0.1369  0.3063 -1.2484
20752SOL     OW63706   4.625   8.664   8.363 -0.3130 -0.4377  0.5895
20752SOL    HW163707   4.708   8.652   8.410  0.0114  2.7973  1.0707
20752SOL    HW263708   4.649   8.652   8.271  0.5820 -0.1061  0.7625
20753SOL     OW63709   0.376   8.484   7.925  0.0691 -0.2220 -0.0072
20753SOL    HW163710   0.455   8.451   7.883 -0.0561  0.2488 -0.6307
20753SOL    HW263711   0.308   8.476   7.859  0.1227  1.6260 -0.3371
20754SOL     OW63712   8.067   5.847   3.750  0.1123  0.0407 -0.2742
20754SOL    HW163713   8.090   5.930   3.793  1.6924 -0.0577 -0.8802
20754SOL    HW263714   8.021   5.873   3.671  1.2105  0.3954 -0.8201
20755SOL     OW63715   4.577   1.927   4.606  0.0784  0.0878 -0.1272
20755SOL    HW163716   4.550   1.988   4.675 -1.5777 -0.1244 -0.5435
20755SOL    HW263717   4.533   1.845   4.628 -0.9619  0.1691 -1.7036
20756SOL     OW63718   5.638   3.182   7.104  0.3189 -0.4398 -0.1843
20756SOL    HW163719   5.555   3.136   7.103 -0.3598  0.7156 -2.5850
20756SOL    HW263720   5.626   3.252   7.169  0.4113 -1.8774  1.4404
20757SOL     OW63721   7.661   7.174   5.506  0.4465 -0.7627 -0.4284
20757SOL    HW163722   7.715   7.181   5.585  1.3122  1.5592 -1.1284
20757SOL    HW263723   7.640   7.081   5.500 -1.0089 -0.8744  3.3959
20758SOL     OW63724   6.789   2.052   8.292  0.1216  0.1827 -0.3035
20758SOL    HW163725   6.862   1.992   8.274 -1.1224 -1.1639 -1.1023
20758SOL    HW263726   6.721   1.996   8.330 -0.8214  1.2237 -0.4039
20759SOL     OW63727   2.761   2.152   3.286 -0.3018 -0.1107 -0.3198
20759SOL    HW163728   2.678   2.156   3.238 -0.2013 -1.3193 -0.6417
20759SOL    HW263729   2.798   2.067   3.261  0.5184 -0.0548  0.6622
20760SOL     OW63730   7.424   3.239   4.265 -0.5061  0.0171 -0.6316
20760SOL    HW163731   7.365   3.164   4.265 -3.1729  1.9585  0.5963
20760SOL    HW263732   7.391   3.295   4.195  1.1387  0.3377 -1.2015
20761SOL     OW63733   3.654   1.533   6.057  0.0738 -0.0395  0.3246
20761SOL    HW163734   3.747   1.510   6.061  0.1776  0.2782 -0.1733
20761SOL    HW263735   3.635   1.572   6.142  0.2916 -0.4928  0.5830
20762SOL     OW63736   6.634   0.660   8.756  0.1946  0.0553  0.2144
20762SOL    HW163737   6.633   0.744   8.803  0.6768  0.7375 -0.9522
20762SOL    HW263738   6.677   0.680   8.673  1.5221 -1.6452  0.4516
20763SOL     OW63739   6.136   4.509   6.554  0.1824 -0.0682  0.1395
20763SOL    HW163740   6.092   4.585   6.516 -1.1629 -0.4626  0.8437
20763SOL    HW263741   6.066   4.458   6.594  1.2862 -0.6696  1.4118
20764SOL     OW63742   2.709   6.198   7.299 -0.2103  0.5785  0.2766
20764SOL    HW163743   2.713   6.188   7.204  1.2530 -1.9506  0.5077
20764SOL    HW263744   2.665   6.118   7.329  0.6691  0.6304  1.7948
20765SOL     OW63745   0.900   7.353   5.925 -0.2918  0.2021  0.0915
20765SOL    HW163746   0.844   7.413   5.875  1.1935  0.1197 -1.7876
20765SOL    HW263747   0.921   7.283   5.864  1.7882  0.1980  0.7326
20766SOL     OW63748   6.014   3.494   8.027 -0.6737 -0.3395 -0.1060
20766SOL    HW163749   6.064   3.459   7.953 -0.3435 -3.4073  1.4089
20766SOL    HW263750   6.073   3.558   8.068  0.1080 -0.4446 -1.0328
20767SOL     OW63751   7.702   0.584   5.965  0.3040  0.3441  0.2383
20767SOL    HW163752   7.643   0.659   5.957 -0.6757 -0.4521 -0.1228
20767SOL    HW263753   7.789   0.619   5.943 -0.3270  1.1155 -1.1168
20768SOL     OW63754   5.398   8.811   0.929 -0.5624  0.2203 -0.2155
20768SOL    HW163755   5.417   8.763   1.010 -2.3588  0.3543  0.3207
20768SOL    HW263756   5.362   8.894   0.959 -0.9204  0.4105 -1.1592
20769SOL     OW63757   1.400   0.903   0.988  1.2222 -0.1736  0.0783
20769SOL    HW163758   1.305   0.902   1.001  0.9372  0.2436 -1.6977
20769SOL    HW263759   1.412   0.870   0.899  2.5274  2.3344 -0.7615
20770SOL     OW63760   7.063   9.190   3.335 -0.3188  0.0825 -0.0477
20770SOL    HW163761   7.002   9.122   3.304 -0.3832 -1.0504  2.3166
20770SOL    HW263762   7.019   9.229   3.410  2.2544 -1.7208  2.6492
20771SOL     OW63763   3.147   1.479   4.666  0.1410  0.5223  0.0660
20771SOL    HW163764   3.236   1.498   4.696  1.1276  0.5473 -2.6263
20771SOL    HW263765   3.156   1.399   4.614 -1.2278  0.9825 -0.9369
20772SOL     OW63766   0.829   7.333   0.999 -0.1523  0.1314 -0.0192
20772SOL    HW163767   0.753   7.305   0.948  0.6806 -0.9163 -0.7310
20772SOL    HW263768   0.822   7.284   1.081  0.1116 -0.5136 -0.3707
20773SOL     OW63769   6.234   7.915   2.715 -0.5795 -0.0491  0.4258
20773SOL    HW163770   6.195   7.890   2.798  0.3427  0.9445  1.1777
20773SOL    HW263771   6.314   7.960   2.738  1.3462 -2.4187 -1.0577
20774SOL     OW63772   5.555   4.364   5.396  0.1692 -0.4923 -0.3659
20774SOL    HW163773   5.641   4.394   5.424 -0.3647  1.4761 -0.6859
20774SOL    HW263774   5.535   4.290   5.454  1.7606 -0.5344  0.1640
20775SOL     OW63775   0.472   3.211   6.887  0.5837 -0.3354 -0.4334
20775SOL    HW163776   0.567   3.199   6.888  0.5748 -0.4713 -0.9936
20775SOL    HW263777   0.458   3.297   6.927  1.0952  0.6769 -2.3350
20776SOL     OW63778   9.112   3.190   6.207  0.1844 -0.4004  0.2677
20776SOL    HW163779   9.102   3.160   6.116 -0.3475  0.9744 -0.1496
20776SOL    HW263780   9.177   3.259   6.201  1.4638 -1.4712  1.2301
20777SOL     OW63781   2.866   0.687   2.807  0.2327 -0.2160 -0.5933
20777SOL    HW163782   2.901   0.714   2.722  1.2988 -0.1679 -0.1517
20777SOL    HW263783   2.864   0.768   2.859  2.4839 -0.7335  0.4044
20778SOL     OW63784   2.617   5.177   0.115 -0.1519 -0.1148  0.3480
20778SOL    HW163785   2.582   5.224   0.190 -2.5061  0.0785 -0.7919
20778SOL    HW263786   2.636   5.089   0.148 -1.1077 -0.0236  1.1838
20779SOL     OW63787   7.027   2.309   7.053  0.0635  0.3770  0.0160
20779SOL    HW163788   7.007   2.303   7.147  0.7888 -0.7082  0.1225
20779SOL    HW263789   7.123   2.307   7.050  0.0598  0.9882 -0.7282
20780SOL     OW63790   4.850   9.189   6.600  0.2180 -0.3968 -0.0134
20780SOL    HW163791   4.838   9.284   6.592 -0.5253 -0.4609  0.2301
20780SOL    HW263792   4.792   9.152   6.534  1.5927 -0.6666 -1.1284
20781SOL     OW63793   1.777   8.199   5.564 -0.2060  0.3960  0.1450
20781SOL    HW163794   1.803   8.209   5.473  0.3834 -3.5724 -0.2975
20781SOL    HW263795   1.720   8.274   5.581  1.0889  2.2446 -2.8789
20782SOL     OW63796   6.587   3.367   8.577  0.3251  0.1333  0.1125
20782SOL    HW163797   6.658   3.319   8.619  0.4431  0.0255 -0.2114
20782SOL    HW263798   6.507   3.322   8.605  0.4034  0.0646  0.2239
20783SOL     OW63799   7.691   3.831   8.363  0.4547 -0.4050 -0.2820
20783SOL    HW163800   7.630   3.871   8.425  0.9544 -1.9159  1.2820
20783SOL    HW263801   7.734   3.904   8.320 -0.4957  0.6957  0.5747
20784SOL     OW63802   8.070   0.400   4.767  0.1454  0.6907 -0.0953
20784SOL    HW163803   8.111   0.318   4.792 -0.2637  0.5023 -0.0367
20784SOL    HW263804   8.004   0.416   4.835  0.2054  1.0564 -0.1173
20785SOL     OW63805   4.817   8.634   0.942  0.3550 -0.3956  0.1815
20785SOL    HW163806   4.791   8.542   0.942  2.5606 -1.1180 -1.0096
20785SOL    HW263807   4.818   8.659   1.034 -2.0749 -0.9433  0.4284
20786SOL     OW63808   9.156   2.241   7.905 -0.4597  0.2977  0.1246
20786SOL    HW163809   9.064   2.217   7.916 -0.6396 -0.1532 -2.0368
20786SOL    HW263810   9.153   2.321   7.852  0.3952 -0.6199 -1.3639
20787SOL     OW63811   6.453   0.684   1.854 -0.4563  0.4164  0.2336
20787SOL    HW163812   6.464   0.589   1.844 -1.4264  0.3272 -0.1519
20787SOL    HW263813   6.434   0.696   1.947  0.8353  0.3738  0.5167
20788SOL     OW63814   5.097   1.997   0.976 -0.1853  0.3952  0.1998
20788SOL    HW163815   5.163   1.934   1.005  0.1146  1.0386  0.9484
20788SOL    HW263816   5.147   2.063   0.928 -0.4392  0.2983 -0.1991
20789SOL     OW63817   2.287   0.064   0.876 -0.0488  0.4151  0.0041
20789SOL    HW163818   2.274   0.144   0.928 -0.1261  0.8239 -0.6297
20789SOL    HW263819   2.371   0.077   0.833  1.2996 -1.0564  2.0171
20790SOL     OW63820   4.530   5.818   1.655 -0.0403 -0.1518  0.1005
20790SOL    HW163821   4.608   5.840   1.706 -0.2789  0.5030  0.1939
20790SOL    HW263822   4.470   5.891   1.671 -0.9325 -0.9728  0.5669
20791SOL     OW63823   5.621   1.408   7.691 -0.1310 -0.5473 -0.7444
20791SOL    HW163824   5.570   1.388   7.770  1.3741  1.7256  0.9441
20791SOL    HW263825   5.562   1.388   7.619 -2.8439  0.3763  1.0278
20792SOL     OW63826   1.174   2.553   6.637  0.6019  0.5665 -0.2437
20792SOL    HW163827   1.117   2.553   6.715  0.3804  1.7439 -0.3814
20792SOL    HW263828   1.146   2.476   6.587  0.0377  0.3805  0.3420
20793SOL     OW63829   7.530   6.417   7.935 -0.0213  0.5728  0.4187
20793SOL    HW163830   7.469   6.461   7.994  0.6642 -1.8251  3.1835
20793SOL    HW263831   7.616   6.448   7.962  0.2781 -0.1647  0.3430
20794SOL     OW63832   1.735   1.413   2.269  0.0494  0.3942  0.3155
20794SOL    HW163833   1.801   1.401   2.337  0.7794  1.8759 -0.0894
20794SOL    HW263834   1.695   1.497   2.289 -1.4448 -0.2967  0.3098
20795SOL     OW63835   2.826   1.114   0.298  0.4865  0.2038  0.2376
20795SOL    HW163836   2.796   1.056   0.368 -2.6004 -0.5915 -1.5840
20795SOL    HW263837   2.775   1.194   0.310  2.2374  1.3275  0.6693
20796SOL     OW63838   4.839   7.817   6.649 -0.3671  0.2256 -0.0100
20796SOL    HW163839   4.912   7.876   6.634 -0.1725  0.0838  0.3612
20796SOL    HW263840   4.880   7.731   6.662 -0.6388  0.0262 -0.4435
20797SOL     OW63841   8.925   2.219   0.381 -0.1254  0.5814 -0.4428
20797SOL    HW163842   8.848   2.267   0.410 -0.2335  0.4271 -0.4757
20797SOL    HW263843   8.901   2.127   0.390  0.9184  0.4667  1.9050
20798SOL     OW63844   3.125   3.574   6.431  0.0093 -0.1245  0.8676
20798SOL    HW163845   3.205   3.591   6.481  1.7198 -1.1742 -1.3255
20798SOL    HW263846   3.139   3.619   6.348 -0.5656 -2.3213 -0.4924
20799SOL     OW63847   8.491   3.062   3.244 -0.1092  0.6770  0.1179
20799SOL    HW163848   8.557   3.130   3.257  0.6000  0.5094 -2.1505
20799SOL    HW263849   8.463   3.072   3.153 -0.4966 -1.5742 -0.0816
20800SOL     OW63850   3.459   1.549   2.986 -0.2264 -0.2329  0.4779
20800SOL    HW163851   3.438   1.500   3.066 -0.7356  1.4834  1.4679
20800SOL    HW263852   3.552   1.570   2.994  0.1410 -1.4777 -0.2375
20801SOL     OW63853   1.657   7.445   5.384 -0.0383 -0.0683  0.3705
20801SOL    HW163854   1.595   7.515   5.367 -0.7130 -0.9643 -1.1036
20801SOL    HW263855   1.701   7.431   5.300  2.1331  0.4745  1.3467
20802SOL     OW63856   0.060   6.345   6.865 -0.4331 -0.4951 -0.6424
20802SOL    HW163857   0.097   6.433   6.875  1.0732 -1.2164  0.5071
20802SOL    HW263858   0.019   6.346   6.778 -0.2643  1.2667 -0.7394
20803SOL     OW63859   0.132   7.204   3.559  0.1172  0.2900  0.2263
20803SOL    HW163860   0.067   7.250   3.613 -1.0521 -1.5459  0.4854
20803SOL    HW263861   0.079   7.151   3.499  1.3974  1.2163 -1.8339
20804SOL     OW63862   1.423   5.208   5.193  0.0435 -0.0476  0.9891
20804SOL    HW163863   1.428   5.272   5.264 -0.2233 -0.6314  1.5502
20804SOL    HW263864   1.352   5.149   5.219  0.3927 -0.6704  0.5728
20805SOL     OW63865   1.740   1.021   1.532  0.3312 -0.2610 -0.4582
20805SOL    HW163866   1.668   0.959   1.523  0.0704 -0.0351  0.0141
20805SOL    HW263867   1.794   1.007   1.455  0.0558 -0.7930 -0.5562
20806SOL     OW63868   4.386   8.670   5.323 -0.6533  0.8624  0.6741
20806SOL    HW163869   4.419   8.604   5.383 -0.1234  0.1893 -0.3328
20806SOL    HW263870   4.308   8.630   5.284 -1.1096  1.3737  1.0411
20807SOL     OW63871   2.823   5.794   3.047  0.2597  0.4778  0.1069
20807SOL    HW163872   2.831   5.807   2.953  1.4926 -1.1944 -0.0729
20807SOL    HW263873   2.868   5.711   3.064 -1.7605 -0.3671  1.8659
20808SOL     OW63874   1.927   3.925   1.104  0.7327  0.0192 -0.1095
20808SOL    HW163875   1.891   3.873   1.032  1.3779  1.1252 -1.2719
20808SOL    HW263876   1.854   3.981   1.131  0.3711 -0.6751  0.3831
20809SOL     OW63877   1.734   0.374   2.564 -0.1216  0.5690  0.6425
20809SOL    HW163878   1.807   0.334   2.610 -1.9394 -1.8690  1.6412
20809SOL    HW263879   1.764   0.463   2.543  2.8696 -0.1554  1.4325
20810SOL     OW63880   3.193   7.965   8.984  0.2582  0.1215  0.1310
20810SOL    HW163881   3.120   7.961   8.922  0.9196  1.0326 -0.7328
20810SOL    HW263882   3.170   8.036   9.044 -0.3748 -0.7502  0.9465
20811SOL     OW63883   5.436   3.607   0.661  0.0846 -0.6837 -0.4146
20811SOL    HW163884   5.390   3.562   0.590  1.2165 -2.2013 -0.2267
20811SOL    HW263885   5.526   3.616   0.630  0.6440 -1.5401  0.8797
20812SOL     OW63886   7.320   7.671   6.440  0.4416  0.0414  0.4787
20812SOL    HW163887   7.296   7.638   6.354  1.6505 -0.0829  0.1628
20812SOL    HW263888   7.291   7.762   6.440  5.4673  2.0818 -2.4424
20813SOL     OW63889   3.798   1.263   4.893  0.0929 -0.0865 -0.8262
20813SOL    HW163890   3.757   1.177   4.898  0.6970 -0.4885 -2.3141
20813SOL    HW263891   3.873   1.258   4.952 -0.2047 -0.3773 -0.4666
20814SOL     OW63892   1.780   2.281   5.250 -0.3619  0.1217 -0.4395
20814SOL    HW163893   1.809   2.253   5.337 -0.0499  1.4521 -0.0851
20814SOL    HW263894   1.743   2.203   5.210  0.1349 -0.6774  0.6253
20815SOL     OW63895   8.750   5.168   8.507 -0.0830 -0.6686  0.0469
20815SOL    HW163896   8.698   5.093   8.479  0.1647 -0.2214 -1.6943
20815SOL    HW263897   8.688   5.226   8.551 -0.1603 -2.1330  1.9907
20816SOL     OW63898   7.861   4.529   3.141  0.5141  0.1364 -0.7869
20816SOL    HW163899   7.792   4.591   3.114  1.0438  0.5967 -1.0948
20816SOL    HW263900   7.942   4.567   3.107  0.8400 -0.7799 -1.0530
20817SOL     OW63901   0.879   6.259   2.129 -0.2994  0.4107  0.0562
20817SOL    HW163902   0.821   6.254   2.205  0.5296  0.5041  0.7195
20817SOL    HW263903   0.884   6.353   2.110 -0.4564  0.3932 -0.0695
20818SOL     OW63904   1.670   3.606   8.681  0.1434 -0.5052  0.9193
20818SOL    HW163905   1.649   3.529   8.628 -0.5141 -0.4977  1.1499
20818SOL    HW263906   1.593   3.617   8.738  0.1162  0.4744  0.7107
20819SOL     OW63907   8.087   3.327   4.450 -0.2604 -0.0334 -0.1368
20819SOL    HW163908   8.099   3.294   4.361  0.2341 -1.4107  0.4152
20819SOL    HW263909   8.174   3.357   4.476 -0.5297  0.9413 -0.3155
20820SOL     OW63910   7.139   2.124   2.723 -0.1285  0.2328  0.3984
20820SOL    HW163911   7.045   2.126   2.740 -0.1320  2.3554  0.3707
20820SOL    HW263912   7.176   2.188   2.783  1.4960 -1.4378  1.2740
20821SOL     OW63913   3.247   3.932   0.646 -0.1087 -0.4087  0.1097
20821SOL    HW163914   3.177   3.946   0.582 -1.5713 -0.8843  1.5357
20821SOL    HW263915   3.241   3.840   0.669  1.6804 -0.7073 -0.4643
20822SOL     OW63916   5.670   3.519   5.610  0.2107 -0.5105 -0.2316
20822SOL    HW163917   5.727   3.519   5.687  1.8236  0.3070 -1.3527
20822SOL    HW263918   5.674   3.429   5.578 -0.5565 -0.8806  0.6864
20823SOL     OW63919   6.580   5.935   0.121 -0.4234 -0.6128 -0.4833
20823SOL    HW163920   6.670   5.963   0.135 -0.4331  0.6510 -2.5360
20823SOL    HW263921   6.586   5.862   0.060 -0.7554 -1.0538  0.0030
20824SOL     OW63922   2.611   1.757   7.301 -0.4249  0.4275 -0.3916
20824SOL    HW163923   2.623   1.719   7.214  1.1678  1.6970 -0.7777
20824SOL    HW263924   2.696   1.747   7.344 -0.0934  2.8798 -0.3030
20825SOL     OW63925   4.872   6.106   1.013 -0.6078  0.5388 -0.2141
20825SOL    HW163926   4.829   6.081   1.095 -2.1572  1.7226 -0.6241
20825SOL    HW263927   4.800   6.120   0.952  0.5165 -2.6446 -2.5605
20826SOL     OW63928   7.039   0.905   5.201 -0.4676  0.1211  0.4145
20826SOL    HW163929   6.973   0.964   5.237 -1.1394  0.0698 -0.6945
20826SOL    HW263930   7.107   0.901   5.268 -1.2077  0.8197  1.2249
20827SOL     OW63931   6.952   7.436   0.507 -0.5134  0.4404  0.5117
20827SOL    HW163932   6.975   7.528   0.492  0.5714 -0.0675 -1.1853
20827SOL    HW263933   6.875   7.440   0.564 -2.3230  2.5183 -1.8397
20828SOL     OW63934   4.028   3.448   8.807  0.7856 -0.4204  0.5743
20828SOL    HW163935   4.032   3.543   8.792  0.6751 -0.6563 -1.2025
20828SOL    HW263936   4.013   3.439   8.901  2.0814  1.2865  0.9998
20829SOL     OW63937   2.063   3.190   7.570  0.1051  0.0827 -0.4392
20829SOL    HW163938   2.152   3.200   7.536  0.2353  1.3035  0.1937
20829SOL    HW263939   2.055   3.097   7.590  1.4357  0.0496  0.0301
20830SOL     OW63940   3.243   8.163   6.561  0.5290  0.4244  0.0165
20830SOL    HW163941   3.282   8.127   6.481 -2.5448 -1.7721 -0.6964
20830SOL    HW263942   3.275   8.106   6.631  2.6114  1.8736  0.3040
20831SOL     OW63943   5.982   5.004   6.143 -0.1281  0.6158 -0.0991
20831SOL    HW163944   5.952   4.991   6.233  1.6809  2.4382  0.8337
20831SOL    HW263945   6.047   4.936   6.129  0.2778  0.9124  0.3244
20832SOL     OW63946   2.980   3.221   6.278 -0.0955 -0.2260  0.0101
20832SOL    HW163947   2.977   3.317   6.287 -2.2672 -0.0678 -1.5146
20832SOL    HW263948   3.005   3.207   6.187 -0.7670 -1.0488 -0.0620
20833SOL     OW63949   6.268   3.164   5.407  0.3607  0.3962 -0.6908
20833SOL    HW163950   6.198   3.119   5.454  1.3575  0.9106  1.4192
20833SOL    HW263951   6.299   3.100   5.343 -1.8448  0.0938 -1.5497
20834SOL     OW63952   9.041   0.149   2.632 -0.6870  0.0212  0.3175
20834SOL    HW163953   8.998   0.093   2.567 -0.3627 -0.4094  0.4675
20834SOL    HW263954   9.026   0.238   2.601 -2.0081 -0.1007  0.5588
20835SOL     OW63955   0.114   1.436   0.337 -0.0136 -0.5080  0.5321
20835SOL    HW163956   0.039   1.491   0.363 -0.1287 -0.3120 -0.1833
20835SOL    HW263957   0.131   1.381   0.413 -0.0849  0.3198  1.1651
20836SOL     OW63958   4.167   7.955   2.905 -0.7380 -0.0235 -0.7371
20836SOL    HW163959   4.166   7.928   2.814  1.3721  0.5247 -0.9710
20836SOL    HW263960   4.257   7.981   2.922 -1.0760 -0.0693  1.5055
20837SOL     OW63961   7.342   2.181   2.019  0.1176  0.2689  0.0256
20837SOL    HW163962   7.382   2.123   1.955 -0.9254  0.9231 -1.2603
20837SOL    HW263963   7.386   2.265   2.007  0.3770  0.2275  0.6381
20838SOL     OW63964   9.173   2.828   3.171  0.1869 -0.0082  0.4101
20838SOL    HW163965   9.156   2.889   3.100  0.2134 -0.5184 -0.0455
20838SOL    HW263966   9.126   2.748   3.146  1.1062 -0.5664  0.4149
20839SOL     OW63967   5.099   4.501   6.100  0.4637  0.4511 -0.1374
20839SOL    HW163968   5.193   4.495   6.117  0.6032 -2.0177 -1.2902
20839SOL    HW263969   5.088   4.585   6.056  2.1337  0.7997  0.0353
20840SOL     OW63970   4.771   9.207   1.137  0.0428  0.1279 -0.0837
20840SOL    HW163971   4.854   9.164   1.159  0.1405  0.5292  0.3497
20840SOL    HW263972   4.757   9.270   1.208 -0.6581  0.0311 -0.1223
20841SOL     OW63973   4.493   2.494   3.971 -0.5732 -0.2133  0.0209
20841SOL    HW163974   4.456   2.465   4.055 -0.4630 -0.2981  0.0408
20841SOL    HW263975   4.454   2.435   3.906  0.3088 -0.9721  0.1621
20842SOL     OW63976   2.131   7.797   4.929 -0.2839 -0.0374  0.7133
20842SOL    HW163977   2.184   7.722   4.955 -0.0210  0.4157  1.5444
20842SOL    HW263978   2.145   7.806   4.835 -0.3251 -1.0229  0.6048
20843SOL     OW63979   3.565   8.265   5.283  0.6191 -0.3847  0.1840
20843SOL    HW163980   3.637   8.236   5.338  1.6988 -1.9185 -1.9214
20843SOL    HW263981   3.597   8.256   5.194 -1.7195  0.1914 -0.7924
20844SOL     OW63982   1.126   2.122   2.677 -0.6052 -0.2327 -0.0957
20844SOL    HW163983   1.161   2.061   2.742 -0.2938 -0.6872 -0.6760
20844SOL    HW263984   1.121   2.206   2.723  1.6699 -0.0389 -0.0792
20845SOL     OW63985   4.611   7.650   8.749  0.1617  0.0834 -0.8097
20845SOL    HW163986   4.558   7.586   8.796  0.0102  2.1204  2.0396
20845SOL    HW263987   4.583   7.643   8.658 -2.6700 -1.1346  0.0678
20846SOL     OW63988   7.352   0.367   2.025  0.4390 -0.2525 -0.2147
20846SOL    HW163989   7.320   0.456   2.033  0.9215 -0.1035  0.1334
20846SOL    HW263990   7.332   0.342   1.934 -2.2085 -0.7997  0.4344
20847SOL     OW63991   1.902   2.994   6.749 -0.2062 -0.7118 -0.4725
20847SOL    HW163992   1.956   3.021   6.675  0.0137 -0.3930 -0.1983
20847SOL    HW263993   1.964   2.964   6.815 -0.2333  1.0073  0.4095
20848SOL     OW63994   4.564   1.333   8.230  0.0407  0.2981  0.0428
20848SOL    HW163995   4.510   1.277   8.286 -1.7427  1.4172 -0.4906
20848SOL    HW263996   4.539   1.422   8.253  0.9340  0.8303 -0.9449
20849SOL     OW63997   4.986   6.076   6.221 -0.8375 -0.0618 -0.2515
20849SOL    HW163998   5.060   6.116   6.175 -0.7136 -0.6703 -0.5895
20849SOL    HW263999   4.982   5.987   6.187 -0.8701 -0.4661  0.7863
20850SOL     OW64000   8.649   6.677   7.362 -0.5202  0.5367  0.6852
20850SOL    HW164001   8.655   6.762   7.405  1.8882  1.0857 -0.5464
20850SOL    HW264002   8.636   6.698   7.269  0.9807 -0.3784  0.2382
20851SOL     OW64003   1.283   4.202   0.759 -0.4051  0.2001  0.6440
20851SOL    HW164004   1.255   4.278   0.708 -2.7019 -1.2507 -0.4143
20851SOL    HW264005   1.344   4.156   0.702  0.9187  1.1349  1.2510
20852SOL     OW64006   1.230   3.289   7.924  0.3385 -0.1410  0.1078
20852SOL    HW164007   1.270   3.321   8.005 -0.6599 -2.0923  1.4439
20852SOL    HW264008   1.184   3.366   7.888  0.5122  0.6802  1.5699
20853SOL     OW64009   3.098   7.629   4.056 -0.6187 -0.3355 -0.3199
20853SOL    HW164010   3.098   7.721   4.084  1.3738 -0.1020 -0.9486
20853SOL    HW264011   3.128   7.631   3.966  1.5174 -1.7224  0.2840
20854SOL     OW64012   0.882   0.427   3.895  0.5648  0.3836  0.5843
20854SOL    HW164013   0.825   0.477   3.837  2.0223 -0.9255 -2.1862
20854SOL    HW264014   0.913   0.490   3.960 -2.2687  1.5869  0.9149
20855SOL     OW64015   3.583   4.431   6.447  0.1094  0.5908 -0.1019
20855SOL    HW164016   3.642   4.357   6.465 -1.6958 -1.1462 -0.8760
20855SOL    HW264017   3.633   4.488   6.389  1.3598 -0.3246  0.0278
20856SOL     OW64018   2.898   6.514   6.685 -0.7897 -0.0235 -0.4903
20856SOL    HW164019   2.983   6.550   6.709 -0.6623  0.3114 -1.4365
20856SOL    HW264020   2.915   6.455   6.612 -1.2077 -0.8808  0.0856
20857SOL     OW64021   6.105   1.889   6.614  0.1272  0.5733 -0.0170
20857SOL    HW164022   6.024   1.865   6.658  1.6953 -0.9045  2.2738
20857SOL    HW264023   6.174   1.863   6.674  2.3759  0.7189 -2.3458
20858SOL     OW64024   5.177   2.201   6.342 -0.1120  0.1336 -0.2954
20858SOL    HW164025   5.175   2.146   6.420 -0.1865 -1.5426 -1.4229
20858SOL    HW264026   5.270   2.209   6.321 -0.1112  0.2936 -0.2303
20859SOL     OW64027   0.041   3.613   6.630  0.1272  0.2407  0.2506
20859SOL    HW164028   0.034   3.629   6.724 -0.9446 -0.0549  0.2412
20859SOL    HW264029  -0.009   3.532   6.616 -0.1883  0.5768 -0.6405
20860SOL     OW64030   8.232   5.612   3.699 -0.1664 -0.4888  0.5143
20860SOL    HW164031   8.188   5.546   3.754 -2.6826 -1.5240 -2.4388
20860SOL    HW264032   8.160   5.664   3.663  1.5418  1.6567  0.0101
20861SOL     OW64033   7.250   4.202   2.205 -0.2259  0.4171 -0.3202
20861SOL    HW164034   7.172   4.194   2.150  0.6456  0.7758 -1.6620
20861SOL    HW264035   7.247   4.126   2.262  0.1496 -1.4147 -2.6034
20862SOL     OW64036   5.249   0.076   9.197  0.3773 -0.5050  0.0901
20862SOL    HW164037   5.221   0.026   9.274 -3.2973 -0.4733 -1.0215
20862SOL    HW264038   5.267   0.164   9.231 -1.9576 -0.2746  0.9248
20863SOL     OW64039   7.047   1.591   4.954  0.5287  0.4735 -0.1026
20863SOL    HW164040   6.957   1.574   4.982  0.5699 -0.1927 -0.3492
20863SOL    HW264041   7.096   1.514   4.984  0.5801 -0.2748 -1.9486
20864SOL     OW64042   7.459   6.469   8.846  0.2966 -0.5578  0.0701
20864SOL    HW164043   7.516   6.487   8.771  0.5529 -0.1434  0.3597
20864SOL    HW264044   7.453   6.552   8.892  1.9156 -1.2881  1.7132
20865SOL     OW64045   8.309   2.177   9.000  0.5450  0.1431  0.0604
20865SOL    HW164046   8.233   2.136   8.958  0.2784 -1.5698  2.0482
20865SOL    HW264047   8.356   2.219   8.928  0.3886 -3.0175 -2.0974
20866SOL     OW64048   8.777   3.489   7.230 -0.1403  0.0555 -0.4102
20866SOL    HW164049   8.788   3.397   7.205  2.6689  0.3250 -0.4644
20866SOL    HW264050   8.740   3.485   7.318  0.2878 -1.1528 -0.2587
20867SOL     OW64051   5.088   8.438   2.198  0.1376 -0.1514  0.2016
20867SOL    HW164052   5.147   8.468   2.129 -1.1894 -2.0007 -1.8633
20867SOL    HW264053   5.143   8.385   2.256  0.6591 -1.3993 -1.3754
20868SOL     OW64054   3.127   7.165   5.131 -0.0675  0.3468 -0.5546
20868SOL    HW164055   3.144   7.224   5.205 -0.9077 -1.7256  1.4087
20868SOL    HW264056   3.213   7.151   5.092  0.2253  2.4067 -0.7569
20869SOL     OW64057   6.965   0.896   0.729  0.2056  0.0306 -0.2549
20869SOL    HW164058   6.952   0.836   0.655 -1.2832  0.9930 -0.8271
20869SOL    HW264059   6.885   0.890   0.780  1.7067 -1.6057  2.1119
20870SOL     OW64060   1.016   9.217   4.091  0.6173  0.1406  0.1559
20870SOL    HW164061   0.951   9.276   4.130  0.6645  0.6629 -0.5293
20870SOL    HW264062   0.978   9.191   4.008 -0.9442 -3.5228  1.8126
20871SOL     OW64063   4.276   0.170   2.877 -0.2775  0.3099  0.4366
20871SOL    HW164064   4.209   0.198   2.939 -0.5655 -0.8468  0.6622
20871SOL    HW264065   4.252   0.080   2.854  1.1165 -0.0712  0.4046
20872SOL     OW64066   5.380   2.105   1.948 -0.1072  0.0045 -0.1708
20872SOL    HW164067   5.384   2.139   1.858  0.6604  0.7512  0.1335
20872SOL    HW264068   5.311   2.038   1.945 -1.7422  1.6315 -0.7744
20873SOL     OW64069   6.214   9.102   2.189  0.5439  0.1268  0.0175
20873SOL    HW164070   6.232   9.116   2.282  0.8047 -0.5579  0.0718
20873SOL    HW264071   6.201   9.190   2.154  1.9544  0.5036  0.3929
20874SOL     OW64072   2.857   6.120   5.810  0.4150 -0.4981  0.5463
20874SOL    HW164073   2.952   6.121   5.807  0.4113  0.9329 -1.6671
20874SOL    HW264074   2.830   6.140   5.720 -1.9790 -0.4744  1.1889
20875SOL     OW64075   7.609   3.505   8.082  0.0432 -0.7773  0.0895
20875SOL    HW164076   7.564   3.425   8.053 -3.0897  0.2921  1.5750
20875SOL    HW264077   7.566   3.529   8.164  3.9673  0.0162  2.1644
20876SOL     OW64078   5.315   6.248   4.299 -0.5503  0.3603 -0.1039
20876SOL    HW164079   5.235   6.200   4.320 -0.3613  0.2985  0.4882
20876SOL    HW264080   5.343   6.286   4.382  0.8651 -0.8747  0.0241
20877SOL     OW64081   5.332   6.717   8.665 -0.3982 -0.3496 -0.5261
20877SOL    HW164082   5.334   6.638   8.719  1.3315 -0.3091 -0.4571
20877SOL    HW264083   5.312   6.788   8.725  1.9125 -0.2480  0.2316
20878SOL     OW64084   9.274   5.565   1.289 -0.5028 -0.3565  0.0071
20878SOL    HW164085   9.189   5.610   1.292 -0.7474 -0.7067 -1.1180
20878SOL    HW264086   9.318   5.603   1.213  0.3466 -0.2083  0.5578
20879SOL     OW64087   4.752   6.006   2.580  0.5312 -0.2720  0.2086
20879SOL    HW164088   4.693   6.073   2.615 -1.1098 -1.3981 -0.2753
20879SOL    HW264089   4.830   6.054   2.554 -0.9251  1.6279 -0.9298
20880SOL     OW64090   1.442   0.695   4.527  0.0117  0.1384 -0.7673
20880SOL    HW164091   1.427   0.766   4.591 -0.9100 -1.3367  0.7363
20880SOL    HW264092   1.418   0.734   4.443  2.6009  2.6024 -0.5140
20881SOL     OW64093   2.930   0.547   4.412 -0.2303 -0.3097  0.1261
20881SOL    HW164094   2.903   0.481   4.475  1.2112  1.1828  2.4368
20881SOL    HW264095   2.881   0.625   4.436  0.9353  0.5066 -0.0621
20882SOL     OW64096   3.041   2.578   0.760 -0.1439  0.2712 -0.2619
20882SOL    HW164097   2.953   2.595   0.727  0.5428 -0.2304 -2.5680
20882SOL    HW264098   3.027   2.531   0.842 -1.9923  1.3710  0.1078
20883SOL     OW64099   0.748   0.257   4.709 -0.1230 -0.1232  0.0163
20883SOL    HW164100   0.837   0.291   4.712  0.1081 -0.7388  0.5650
20883SOL    HW264101   0.698   0.321   4.658  0.6509  0.1796 -0.3630
20884SOL     OW64102   7.566   5.394   6.004 -0.3605 -0.2926 -0.1538
20884SOL    HW164103   7.635   5.455   6.029  0.8633 -0.5164 -2.7059
20884SOL    HW264104   7.523   5.436   5.929 -2.0859 -0.8285  0.4759
20885SOL     OW64105   6.131   7.923   6.240  0.9934  0.1554  0.2952
20885SOL    HW164106   6.046   7.962   6.218 -0.0582 -1.4105  1.4150
20885SOL    HW264107   6.163   7.887   6.157 -1.2740 -2.6154  0.5056
20886SOL     OW64108   3.443   2.576   3.515  0.0486  0.0111  0.9519
20886SOL    HW164109   3.410   2.656   3.474 -0.7580  0.6987  2.8435
20886SOL    HW264110   3.467   2.520   3.441 -3.9063  0.0512 -0.6253
20887SOL     OW64111   4.161   8.971   1.435  0.1637 -0.3610  0.7840
20887SOL    HW164112   4.238   9.027   1.429 -0.3158  0.4723  2.1520
20887SOL    HW264113   4.154   8.948   1.527  0.6543 -3.1645  0.1959
20888SOL     OW64114   7.834   5.227   8.763 -0.5476  0.5145 -0.2265
20888SOL    HW164115   7.872   5.315   8.765 -1.1766  0.8158 -1.1151
20888SOL    HW264116   7.907   5.169   8.784 -0.2686  1.2769  1.0617
20889SOL     OW64117   7.875   6.108   2.001  0.2776  0.2581  0.2455
20889SOL    HW164118   7.814   6.179   1.983 -0.5133 -0.2498  0.9000
20889SOL    HW264119   7.840   6.064   2.078  1.6928  0.2114  0.9007
20890SOL     OW64120   6.467   1.265   6.307  0.0105 -0.0907  0.4155
20890SOL    HW164121   6.471   1.170   6.292  2.0981  0.1849 -1.1145
20890SOL    HW264122   6.396   1.295   6.250  0.6285 -0.5177 -0.6130
20891SOL     OW64123   0.655   0.869   1.030 -0.0636 -0.5106 -0.3680
20891SOL    HW164124   0.640   0.895   0.939  3.1027  1.2232 -0.5382
20891SOL    HW264125   0.708   0.789   1.024  0.6223 -0.0840 -0.0835
20892SOL     OW64126   3.385   6.758   2.592  1.3266 -0.6386 -0.0097
20892SOL    HW164127   3.419   6.690   2.533  2.2365  0.5556 -0.9115
20892SOL    HW264128   3.297   6.777   2.558  1.6461 -0.3233 -0.6721
20893SOL     OW64129   3.310   6.094   5.070 -0.5715 -0.1940 -0.3403
20893SOL    HW164130   3.317   6.181   5.031 -0.3909 -0.3378 -0.6349
20893SOL    HW264131   3.388   6.086   5.125  1.5450 -1.6308 -3.2932
20894SOL     OW64132   3.557   6.369   7.234  0.6012 -0.3516  0.1133
20894SOL    HW164133   3.619   6.321   7.288  0.1070 -1.6521 -0.4384
20894SOL    HW264134   3.611   6.420   7.173  1.1332  0.1610  0.9948
20895SOL     OW64135   6.354   8.472   0.231 -0.0730  0.3240  0.6074
20895SOL    HW164136   6.344   8.423   0.150  0.3164 -1.1168  1.4037
20895SOL    HW264137   6.381   8.560   0.202 -0.4251 -0.0110 -0.8276
20896SOL     OW64138   4.189   6.922   6.660  0.2704 -0.1725  0.0559
20896SOL    HW164139   4.193   6.830   6.686 -0.4731 -0.0558  0.6154
20896SOL    HW264140   4.158   6.920   6.570  2.2544 -0.5506 -0.6734
20897SOL     OW64141   3.577   4.745   4.885 -0.1093  0.0829  0.3126
20897SOL    HW164142   3.659   4.697   4.872 -0.7761 -0.2797 -3.7997
20897SOL    HW264143   3.513   4.678   4.910  0.0834 -0.2360 -0.0507
20898SOL     OW64144   7.251   7.502   3.057 -0.0554  0.2696 -0.5080
20898SOL    HW164145   7.218   7.415   3.083  0.7597  0.0531 -0.1748
20898SOL    HW264146   7.212   7.517   2.971 -1.5071  0.2902  0.1141
20899SOL     OW64147   1.897   8.091   6.845  0.8806 -0.2615  0.0373
20899SOL    HW164148   1.885   8.113   6.753  1.7231 -1.3898 -0.3638
20899SOL    HW264149   1.990   8.071   6.854  0.4240 -2.4859  0.5623
20900SOL     OW64150   7.635   1.607   0.048  0.6433 -0.3233 -0.1853
20900SOL    HW164151   7.670   1.527   0.086 -1.0078  0.1461  2.6110
20900SOL    HW264152   7.589   1.578  -0.031  0.3640 -2.0881  0.5845
20901SOL     OW64153   4.459   2.956   6.698  0.1860  0.7849  0.9328
20901SOL    HW164154   4.379   3.006   6.716  0.9574  2.0029  1.0787
20901SOL    HW264155   4.428   2.875   6.658 -1.3750 -0.3401  4.0963
20902SOL     OW64156   4.048   9.030   4.404 -0.1350  0.1464  0.4528
20902SOL    HW164157   3.980   9.075   4.455 -0.2709  0.1478  0.2724
20902SOL    HW264158   4.015   9.031   4.314  0.8229  1.5467  0.0896
20903SOL     OW64159   4.658   8.637   3.862  0.3056 -0.2792  0.5760
20903SOL    HW164160   4.645   8.700   3.933  0.9204 -0.3446  0.7487
20903SOL    HW264161   4.570   8.622   3.828 -0.1428 -1.0505  2.0009
20904SOL     OW64162   3.201   3.359   8.736  0.4934 -0.0773 -0.5063
20904SOL    HW164163   3.231   3.280   8.692  0.0781 -0.9140  0.6715
20904SOL    HW264164   3.106   3.356   8.731  0.4674  0.2490 -0.2847
20905SOL     OW64165   1.343   7.921   8.060  0.1061 -0.2875  0.3918
20905SOL    HW164166   1.342   7.936   7.965  2.6205 -0.5208  0.2569
20905SOL    HW264167   1.369   7.830   8.070  3.9411  0.7265  1.2089
20906SOL     OW64168   2.549   0.269   0.330 -0.3143 -0.1989  0.8288
20906SOL    HW164169   2.596   0.194   0.364 -1.9120 -1.7634 -0.2310
20906SOL    HW264170   2.596   0.345   0.365  1.4647 -1.6586  1.7760
20907SOL     OW64171   3.444   0.584   6.403 -0.3640 -0.3299 -0.0494
20907SOL    HW164172   3.462   0.660   6.457  0.7041  0.1359 -1.0213
20907SOL    HW264173   3.358   0.603   6.364  1.2714  2.0673 -2.9196
20908SOL     OW64174   1.730   3.099   5.578  0.6196  0.1459  0.5738
20908SOL    HW164175   1.636   3.113   5.570  0.9031  1.5554 -0.8513
20908SOL    HW264176   1.741   3.057   5.663 -1.2671  0.1396  0.8533
20909SOL     OW64177   6.736   6.284   4.203  0.3589  0.1690 -0.3809
20909SOL    HW164178   6.815   6.231   4.196 -0.9004 -1.5453 -2.8041
20909SOL    HW264179   6.687   6.244   4.275  1.4286  0.9914  0.8613
20910SOL     OW64180   3.454   8.458   7.094  0.5809  0.3717 -0.0994
20910SOL    HW164181   3.388   8.490   7.155  0.8326 -0.8180  0.8444
20910SOL    HW264182   3.480   8.535   7.044  0.0450  1.2984  1.0001
20911SOL     OW64183   1.560   2.918   8.237 -0.4956 -0.1980  0.6809
20911SOL    HW164184   1.631   2.981   8.226 -1.1948  0.4362 -0.4434
20911SOL    HW264185   1.482   2.972   8.253 -0.5528 -0.9199  3.2577
20912SOL     OW64186   6.410   6.117   3.525 -0.1919  0.6882 -0.0133
20912SOL    HW164187   6.368   6.190   3.570 -2.2867  0.8638 -2.0313
20912SOL    HW264188   6.431   6.153   3.438  3.8615  0.4500  0.7084
20913SOL     OW64189   2.188   2.562   7.214 -0.8150  0.0174  0.2867
20913SOL    HW164190   2.229   2.647   7.195 -0.6871 -0.0199  0.3924
20913SOL    HW264191   2.200   2.550   7.308 -0.1794 -0.4556  0.1525
20914SOL     OW64192   3.942   0.445   7.732  0.2809 -0.5708  0.2177
20914SOL    HW164193   3.926   0.527   7.685 -0.4414 -0.6993  0.2306
20914SOL    HW264194   3.896   0.457   7.816  0.4192 -0.8752  0.3355
20915SOL     OW64195   2.576   1.999   4.334  0.0218  0.2566  0.5545
20915SOL    HW164196   2.626   1.998   4.253 -0.0979 -2.7993  0.4056
20915SOL    HW264197   2.497   1.949   4.314  0.6243 -1.8237  2.8213
20916SOL     OW64198   5.645   2.988   8.290 -0.0226  0.3521  0.3284
20916SOL    HW164199   5.652   2.893   8.297  1.1285  0.5124  1.7119
20916SOL    HW264200   5.674   3.008   8.201  1.1932 -0.4672  0.5220
20917SOL     OW64201   5.214   4.051   7.013  0.0910 -0.2205 -0.3388
20917SOL    HW164202   5.295   4.059   6.964  0.2012 -0.7118 -0.2402
20917SOL    HW264203   5.239   4.005   7.094 -0.2198 -0.0662 -0.1516
20918SOL     OW64204   0.211   2.342   1.674  0.5796  0.4149  0.0664
20918SOL    HW164205   0.156   2.271   1.642  1.3622  1.1651 -3.3492
20918SOL    HW264206   0.162   2.422   1.652  1.4702  1.0109  0.1823
20919SOL     OW64207   1.757   7.782   9.030 -0.6529  0.4104  0.0858
20919SOL    HW164208   1.760   7.762   9.123 -0.0550 -0.3751 -0.0922
20919SOL    HW264209   1.697   7.717   8.993  0.4003 -0.3618 -0.3196
20920SOL     OW64210   3.696   0.863   7.911 -0.3626  0.0532 -0.2755
20920SOL    HW164211   3.773   0.890   7.960 -0.5306  2.0147 -0.9770
20920SOL    HW264212   3.622   0.884   7.968 -0.4314 -0.5968 -0.1238
20921SOL     OW64213   9.241   6.696   6.269 -0.4062 -0.3261  0.0010
20921SOL    HW164214   9.229   6.696   6.364 -0.1796 -0.6950  0.0307
20921SOL    HW264215   9.192   6.772   6.238 -1.7295 -1.0484  0.2611
20922SOL     OW64216   7.153   2.228   4.786 -0.6473 -0.0677 -0.5092
20922SOL    HW164217   7.110   2.293   4.842  0.3166 -0.0738  0.2696
20922SOL    HW264218   7.237   2.211   4.829  0.5789  0.6566 -2.4899
20923SOL     OW64219   2.510   5.200   3.255  0.0060  0.6697  0.1546
20923SOL    HW164220   2.555   5.284   3.253  1.0338  0.1695  1.0892
20923SOL    HW264221   2.580   5.135   3.248 -0.7989 -0.1263 -0.9684
20924SOL     OW64222   4.545   8.789   1.314  0.7319  0.6216 -0.8656
20924SOL    HW164223   4.623   8.736   1.298 -0.0128 -0.7775  0.0141
20924SOL    HW264224   4.546   8.854   1.243  2.4940  0.4294 -1.0730
20925SOL     OW64225   2.577   0.492   1.302  0.9983  0.6244 -0.2369
20925SOL    HW164226   2.589   0.519   1.211  0.3158  1.5158 -0.0739
20925SOL    HW264227   2.497   0.440   1.301 -0.8192  3.2584  0.3320
20926SOL     OW64228   0.491   7.575   3.191  0.3994 -0.3170  0.4882
20926SOL    HW164229   0.507   7.648   3.252  0.9043  0.6226 -0.7212
20926SOL    HW264230   0.571   7.524   3.192  0.0066 -0.9417  1.4194
20927SOL     OW64231   0.787   7.204   3.028 -0.6541  0.7466  0.7051
20927SOL    HW164232   0.853   7.136   3.019 -1.9946 -0.6271  0.7925
20927SOL    HW264233   0.712   7.160   3.069 -1.4914  2.3278  0.9734
20928SOL     OW64234   1.554   8.052   4.602  0.5808 -0.0970  0.2919
20928SOL    HW164235   1.560   7.957   4.612  0.4272 -0.0369  1.0444
20928SOL    HW264236   1.464   8.072   4.628  0.4319  0.1880 -0.4446
20929SOL     OW64237   2.167   2.215   5.080  0.2189  0.6211  0.3409
20929SOL    HW164238   2.181   2.154   5.152 -0.9021 -0.8618 -0.6545
20929SOL    HW264239   2.225   2.184   5.010 -0.7310  0.3492 -0.3503
20930SOL     OW64240   6.466   0.485   5.145  0.4034 -0.2956  0.0510
20930SOL    HW164241   6.433   0.574   5.137  3.5712  0.8684 -2.2642
20930SOL    HW264242   6.498   0.479   5.235 -1.1109  0.3465  0.6705
20931SOL     OW64243   5.117   5.486   1.227 -0.1621  0.1435  0.4501
20931SOL    HW164244   5.161   5.405   1.253 -0.9364 -0.2920  0.4129
20931SOL    HW264245   5.081   5.521   1.308  1.1043  1.0412  0.6584
20932SOL     OW64246   7.278   7.938   6.490  0.1974  0.1139 -0.2621
20932SOL    HW164247   7.222   7.988   6.549  2.1233  1.3945  0.5552
20932SOL    HW264248   7.287   7.993   6.412  0.9845  0.3240 -0.0347
20933SOL     OW64249   8.902   8.638   2.953 -0.6666 -0.2892  0.5974
20933SOL    HW164250   8.849   8.678   2.884 -0.8344  1.1834  1.5212
20933SOL    HW264251   8.992   8.664   2.932 -0.4824 -1.3847 -0.0484
20934SOL     OW64252   2.371   2.329   0.124  0.1062  0.1656  0.1394
20934SOL    HW164253   2.417   2.404   0.087 -1.0017  0.1894 -1.2959
20934SOL    HW264254   2.303   2.368   0.179  2.0940  0.1310  2.8344
20935SOL     OW64255   6.114   2.735   3.595 -0.1389 -0.1898  0.2161
20935SOL    HW164256   6.087   2.721   3.686  0.0870 -1.7346  0.0717
20935SOL    HW264257   6.076   2.820   3.571 -0.8962 -0.1501  1.4794
20936SOL     OW64258   0.023   4.152   0.437  0.1320  0.0124  0.1609
20936SOL    HW164259  -0.046   4.174   0.500 -0.3340  0.7233 -0.5693
20936SOL    HW264260   0.081   4.228   0.437 -0.6856  0.7007 -1.3170
20937SOL     OW64261   0.137   7.124   5.696 -0.2534 -0.4282  0.3630
20937SOL    HW164262   0.127   7.030   5.710  1.3954 -1.0025 -1.7685
20937SOL    HW264263   0.048   7.158   5.699 -0.9305 -2.1041  0.8052
20938SOL     OW64264   8.057   3.805   9.224  0.0963  0.4029  0.3387
20938SOL    HW164265   8.058   3.758   9.141  0.5781 -0.0071  0.5626
20938SOL    HW264266   8.142   3.783   9.264  0.2593  1.3356  0.5242
20939SOL     OW64267   7.712   6.176   3.450  0.5469  0.2428 -0.1569
20939SOL    HW164268   7.703   6.085   3.479  1.7014  0.5645  1.2730
20939SOL    HW264269   7.637   6.221   3.489  0.6927  0.1692  0.2066
20940SOL     OW64270   8.091   6.573   6.258  0.4183 -0.0248  0.5655
20940SOL    HW164271   8.047   6.505   6.208  3.0003 -1.5240  0.1347
20940SOL    HW264272   8.126   6.633   6.193  0.5158  0.1805  0.8036
20941SOL     OW64273   8.492   6.282   1.801 -0.7169 -0.8173  0.0542
20941SOL    HW164274   8.548   6.313   1.731  0.1095 -1.6797  0.3047
20941SOL    HW264275   8.432   6.220   1.759 -2.3406  1.0035 -0.4372
20942SOL     OW64276   4.085   2.121   7.174  0.0242 -0.2542  0.2585
20942SOL    HW164277   4.152   2.061   7.140 -1.0850 -0.6377 -1.3566
20942SOL    HW264278   4.135   2.195   7.208  1.5039 -2.3720  3.1374
20943SOL     OW64279   5.344   7.676   4.800  0.3776 -0.6553  0.0967
20943SOL    HW164280   5.334   7.717   4.715  1.8299 -0.5035 -0.0361
20943SOL    HW264281   5.328   7.583   4.784  0.6308 -0.6241 -0.3396
20944SOL     OW64282   1.463   5.341   8.106 -0.4253  0.4551 -0.7110
20944SOL    HW164283   1.369   5.344   8.091 -0.0125  0.4851 -4.3013
20944SOL    HW264284   1.495   5.427   8.077  0.7532  0.3563  0.2001
20945SOL     OW64285   4.601   5.609   4.188 -0.7123  0.0239 -0.7509
20945SOL    HW164286   4.581   5.672   4.257 -0.0640  0.5471 -1.0251
20945SOL    HW264287   4.644   5.661   4.120 -0.2169 -0.7032 -1.0068
20946SOL     OW64288   0.918   4.879   1.418  0.1532 -0.3083 -0.0261
20946SOL    HW164289   0.849   4.813   1.427 -0.1648  0.1824  1.5472
20946SOL    HW264290   0.988   4.835   1.371 -0.3645 -1.5292  0.3029
20947SOL     OW64291   5.252   7.219   8.389  0.0172 -0.6037 -0.1907
20947SOL    HW164292   5.165   7.258   8.388 -0.6252 -1.9498  0.2691
20947SOL    HW264293   5.245   7.147   8.452  2.1049  0.6256  1.5927
20948SOL     OW64294   7.795   8.335   3.484 -0.3046 -0.2295 -0.1898
20948SOL    HW164295   7.739   8.412   3.498 -0.8019 -0.3566 -1.3793
20948SOL    HW264296   7.788   8.286   3.565  0.4418  1.2314  0.8036
20949SOL     OW64297   3.716   1.998   7.335 -0.7043 -0.5678 -0.0675
20949SOL    HW164298   3.730   1.916   7.287 -0.3040  1.0104 -2.7953
20949SOL    HW264299   3.775   1.991   7.411  0.1058 -2.3302 -0.7943
20950SOL     OW64300   0.364   1.659   1.651 -0.1552  0.4252 -0.1480
20950SOL    HW164301   0.397   1.742   1.617 -0.8804  0.8783  0.2331
20950SOL    HW264302   0.303   1.627   1.585 -0.4955  0.6033  0.0793
20951SOL     OW64303   5.573   1.820   2.436  0.1023  0.7010 -0.2730
20951SOL    HW164304   5.532   1.845   2.353  1.4038 -0.8291 -1.4480
20951SOL    HW264305   5.597   1.903   2.477 -1.1364  1.5138 -1.0992
20952SOL     OW64306   5.585   0.362   4.828 -0.0334 -0.7033  0.5864
20952SOL    HW164307   5.662   0.330   4.876  0.0907  0.5506  1.2688
20952SOL    HW264308   5.512   0.312   4.863  0.4846 -2.1864 -0.3327
20953SOL     OW64309   6.455   5.006   4.984 -0.4867 -0.1327 -0.3546
20953SOL    HW164310   6.446   5.062   4.907 -0.2535 -1.9174 -1.7346
20953SOL    HW264311   6.467   4.918   4.949 -1.3372 -1.1602  1.7450
20954SOL     OW64312   8.190   8.428   0.821  0.6606 -0.0363  0.1470
20954SOL    HW164313   8.196   8.405   0.914 -0.1861  1.3515  0.5788
20954SOL    HW264314   8.218   8.349   0.775  0.7790 -0.8629  1.5692
20955SOL     OW64315   6.039   3.612   3.186 -0.1821  0.0184 -0.1950
20955SOL    HW164316   5.975   3.678   3.159 -0.8076 -0.3660  0.3165
20955SOL    HW264317   6.107   3.617   3.120 -0.7952  0.3594 -0.8167
20956SOL     OW64318   7.164   1.068   9.078 -0.0427 -0.2662  0.2070
20956SOL    HW164319   7.202   1.106   9.000 -2.1621  2.0375  0.1900
20956SOL    HW264320   7.190   1.126   9.149 -1.2318 -0.1954  0.6061
20957SOL     OW64321   6.540   8.200   6.122 -0.2197  0.2384  0.0672
20957SOL    HW164322   6.445   8.194   6.127 -0.2551  0.5800 -0.1506
20957SOL    HW264323   6.572   8.134   6.184 -0.6001  0.2964  0.3253
20958SOL     OW64324   3.472   2.048   1.357 -0.4853 -0.4153 -0.1158
20958SOL    HW164325   3.501   2.139   1.348 -0.4871 -0.4224 -0.1915
20958SOL    HW264326   3.377   2.052   1.350 -0.5218 -0.3578  0.4156
20959SOL     OW64327   5.742   1.743   4.671 -0.4421  0.6160  0.6328
20959SOL    HW164328   5.654   1.746   4.707  0.1444  2.0143  2.0283
20959SOL    HW264329   5.791   1.810   4.719  1.3248  0.0496 -0.2746
20960SOL     OW64330   1.082   5.818   3.270  0.1659 -0.4946 -0.0409
20960SOL    HW164331   1.080   5.774   3.355 -0.8328  1.4690  1.0086
20960SOL    HW264332   1.173   5.844   3.258  0.4482 -1.3977  0.0685
20961SOL     OW64333   4.884   5.962   6.502  0.1770  0.4318 -0.2863
20961SOL    HW164334   4.906   5.957   6.595  1.1695  0.9419 -0.4777
20961SOL    HW264335   4.830   6.042   6.494  0.3585  0.5638 -0.1970
20962SOL     OW64336   7.663   3.514   4.902  0.3315  0.1743  0.4243
20962SOL    HW164337   7.685   3.597   4.859 -0.4413  0.5945  0.8157
20962SOL    HW264338   7.728   3.452   4.869  1.0457  0.9786  0.2782
20963SOL     OW64339   7.526   7.894   2.282  0.0272  0.6178  0.3241
20963SOL    HW164340   7.534   7.966   2.344  0.6000  1.8269 -1.1012
20963SOL    HW264341   7.484   7.824   2.333 -0.3393  1.8459  1.8108
20964SOL     OW64342   3.019   4.552   3.947  0.2664  0.0474 -0.5327
20964SOL    HW164343   3.019   4.636   3.993 -2.1404  0.0350 -0.4081
20964SOL    HW264344   3.045   4.489   4.013 -0.0889  0.4226 -0.0298
20965SOL     OW64345   3.148   7.487   0.784 -0.5264  0.0584  0.3607
20965SOL    HW164346   3.105   7.503   0.868 -1.0246  0.3911  0.0549
20965SOL    HW264347   3.092   7.531   0.720 -0.0850 -0.0787 -0.1320
20966SOL     OW64348   0.431   6.788   0.753 -0.6553  0.0349 -0.1843
20966SOL    HW164349   0.518   6.799   0.792 -1.1635  1.0625  0.7210
20966SOL    HW264350   0.421   6.694   0.741 -0.0426 -0.2238  1.1841
20967SOL     OW64351   3.537   2.277   1.722  0.7026 -0.5583  0.1701
20967SOL    HW164352   3.536   2.183   1.705 -0.2653 -0.3740 -0.9659
20967SOL    HW264353   3.466   2.291   1.785  0.3910 -0.5117 -0.1873
20968SOL     OW64354   0.915   7.053   1.631  0.7014  0.0319 -0.3693
20968SOL    HW164355   0.988   7.109   1.605  0.6863  0.8627  1.2663
20968SOL    HW264356   0.837   7.105   1.613  0.5153 -0.5978 -1.4886
20969SOL     OW64357   6.482   9.219   7.228 -0.7883  0.2894  0.1660
20969SOL    HW164358   6.428   9.262   7.162 -0.0527 -0.2276 -0.7962
20969SOL    HW264359   6.569   9.258   7.217 -0.7186  0.3832  1.0061
20970SOL     OW64360   1.612   3.597   3.947  0.2735 -0.4818  0.0602
20970SOL    HW164361   1.683   3.578   4.009 -0.2353 -0.9387  0.5217
20970SOL    HW264362   1.547   3.644   3.999 -0.1377 -0.8278 -0.1312
20971SOL     OW64363   4.580   6.860   2.186 -0.0047  0.0750  0.2587
20971SOL    HW164364   4.639   6.819   2.250 -0.0404  1.8378  1.4887
20971SOL    HW264365   4.503   6.884   2.237  0.1280  1.8726 -0.3277
20972SOL     OW64366   5.021   5.323   8.392 -0.4073 -0.8723 -0.4244
20972SOL    HW164367   5.057   5.393   8.337 -3.0575  1.1052  0.1609
20972SOL    HW264368   4.994   5.255   8.331  1.4561 -1.1095 -1.0688
20973SOL     OW64369   7.240   4.111   4.066  0.4416 -0.0940 -0.1094
20973SOL    HW164370   7.315   4.154   4.026  0.6000  0.5730  0.8879
20973SOL    HW264371   7.254   4.119   4.160 -1.0315  0.3236  0.1002
20974SOL     OW64372   0.499   5.390   8.689  0.0156 -0.3375  0.1039
20974SOL    HW164373   0.413   5.352   8.711  0.5639 -1.6175  0.1575
20974SOL    HW264374   0.519   5.449   8.761 -0.6088 -0.4040  0.3370
20975SOL     OW64375   4.168   8.382   3.570 -0.5323 -0.2903 -0.0266
20975SOL    HW164376   4.158   8.294   3.608 -2.1175 -0.3996 -0.6333
20975SOL    HW264377   4.112   8.438   3.624  0.9914  0.5251  0.7863
20976SOL     OW64378   8.023   3.663   8.056 -0.5560 -0.1649  1.0361
20976SOL    HW164379   8.067   3.658   7.972 -3.4014 -0.9910 -0.5393
20976SOL    HW264380   8.066   3.736   8.101  2.1791 -0.7847 -0.3570
20977SOL     OW64381   5.040   5.470   2.585  0.3551 -0.5071  0.1041
20977SOL    HW164382   5.019   5.558   2.553 -2.3444 -1.8107 -2.2416
20977SOL    HW264383   4.954   5.431   2.604  1.3470 -3.0622 -0.2778
20978SOL     OW64384   1.792   6.843   0.085  0.7211  0.0001 -0.0028
20978SOL    HW164385   1.804   6.777   0.017 -0.7054 -1.1242  0.7737
20978SOL    HW264386   1.787   6.793   0.167  0.9834  1.1969  0.7690
20979SOL     OW64387   4.516   4.282   5.775  0.3751 -0.2490  0.1885
20979SOL    HW164388   4.571   4.319   5.844  0.4196  1.4229 -0.7130
20979SOL    HW264389   4.440   4.340   5.770 -0.7765 -1.6685  0.3751
20980SOL     OW64390   5.234   0.362   9.275 -0.0022  0.0737  0.5813
20980SOL    HW164391   5.156   0.382   9.326 -0.2410  1.1899 -0.1941
20980SOL    HW264392   5.304   0.357   9.341 -0.3014  1.4855  1.0567
20981SOL     OW64393   1.090   6.390   7.009  0.5098  0.2632  0.0559
20981SOL    HW164394   1.086   6.331   6.934  1.0546  1.2511 -0.7810
20981SOL    HW264395   1.006   6.436   7.007  0.8395  0.8600 -0.4480
20982SOL     OW64396   6.958   1.828   4.607  0.1232 -0.1610 -0.0132
20982SOL    HW164397   7.006   1.910   4.623 -0.4608  0.3664 -0.8789
20982SOL    HW264398   6.867   1.855   4.598 -0.1135 -0.9498 -0.0606
20983SOL     OW64399   8.287   2.984   2.466  0.3738  0.3760 -0.2407
20983SOL    HW164400   8.310   3.046   2.535 -1.4688  1.5815 -0.6481
20983SOL    HW264401   8.241   2.913   2.512  1.5423 -0.2110  0.0790
20984SOL     OW64402   8.016   6.075   2.421 -0.3410 -0.0774 -0.2931
20984SOL    HW164403   7.933   6.034   2.395 -1.0607 -0.4894  2.4084
20984SOL    HW264404   8.071   6.067   2.343 -3.0104  0.8739 -2.4909
20985SOL     OW64405   6.391   4.513   2.033 -0.0470 -0.3860  0.1022
20985SOL    HW164406   6.407   4.607   2.038  1.1483 -0.6398  3.4544
20985SOL    HW264407   6.310   4.500   2.083 -1.6382 -0.9584 -2.4546
20986SOL     OW64408   0.923   6.236   2.881  0.4502 -0.6587  0.5665
20986SOL    HW164409   0.985   6.256   2.812 -0.7166  0.4721 -0.2157
20986SOL    HW264410   0.945   6.298   2.951 -1.5128  1.8617 -0.8432
20987SOL     OW64411   3.765   5.214   4.437 -0.2634  0.3734  0.4813
20987SOL    HW164412   3.789   5.306   4.449  0.0925 -0.0237  3.7560
20987SOL    HW264413   3.847   5.171   4.413 -0.0151  0.6480  0.8248
20988SOL     OW64414   1.405   4.682   6.321  0.8807  0.6449  0.3977
20988SOL    HW164415   1.411   4.739   6.398 -0.4673 -0.4428  1.3573
20988SOL    HW264416   1.369   4.600   6.355  0.0979  0.1907 -1.4242
20989SOL     OW64417   7.880   6.945   2.541  0.1803  0.0322  0.1994
20989SOL    HW164418   7.880   7.040   2.554  2.3695 -0.0181  1.1005
20989SOL    HW264419   7.808   6.913   2.594  0.0218  1.1189  0.6635
20990SOL     OW64420   2.539   7.754   6.758  0.0943  0.3377 -0.7005
20990SOL    HW164421   2.612   7.805   6.724  2.4314 -2.7077 -0.7687
20990SOL    HW264422   2.549   7.758   6.853 -0.4316  0.9115 -0.6646
20991SOL     OW64423   1.702   8.027   7.497 -0.1721 -0.3992 -0.9346
20991SOL    HW164424   1.701   7.965   7.424  0.6659 -1.2448 -0.2541
20991SOL    HW264425   1.709   8.113   7.456  1.0897 -0.9071 -1.8283
20992SOL     OW64426   6.334   6.852   2.600  0.4279  0.0531 -0.4132
20992SOL    HW164427   6.351   6.799   2.679 -1.2138 -0.7176 -0.5445
20992SOL    HW264428   6.252   6.817   2.565  0.9732  0.5760 -2.3208
20993SOL     OW64429   0.384   0.831   5.843 -0.9930  0.2695 -0.1487
20993SOL    HW164430   0.403   0.760   5.782 -1.0139 -2.0009  2.2856
20993SOL    HW264431   0.317   0.883   5.799 -1.2978 -1.4708 -1.9031
20994SOL     OW64432   3.395   8.849   0.082  0.3874  0.6410  0.3855
20994SOL    HW164433   3.460   8.875   0.017 -0.7612  2.6384 -0.0376
20994SOL    HW264434   3.386   8.925   0.139 -1.0192  0.1244  0.9029
20995SOL     OW64435   1.953   7.433   8.290 -0.1258  0.4083 -0.0775
20995SOL    HW164436   1.922   7.346   8.316  0.3944 -0.0567 -0.9743
20995SOL    HW264437   1.941   7.436   8.195  4.7300 -0.7988 -1.0209
20996SOL     OW64438   8.473   3.845   9.025  0.0848 -0.0901  0.1469
20996SOL    HW164439   8.520   3.790   9.088 -0.4763  0.8175  1.3849
20996SOL    HW264440   8.460   3.928   9.070 -0.7528  0.4280 -0.9991
20997SOL     OW64441   4.847   1.509   2.079  0.0674  0.3885 -0.0938
20997SOL    HW164442   4.752   1.511   2.090 -0.0909 -0.3508 -1.1586
20997SOL    HW264443   4.875   1.433   2.130 -0.0549 -0.0553 -0.6798
20998SOL     OW64444   1.782   9.072   3.887  0.7960  0.1236 -0.2471
20998SOL    HW164445   1.694   9.091   3.922  0.3311  0.4887 -1.5605
20998SOL    HW264446   1.802   8.984   3.920  1.1751  1.1111  2.4144
20999SOL     OW64447   1.590   5.792   6.993  0.0821 -0.5834 -0.1560
20999SOL    HW164448   1.637   5.864   6.949  1.8995 -0.4000  1.9161
20999SOL    HW264449   1.554   5.832   7.072 -1.8137 -1.2603 -0.6157
21000SOL     OW64450   7.851   1.827   6.121  0.2703  0.2884 -0.4926
21000SOL    HW164451   7.772   1.773   6.110 -0.3126  1.1171 -0.4312
21000SOL    HW264452   7.828   1.912   6.085  1.3573  0.3647 -1.0573
21001SOL     OW64453   2.168   6.907   3.117 -0.5001 -0.6627 -0.0515
21001SOL    HW164454   2.110   6.888   3.191  1.2295 -1.4734  1.1609
21001SOL    HW264455   2.156   6.833   3.058 -0.3420 -1.0918  0.4438
21002SOL     OW64456   4.456   8.848   6.513 -0.1998 -0.1324  0.2112
21002SOL    HW164457   4.448   8.799   6.595 -1.7731  1.6437  1.2283
21002SOL    HW264458   4.390   8.810   6.455  1.4268 -1.8861 -0.5561
21003SOL     OW64459   8.839   3.809   6.863  0.1243  0.2885  0.0932
21003SOL    HW164460   8.848   3.849   6.777  1.1326 -0.2342 -0.0542
21003SOL    HW264461   8.887   3.867   6.922 -0.9624  0.9011  0.3990
21004SOL     OW64462   1.501   0.844   0.348  0.6193  0.5874 -0.2925
21004SOL    HW164463   1.571   0.843   0.414  1.2325 -2.6800 -0.8152
21004SOL    HW264464   1.544   0.816   0.267 -1.0768 -0.5083 -0.8681
21005SOL     OW64465   6.631   5.793   7.340 -0.5821  0.2254 -0.0502
21005SOL    HW164466   6.596   5.722   7.285  0.2481  0.5707 -1.0592
21005SOL    HW264467   6.632   5.756   7.428 -1.8694 -0.3739 -0.2642
21006SOL     OW64468   3.224   5.059   0.248  0.0755  0.3213 -0.5182
21006SOL    HW164469   3.182   5.073   0.333  3.3211  0.5736  1.2206
21006SOL    HW264470   3.166   4.998   0.203 -2.0858  0.6181  1.6229
21007SOL     OW64471   4.071   6.861   3.156  0.3529 -0.0290  0.1569
21007SOL    HW164472   4.021   6.937   3.188 -1.7134 -1.2466  0.0040
21007SOL    HW264473   4.007   6.809   3.108  1.9044 -1.4985 -0.4118
21008SOL     OW64474   4.164   1.713   2.195 -0.0724 -0.1197 -0.1438
21008SOL    HW164475   4.073   1.731   2.218  0.1721 -0.6622  1.3683
21008SOL    HW264476   4.204   1.799   2.184 -0.6659  0.1264 -0.4467
21009SOL     OW64477   2.860   6.859   2.210  0.0438 -0.1977 -0.6745
21009SOL    HW164478   2.914   6.836   2.286  1.5464 -0.6562 -1.8171
21009SOL    HW264479   2.921   6.902   2.150 -1.4532  1.6012 -0.9917
21010SOL     OW64480   1.309   3.967   9.016 -0.3562 -0.0464  0.0280
21010SOL    HW164481   1.286   3.950   9.107 -1.6449 -0.2860 -0.3192
21010SOL    HW264482   1.319   4.062   9.011  0.0914 -0.0653  0.4957
21011SOL     OW64483   2.798   0.322   1.331  0.1455  0.8832  0.0230
21011SOL    HW164484   2.802   0.271   1.412 -0.7776 -1.6227 -1.3993
21011SOL    HW264485   2.722   0.378   1.341  0.2110  0.8029  1.0026
21012SOL     OW64486   5.759   4.953   8.592  0.2251 -0.3787  0.1212
21012SOL    HW164487   5.739   5.018   8.660  0.3801 -0.3303  0.1224
21012SOL    HW264488   5.804   5.004   8.524  0.3010 -0.4754  0.0994
21013SOL     OW64489   8.249   8.858   5.737 -0.4314 -0.4224  0.1801
21013SOL    HW164490   8.227   8.805   5.813 -0.2331  0.7402  1.0615
21013SOL    HW264491   8.337   8.830   5.713  0.1673  0.3399  1.4000
21014SOL     OW64492   5.386   3.747   6.200  0.1518 -0.1992 -0.3783
21014SOL    HW164493   5.420   3.774   6.285 -1.9371  0.2016  0.3744
21014SOL    HW264494   5.303   3.793   6.191 -0.1169 -0.9569 -2.2331
21015SOL     OW64495   3.326   3.147   7.220 -0.0786  0.1260  0.2223
21015SOL    HW164496   3.282   3.230   7.203  0.1974  0.3142  0.4064
21015SOL    HW264497   3.402   3.171   7.273 -0.7480 -0.3924  1.4672
21016SOL     OW64498   2.698   1.914   9.147 -0.0530 -0.0109  0.8813
21016SOL    HW164499   2.751   1.836   9.160  0.2215 -0.4290 -1.9399
21016SOL    HW264500   2.744   1.983   9.194  2.1706 -0.6942 -0.1570
21017SOL     OW64501   0.026   2.634   0.340  0.4529 -0.2849 -0.2384
21017SOL    HW164502   0.064   2.558   0.384 -0.4365 -0.0854  0.9274
21017SOL    HW264503   0.026   2.703   0.406 -1.0204 -0.0037 -0.4834
21018SOL     OW64504   4.173   2.453   3.458  0.1234 -0.1655 -0.3133
21018SOL    HW164505   4.248   2.457   3.517 -1.8904  0.1884  2.4189
21018SOL    HW264506   4.174   2.363   3.424  1.4176 -0.3421  0.1425
21019SOL     OW64507   8.625   8.223   8.551 -0.3423 -0.2189 -0.1755
21019SOL    HW164508   8.580   8.246   8.470 -0.3582  0.0031 -0.1026
21019SOL    HW264509   8.684   8.297   8.568 -0.9094  0.1017  0.4393
21020SOL     OW64510   5.503   8.973   1.180 -0.1072 -0.7907  0.6730
21020SOL    HW164511   5.598   8.983   1.181 -0.0826 -1.0158  0.6399
21020SOL    HW264512   5.473   9.041   1.119  0.0750 -1.0476  0.2883
21021SOL     OW64513   8.346   4.233   4.244 -1.0933  0.2785  0.2542
21021SOL    HW164514   8.429   4.279   4.230 -0.4368 -0.4790  1.4852
21021SOL    HW264515   8.323   4.199   4.158  0.7727 -0.9529  0.1829
21022SOL     OW64516   7.976   4.816   6.244 -0.3806 -0.9874  0.4652
21022SOL    HW164517   7.930   4.874   6.303 -1.5722 -0.6295 -0.7661
21022SOL    HW264518   8.018   4.874   6.180 -0.8542 -1.4184 -0.2601
21023SOL     OW64519   6.997   3.267   3.832  0.3037 -0.2027  0.7236
21023SOL    HW164520   6.978   3.345   3.780  0.5843  0.2837  1.3405
21023SOL    HW264521   7.013   3.198   3.767 -1.0291 -0.0249  0.1772
21024SOL     OW64522   5.114   3.323   1.834 -0.2036  0.3388 -0.0763
21024SOL    HW164523   5.193   3.363   1.870 -0.5425  0.3831  0.6192
21024SOL    HW264524   5.063   3.296   1.910 -0.5130 -0.3794 -0.5251
21025SOL     OW64525   7.931   0.450   5.650 -0.0379 -0.3895 -0.4814
21025SOL    HW164526   7.967   0.433   5.563 -1.2690 -2.8660 -0.5855
21025SOL    HW264527   7.949   0.370   5.700 -2.9384 -0.7419  0.2290
21026SOL     OW64528   2.499   0.261   6.724 -0.4884 -0.0250  0.0416
21026SOL    HW164529   2.495   0.200   6.797 -0.0365 -0.0534  0.0493
21026SOL    HW264530   2.444   0.335   6.750 -0.4945 -0.1292  0.3201
21027SOL     OW64531   4.530   7.410   1.178  0.0720 -0.5026  0.3058
21027SOL    HW164532   4.524   7.433   1.086  1.0021  1.5053  0.6760
21027SOL    HW264533   4.489   7.484   1.224  2.1561 -0.0292  1.5541
21028SOL     OW64534   5.931   6.625   6.063  0.0233 -0.0432  0.0873
21028SOL    HW164535   6.002   6.562   6.052 -0.8755 -1.1328  0.3698
21028SOL    HW264536   5.965   6.707   6.027  0.8575 -0.9324 -1.2127
21029SOL     OW64537   6.198   2.157   5.521  0.4638 -0.1802  0.6465
21029SOL    HW164538   6.269   2.093   5.520  1.2469  0.6699 -0.3043
21029SOL    HW264539   6.232   2.232   5.472 -0.2713  1.1343  2.0544
21030SOL     OW64540   9.117   8.538   6.029 -0.6336  0.3524 -0.3497
21030SOL    HW164541   9.070   8.621   6.040 -0.7284  0.2447  0.0645
21030SOL    HW264542   9.181   8.537   6.100  1.2681  1.3345 -1.9339
21031SOL     OW64543   8.788   6.089   1.037  0.1837 -0.5796  0.6355
21031SOL    HW164544   8.795   6.052   0.948  1.0418 -0.3024  0.5856
21031SOL    HW264545   8.756   6.178   1.023  0.6919 -0.4063  0.5803
21032SOL     OW64546   2.407   7.796   2.102 -0.1458  0.6590 -0.1292
21032SOL    HW164547   2.405   7.846   2.020 -1.5438  2.3583  0.8687
21032SOL    HW264548   2.486   7.827   2.146 -0.4385  1.2209  0.0122
21033SOL     OW64549   8.483   8.890   1.674  0.7990 -0.4030  0.0361
21033SOL    HW164550   8.494   8.985   1.675 -1.1494 -0.1224  2.2234
21033SOL    HW264551   8.570   8.855   1.695  1.3357  0.9144  0.0645
21034SOL     OW64552   2.096   6.021   8.929  0.5731  0.2766  0.1908
21034SOL    HW164553   2.029   5.996   8.992 -0.7992 -0.1681 -1.3885
21034SOL    HW264554   2.047   6.059   8.856  2.1406  1.0585 -0.4956
21035SOL     OW64555   1.392   6.624   7.753 -0.0071  0.2157  0.4657
21035SOL    HW164556   1.342   6.554   7.796 -0.8272 -0.0657 -0.9020
21035SOL    HW264557   1.472   6.632   7.806  0.1900 -1.8571  0.5708
21036SOL     OW64558   5.343   4.921   5.556 -0.2332  0.0592  0.6094
21036SOL    HW164559   5.366   4.829   5.544  1.7745  0.8179 -2.6081
21036SOL    HW264560   5.422   4.962   5.591  0.0186  1.0422 -1.0212
21037SOL     OW64561   4.511   4.103   0.171  0.0166 -0.0368 -0.5118
21037SOL    HW164562   4.418   4.097   0.149 -0.2565 -0.2037  0.6174
21037SOL    HW264563   4.528   4.197   0.176 -0.7938  0.0609  1.9032
21038SOL     OW64564   3.318   3.042   4.524  0.3076  0.0215  0.4812
21038SOL    HW164565   3.380   3.041   4.597  1.5834 -0.5653 -0.5530
21038SOL    HW264566   3.367   3.002   4.452 -1.4349 -0.8182 -0.2745
21039SOL     OW64567   8.660   3.072   2.886 -0.3330 -0.5591 -0.1101
21039SOL    HW164568   8.660   3.047   2.793 -1.1553 -3.5570  0.5933
21039SOL    HW264569   8.576   3.117   2.897  0.2347  0.8003 -0.9785
21040SOL     OW64570   2.521   2.956   3.860 -0.2326  0.2164 -0.1100
21040SOL    HW164571   2.449   2.916   3.812 -2.6032  0.8735  2.5956
21040SOL    HW264572   2.572   2.881   3.893 -0.1343 -0.2754 -1.3175
21041SOL     OW64573   3.318   0.966   6.914 -0.5089  0.5195 -0.5405
21041SOL    HW164574   3.354   0.921   6.990 -1.1252 -0.1970 -0.6531
21041SOL    HW264575   3.287   0.895   6.857 -0.7616  1.0688 -1.1017
21042SOL     OW64576   0.543   4.180   7.209  0.2888 -0.0059  0.1905
21042SOL    HW164577   0.458   4.178   7.253 -0.0421 -2.2444 -0.4224
21042SOL    HW264578   0.606   4.158   7.278 -0.2402 -3.6081 -0.2728
21043SOL     OW64579   4.871   0.670   3.939  0.1649  0.2309  0.3503
21043SOL    HW164580   4.841   0.639   4.024  0.2351  0.2976  0.3996
21043SOL    HW264581   4.833   0.758   3.932 -1.2063 -0.3828 -0.3916
21044SOL     OW64582   2.112   1.518   8.770  0.4281 -0.3459  0.9355
21044SOL    HW164583   2.166   1.541   8.845  0.3565  0.0110  0.8780
21044SOL    HW264584   2.103   1.599   8.720 -1.8125  0.1233  1.9785
21045SOL     OW64585   2.473   6.773   2.253  0.4301  0.6699  0.5043
21045SOL    HW164586   2.411   6.744   2.186  1.7646  0.6225 -0.7613
21045SOL    HW264587   2.436   6.856   2.285  0.2668  1.2310 -1.0469
21046SOL     OW64588   2.519   0.164   0.756 -0.3638 -0.6288 -0.4009
21046SOL    HW164589   2.554   0.227   0.693  2.5084 -1.4472  0.2082
21046SOL    HW264590   2.558   0.080   0.729 -0.2103 -1.2419  1.5692
21047SOL     OW64591   5.419   3.040   5.306 -0.0523  0.2146  0.5061
21047SOL    HW164592   5.376   2.955   5.301  0.3678  0.0179  0.2237
21047SOL    HW264593   5.359   3.100   5.262  0.6753 -0.3412 -1.3074
21048SOL     OW64594   8.909   5.047   2.201  0.1104  0.0927 -0.5324
21048SOL    HW164595   8.992   5.061   2.246  0.7450 -1.1296 -1.2483
21048SOL    HW264596   8.843   5.043   2.271  0.7859  0.1566  0.1144
21049SOL     OW64597   3.853   3.494   6.003 -0.3091  0.2289 -0.4232
21049SOL    HW164598   3.898   3.488   5.919  2.5437  0.4209  0.9867
21049SOL    HW264599   3.840   3.588   6.017  1.4778  0.3865  0.4053
21050SOL     OW64600   4.280   5.732   2.223 -0.1821  0.0257 -0.2326
21050SOL    HW164601   4.363   5.697   2.255 -0.0151  0.8147  0.2113
21050SOL    HW264602   4.304   5.778   2.142  0.0170  1.2081  0.4727
21051SOL     OW64603   3.174   5.849   0.309 -0.1739 -0.2338  0.0360
21051SOL    HW164604   3.138   5.793   0.240  0.5585 -1.2073  0.4240
21051SOL    HW264605   3.134   5.817   0.390 -1.9766  1.6844 -0.0093
21052SOL     OW64606   6.401   7.411   5.201 -0.3477  0.6324 -0.0944
21052SOL    HW164607   6.334   7.478   5.191 -0.2511  0.6128 -1.0010
21052SOL    HW264608   6.463   7.429   5.130  0.3294  0.3310  0.4066
21053SOL     OW64609   3.377   3.432   2.977  0.0602 -0.1763  0.1136
21053SOL    HW164610   3.341   3.359   2.928  0.0198 -0.1647  0.1263
21053SOL    HW264611   3.319   3.442   3.052  0.0494 -0.1129  0.0968
21054SOL     OW64612   6.384   6.299   7.319  0.7049 -0.1609  0.6269
21054SOL    HW164613   6.438   6.311   7.397  0.9102 -0.1462  0.4837
21054SOL    HW264614   6.441   6.324   7.246 -0.4309  2.9174  0.6352
21055SOL     OW64615   1.288   5.143   0.832  0.4089  0.4793  0.0835
21055SOL    HW164616   1.351   5.213   0.816  0.4898  0.6102  0.9550
21055SOL    HW264617   1.337   5.078   0.882  0.0564  0.2471  0.1290
21056SOL     OW64618   1.317   4.719   1.825  0.3543  0.1271  0.2160
21056SOL    HW164619   1.333   4.766   1.744  1.6434 -1.2005 -0.3445
21056SOL    HW264620   1.296   4.787   1.889  1.1058  1.3492 -0.8024
21057SOL     OW64621   7.224   1.727   8.767  0.0462 -0.3728 -0.0146
21057SOL    HW164622   7.252   1.736   8.859 -0.3345  0.3194  0.0435
21057SOL    HW264623   7.270   1.798   8.722 -0.3781 -0.2248 -0.2152
21058SOL     OW64624   5.018   1.959   4.125 -0.3204 -0.8778  0.0447
21058SOL    HW164625   4.983   1.991   4.208  0.1769  0.6438 -0.2872
21058SOL    HW264626   5.079   2.028   4.097  1.0614 -2.3031 -0.5870
21059SOL     OW64627   5.240   7.034   4.276  0.3746  0.4401  0.1075
21059SOL    HW164628   5.262   7.020   4.184  0.5319 -0.2138  0.2425
21059SOL    HW264629   5.309   6.988   4.324 -1.2663 -1.7151  0.5465
21060SOL     OW64630   6.341   3.332   4.713 -0.9670  0.6744 -0.2071
21060SOL    HW164631   6.405   3.396   4.744 -1.7510  1.3169  0.1159
21060SOL    HW264632   6.314   3.364   4.628 -2.4386  1.6065  0.5668
21061SOL     OW64633   1.663   7.589   2.551  0.3784  0.0288 -0.1879
21061SOL    HW164634   1.698   7.546   2.629 -0.2484  1.0526  0.6899
21061SOL    HW264635   1.626   7.518   2.500 -0.9236 -0.4757  1.3732
21062SOL     OW64636   0.642   7.438   8.642  0.1937  0.1493  0.3643
21062SOL    HW164637   0.708   7.460   8.576 -0.9822 -1.5899 -1.5108
21062SOL    HW264638   0.692   7.396   8.712  1.2323  0.0929 -0.3827
21063SOL     OW64639   3.219   6.380   0.340  0.3475  0.6202 -0.5873
21063SOL    HW164640   3.300   6.367   0.388  0.2056 -1.1192 -0.7631
21063SOL    HW264641   3.245   6.424   0.259  0.9805  0.8915 -0.2379
21064SOL     OW64642   0.610   6.960   3.474 -0.2572  0.0340 -0.0504
21064SOL    HW164643   0.553   6.993   3.544 -1.6602 -0.8698 -0.7188
21064SOL    HW264644   0.690   7.011   3.482 -0.9445  0.9583  1.2907
21065SOL     OW64645   7.692   0.335   6.081  0.5335 -0.2736  0.7671
21065SOL    HW164646   7.688   0.419   6.037  0.4644  0.4557  2.0953
21065SOL    HW264647   7.722   0.356   6.170  1.9226 -1.8145  0.7221
21066SOL     OW64648   7.848   7.646   5.981 -0.2525 -0.3458 -0.1795
21066SOL    HW164649   7.849   7.550   5.978  0.6554 -0.4090  1.0913
21066SOL    HW264650   7.794   7.672   5.907  0.2614 -1.8135 -1.1173
21067SOL     OW64651   0.707   8.797   4.041 -0.0850 -0.2078 -0.6811
21067SOL    HW164652   0.691   8.709   4.007 -0.0847  0.8058 -3.5370
21067SOL    HW264653   0.622   8.825   4.074  0.1073 -1.5544  1.1325
21068SOL     OW64654   1.365   7.302   1.307 -0.2343  0.3360 -0.2716
21068SOL    HW164655   1.445   7.322   1.258 -0.6801 -1.2897 -1.7888
21068SOL    HW264656   1.395   7.277   1.394  0.9198 -0.1030 -0.7752
21069SOL     OW64657   6.754   2.051   3.389  0.1064 -0.3368  0.2850
21069SOL    HW164658   6.849   2.062   3.385  0.0911 -0.3411 -0.2022
21069SOL    HW264659   6.740   1.957   3.378 -0.0173 -0.1688 -1.4009
21070SOL     OW64660   5.993   2.554   8.860 -0.0625  0.0707  0.2913
21070SOL    HW164661   6.057   2.544   8.931 -1.0559  0.5802  1.2822
21070SOL    HW264662   6.044   2.590   8.787  0.9431 -0.3139  0.7858
21071SOL     OW64663   2.766   7.376   7.951  0.3562  0.2973  0.2620
21071SOL    HW164664   2.715   7.353   7.873  0.7394 -2.6348  0.7546
21071SOL    HW264665   2.700   7.387   8.019  0.1714 -0.1099  0.1562
21072SOL     OW64666   7.603   2.816   2.524 -0.0069 -0.2887  0.4594
21072SOL    HW164667   7.607   2.902   2.566  0.2212 -0.6220  1.1417
21072SOL    HW264668   7.612   2.754   2.596 -2.8625 -0.9624  0.3653
21073SOL     OW64669   6.233   0.327   1.216 -0.0446  0.4762  0.2514
21073SOL    HW164670   6.155   0.382   1.223 -0.4472  0.1320 -1.2877
21073SOL    HW264671   6.206   0.242   1.249 -0.1447  0.5126  0.2622
21074SOL     OW64672   8.233   3.325   7.780  0.2907 -0.4280 -0.3263
21074SOL    HW164673   8.160   3.325   7.718 -0.9439  0.6477  1.0487
21074SOL    HW264674   8.230   3.239   7.821 -1.0445  0.0266  0.6051
21075SOL     OW64675   2.794   2.046   2.274  0.6930  0.0683 -0.2021
21075SOL    HW164676   2.850   2.119   2.248  2.0752 -0.8838  0.0250
21075SOL    HW264677   2.843   1.968   2.252  0.2520 -0.7952  1.6581
21076SOL     OW64678   2.325   2.916   8.564  0.4256  0.3198  0.2824
21076SOL    HW164679   2.391   2.966   8.516  1.3512  0.8025  1.9439
21076SOL    HW264680   2.359   2.826   8.565  1.7818  0.7689  2.1339
21077SOL     OW64681   8.840   8.855   0.722  0.3668  0.8669 -0.0145
21077SOL    HW164682   8.903   8.916   0.684 -0.5725  2.0627  0.2571
21077SOL    HW264683   8.788   8.825   0.647  0.6212  0.6629 -0.1076
21078SOL     OW64684   3.962   8.049   3.168 -0.1496 -0.5482  0.3220
21078SOL    HW164685   4.018   8.124   3.146 -0.7192 -0.3745 -0.5592
21078SOL    HW264686   3.939   8.064   3.260 -1.7456  1.3748 -0.3236
21079SOL     OW64687   8.842   2.318   5.490 -0.2507 -0.0576  0.5028
21079SOL    HW164688   8.840   2.289   5.399 -0.0112  0.6842  0.2450
21079SOL    HW264689   8.889   2.249   5.537  0.0685 -0.2138 -0.0344
21080SOL     OW64690   6.379   7.477   0.277 -0.3482  0.2053 -0.4927
21080SOL    HW164691   6.473   7.458   0.279 -0.5762 -1.1136 -1.0551
21080SOL    HW264692   6.353   7.458   0.187 -1.4828 -1.2813  0.0893
21081SOL     OW64693   1.076   2.410   8.878 -0.1446  0.5229 -0.2263
21081SOL    HW164694   1.094   2.340   8.816 -0.7904 -0.4746  0.6827
21081SOL    HW264695   1.100   2.490   8.831  1.5778 -0.3487 -0.9322
21082SOL     OW64696   8.785   3.094   3.837 -0.4003 -0.2520 -0.3058
21082SOL    HW164697   8.788   2.999   3.846 -2.0587 -0.2189  1.3198
21082SOL    HW264698   8.864   3.125   3.882 -0.7967 -0.8108  0.8047
21083SOL     OW64699   5.032   3.587   6.705 -0.5254  0.6497  0.5916
21083SOL    HW164700   4.948   3.575   6.749 -0.1189  2.1130  1.8791
21083SOL    HW264701   5.095   3.540   6.759 -0.4685 -0.3111 -0.2828
21084SOL     OW64702   7.365   6.270   5.549  0.3520 -0.4562  0.9504
21084SOL    HW164703   7.426   6.271   5.622  1.1088 -1.7168  0.3700
21084SOL    HW264704   7.374   6.183   5.511 -0.7300 -0.1570 -0.0601
21085SOL     OW64705   7.255   0.158   7.065 -0.3711  0.0190  0.2773
21085SOL    HW164706   7.311   0.123   6.995  0.0022 -0.7341  0.9422
21085SOL    HW264707   7.285   0.248   7.077  0.3670 -0.2221  0.2770
21086SOL     OW64708   3.888   8.961   3.224  0.2849  0.6294 -0.6100
21086SOL    HW164709   3.881   8.943   3.317  0.4305  0.5352 -0.6156
21086SOL    HW264710   3.939   8.887   3.190  1.7707  1.5592 -0.4751
21087SOL     OW64711   0.093   1.802   4.363 -0.2151  0.0221  0.0730
21087SOL    HW164712   0.014   1.852   4.340  0.3629  0.7780 -0.3337
21087SOL    HW264713   0.146   1.864   4.413 -0.1154 -0.6518  0.8092
21088SOL     OW64714   9.016   1.830   0.424 -0.1250  0.1263  0.0824
21088SOL    HW164715   8.977   1.873   0.349 -0.9102  0.0178  0.4204
21088SOL    HW264716   8.990   1.884   0.499  1.0404  0.5049  0.2475
21089SOL     OW64717   1.439   6.358   8.536  0.4773 -0.0732  0.4708
21089SOL    HW164718   1.512   6.410   8.566  0.1750  0.5015  0.2205
21089SOL    HW264719   1.472   6.312   8.458  1.2402 -1.5126  1.5946
21090SOL     OW64720   2.013   9.087   4.957  0.7031  0.0595  0.2909
21090SOL    HW164721   2.034   9.107   5.048  1.4821  0.2393  0.0809
21090SOL    HW264722   2.054   9.002   4.942 -0.9304 -0.8245  0.6098
21091SOL     OW64723   0.259   5.322   2.967 -0.7241 -0.4479 -0.3844
21091SOL    HW164724   0.288   5.382   2.899 -0.6119  0.5490  0.5180
21091SOL    HW264725   0.203   5.374   3.024 -1.6430 -1.5226 -0.2584
21092SOL     OW64726   7.537   7.178   1.726  0.2518 -0.4393 -0.6480
21092SOL    HW164727   7.503   7.262   1.693 -1.0912 -1.0988 -0.9939
21092SOL    HW264728   7.469   7.145   1.784  0.5745 -1.4914 -0.8418
21093SOL     OW64729   7.278   2.080   6.091 -0.2068 -0.5455  0.0684
21093SOL    HW164730   7.221   2.007   6.116 -1.5224  0.5377  0.3370
21093SOL    HW264731   7.217   2.150   6.065  0.9659  0.9672  1.2499
21094SOL     OW64732   7.103   3.048   3.664  0.0609  0.2416  0.1714
21094SOL    HW164733   7.028   3.044   3.604  1.7131 -1.7780 -1.9621
21094SOL    HW264734   7.177   3.071   3.608  1.2682  1.0483  1.9970
21095SOL     OW64735   1.544   2.448   4.531  0.0101 -0.6084 -0.7609
21095SOL    HW164736   1.614   2.404   4.579  0.2044  1.4636  0.9780
21095SOL    HW264737   1.583   2.471   4.447  1.3917  0.3296  0.1067
21096SOL     OW64738   4.076   6.926   1.149  0.1737  0.7741 -0.0110
21096SOL    HW164739   4.020   6.856   1.117 -0.0746  0.9741 -0.0173
21096SOL    HW264740   4.087   6.907   1.242 -1.6518  1.8949  0.4724
21097SOL     OW64741   5.148   4.778   8.076 -0.0219  0.1684  0.2755
21097SOL    HW164742   5.137   4.849   8.013 -2.3142 -0.4821 -0.1705
21097SOL    HW264743   5.083   4.798   8.144 -0.0509 -1.0080  0.6016
21098SOL     OW64744   3.609   0.787   8.387  0.5561  0.4316  0.1987
21098SOL    HW164745   3.657   0.847   8.330 -1.1123 -1.1043 -3.0973
21098SOL    HW264746   3.536   0.839   8.421  0.1829  0.7851 -1.1020
21099SOL     OW64747   1.615   6.764   3.170 -0.2010 -0.0119 -0.8327
21099SOL    HW164748   1.567   6.744   3.250  2.2029  0.5028  0.8682
21099SOL    HW264749   1.617   6.682   3.121  1.2893 -1.4377  1.4149
21100SOL     OW64750   0.833   1.345   7.227  0.1173  0.0197  0.2460
21100SOL    HW164751   0.895   1.388   7.286  0.8513 -1.4780  0.6139
21100SOL    HW264752   0.886   1.280   7.180 -0.5985  0.6999 -1.5697
21101SOL     OW64753   0.804   7.891   3.758 -0.0364 -0.2291  0.0074
21101SOL    HW164754   0.757   7.807   3.759  0.4906 -0.5427 -0.8218
21101SOL    HW264755   0.896   7.867   3.752  0.0679  0.4215 -1.1630
21102SOL     OW64756   2.577   3.608   6.423 -0.2421 -0.2591 -0.5188
21102SOL    HW164757   2.640   3.588   6.354 -0.0358 -0.9505 -0.1384
21102SOL    HW264758   2.627   3.601   6.504  0.0243  2.4602 -0.3425
21103SOL     OW64759   7.545   0.478   2.415  0.2365 -0.4862 -0.1022
21103SOL    HW164760   7.504   0.441   2.493  0.1259  1.6364  0.8973
21103SOL    HW264761   7.617   0.532   2.448  1.1493 -0.7200 -1.5684
21104SOL     OW64762   5.416   8.462   7.931  0.7730 -0.7424 -0.2434
21104SOL    HW164763   5.358   8.467   7.855  0.0396  0.1116  0.3509
21104SOL    HW264764   5.469   8.541   7.926 -0.3507  0.1383  0.9477
21105SOL     OW64765   7.360   5.396   4.748  0.0672  0.3349  0.5597
21105SOL    HW164766   7.299   5.384   4.674 -2.0548  1.2030  2.0535
21105SOL    HW264767   7.347   5.318   4.802 -2.2540  1.9127  2.4988
21106SOL     OW64768   6.166   4.150   2.239 -0.0641  0.3244 -0.0597
21106SOL    HW164769   6.210   4.181   2.318 -0.5304 -0.3919  0.4940
21106SOL    HW264770   6.080   4.191   2.240  0.2326  0.9818 -0.6495
21107SOL     OW64771   8.412   5.115   4.315 -0.7683  0.3027 -0.4087
21107SOL    HW164772   8.392   5.075   4.399 -1.2227  0.5958 -0.3688
21107SOL    HW264773   8.425   5.042   4.255 -0.1385  0.0913 -0.0193
21108SOL     OW64774   2.814   6.107   8.855  0.1930  0.5045 -0.2137
21108SOL    HW164775   2.719   6.116   8.859 -0.0911 -1.7577 -0.4978
21108SOL    HW264776   2.845   6.133   8.942 -0.8469 -0.0726  0.3438
21109SOL     OW64777   4.918   8.486   8.144  0.1892  0.2062  0.0279
21109SOL    HW164778   4.834   8.532   8.135  0.3606  0.2949 -1.2780
21109SOL    HW264779   4.977   8.551   8.182  0.1471  0.7298 -0.7912
21110SOL     OW64780   7.470   0.708   5.329 -0.5503 -0.1850 -0.3881
21110SOL    HW164781   7.520   0.647   5.275  0.5579  1.4263 -1.2529
21110SOL    HW264782   7.412   0.652   5.380  1.2327 -2.0554 -0.2753
21111SOL     OW64783   1.914   8.981   5.617 -0.5579 -0.4525 -0.1831
21111SOL    HW164784   1.837   8.981   5.673 -0.8563 -0.6654 -0.5931
21111SOL    HW264785   1.885   8.943   5.534  0.0224 -0.6801 -0.2901
21112SOL     OW64786   0.467   7.819   3.313  1.4150 -0.1954 -0.8959
21112SOL    HW164787   0.456   7.793   3.405  2.0035 -2.7782 -1.4741
21112SOL    HW264788   0.434   7.909   3.310  0.1418 -0.4713  1.5669
21113SOL     OW64789   2.563   8.058   7.664  0.1646 -0.0647 -0.0566
21113SOL    HW164790   2.478   8.018   7.683 -0.7721  1.2194 -1.3123
21113SOL    HW264791   2.626   8.005   7.713 -1.3772 -0.8690  1.1556
21114SOL     OW64792   8.730   2.821   7.492  0.0782  0.4787 -0.3456
21114SOL    HW164793   8.787   2.832   7.416  0.0964 -1.0809 -0.6014
21114SOL    HW264794   8.647   2.790   7.455 -0.8830  2.4229  0.0452
21115SOL     OW64795   7.750   5.751   2.343  0.0531 -0.1895  0.1270
21115SOL    HW164796   7.691   5.676   2.334 -0.3070  0.2259 -1.2399
21115SOL    HW264797   7.755   5.767   2.437  0.2937 -2.0374  0.4715
21116SOL     OW64798   5.638   2.555   8.466  0.3043 -0.2556 -0.3107
21116SOL    HW164799   5.622   2.643   8.499 -0.4371 -0.9848  1.3944
21116SOL    HW264800   5.731   2.541   8.480  0.1948 -0.1696  0.5451
21117SOL     OW64801   8.612   3.292   5.572 -0.0240  0.1808 -0.1859
21117SOL    HW164802   8.589   3.201   5.550  0.1337 -0.2972  1.4571
21117SOL    HW264803   8.637   3.331   5.489 -0.2716 -1.2355 -0.9642
21118SOL     OW64804   1.491   0.181   3.707  0.7241  0.1272  0.0994
21118SOL    HW164805   1.430   0.182   3.633  1.8545  0.7163 -0.8607
21118SOL    HW264806   1.532   0.094   3.702 -1.2595 -1.0061  1.8461
21119SOL     OW64807   6.369   7.945   3.956 -0.0476  0.2936  0.3852
21119SOL    HW164808   6.370   7.850   3.972  0.7811  0.4751  1.5706
21119SOL    HW264809   6.402   7.954   3.866 -1.0118 -0.5810 -0.0776
21120SOL     OW64810   2.001   7.166   8.656  0.3970  0.3303  0.0633
21120SOL    HW164811   2.038   7.252   8.678  1.8524 -0.6650  1.7352
21120SOL    HW264812   1.925   7.157   8.713  0.4825  0.3434  0.1805
21121SOL     OW64813   7.209   2.741   5.968 -0.2198  0.0765 -0.0548
21121SOL    HW164814   7.172   2.770   6.051  1.7627 -0.3260  1.0388
21121SOL    HW264815   7.167   2.658   5.950 -0.6753  0.1753  0.5403
21122SOL     OW64816   8.699   0.485   5.598 -0.1219  0.5674  0.1476
21122SOL    HW164817   8.743   0.510   5.517  0.5805 -1.5315 -0.1713
21122SOL    HW264818   8.765   0.501   5.666 -0.5567  1.9007  0.2832
21123SOL     OW64819   1.954   8.016   9.267  0.0500  0.8126 -0.5395
21123SOL    HW164820   1.886   8.020   9.200 -0.1754 -1.2024 -0.4857
21123SOL    HW264821   1.918   7.959   9.335  1.0889  1.1526  0.3313
21124SOL     OW64822   5.114   3.924   0.642  0.2722  0.1432 -0.4079
21124SOL    HW164823   5.145   3.961   0.560 -1.2185  0.9002 -0.6757
21124SOL    HW264824   5.142   3.986   0.709  1.3290 -0.3797 -0.3533
21125SOL     OW64825   3.637   8.091   9.277 -0.3403 -0.4939  0.6106
21125SOL    HW164826   3.695   8.030   9.231 -1.1397  0.3665 -1.6869
21125SOL    HW264827   3.683   8.174   9.275 -0.6178 -0.3314  0.9168
21126SOL     OW64828   4.654   6.936   8.681 -0.2744  0.0396 -0.4899
21126SOL    HW164829   4.573   6.911   8.637  0.5908 -2.4124 -0.8539
21126SOL    HW264830   4.627   7.002   8.745 -3.1968 -2.7948  1.5708
21127SOL     OW64831   7.218   6.299   7.800 -0.0516 -0.0509 -0.0973
21127SOL    HW164832   7.160   6.360   7.847  0.9737  0.3425  0.7060
21127SOL    HW264833   7.211   6.217   7.849 -0.4727 -0.2187 -0.4327
21128SOL     OW64834   2.533   7.921   4.364 -0.4199 -0.2577  0.5199
21128SOL    HW164835   2.593   7.860   4.406  1.5151  0.4756 -1.0363
21128SOL    HW264836   2.546   8.004   4.410 -0.5230 -0.1934  0.4355
21129SOL     OW64837   0.180   1.490   4.632 -0.2462 -0.1825 -0.2350
21129SOL    HW164838   0.203   1.406   4.673  2.5892  0.5890 -0.0280
21129SOL    HW264839   0.252   1.548   4.656 -1.8348  2.1755 -0.8754
21130SOL     OW64840   5.939   4.877   5.064  0.6543  0.6443 -0.1223
21130SOL    HW164841   5.933   4.923   4.980  0.9320  0.3229 -0.3187
21130SOL    HW264842   6.033   4.875   5.084  0.7224 -0.5162 -0.5009
21131SOL     OW64843   5.060   8.724   6.225  0.3147 -0.5422 -0.1126
21131SOL    HW164844   5.039   8.630   6.230  0.1190 -0.6190 -1.9319
21131SOL    HW264845   4.975   8.767   6.234  0.4578 -0.4929  1.2027
21132SOL     OW64846   0.569   1.191   8.010 -0.6362 -0.1073 -0.0172
21132SOL    HW164847   0.661   1.219   8.008 -0.4786 -0.5843  0.2888
21132SOL    HW264848   0.544   1.185   7.918 -0.7974  1.3841 -0.0949
21133SOL     OW64849   8.708   1.321   3.664  0.0020  0.1893  0.0974
21133SOL    HW164850   8.794   1.351   3.696  1.2487 -1.2998 -1.6697
21133SOL    HW264851   8.676   1.264   3.734  0.3797  0.8712  0.8446
21134SOL     OW64852   8.780   3.516   4.982 -0.5123 -0.2111  0.2539
21134SOL    HW164853   8.837   3.485   4.912  1.2555  1.3610  0.9175
21134SOL    HW264854   8.700   3.545   4.937  1.3606  2.7401 -1.4990
21135SOL     OW64855   6.475   0.758   8.158 -0.3856 -0.2992  0.1775
21135SOL    HW164856   6.417   0.738   8.084  1.1183 -1.4218 -0.7349
21135SOL    HW264857   6.562   0.765   8.120  0.3126  0.0010  1.7322
21136SOL     OW64858   2.449   0.115   3.410  0.3054 -0.9134  0.6601
21136SOL    HW164859   2.495   0.075   3.336 -2.8288 -1.2334 -1.2747
21136SOL    HW264860   2.476   0.207   3.409 -0.7710 -0.5585 -1.9061
21137SOL     OW64861   6.541   4.297   3.941 -0.5712  0.0542  0.1947
21137SOL    HW164862   6.606   4.273   3.875 -0.9539  1.5162 -0.7657
21137SOL    HW264863   6.529   4.391   3.930 -1.5666  0.1183  1.5347
21138SOL     OW64864   8.466   8.428   3.846 -0.6229 -0.2196 -0.1466
21138SOL    HW164865   8.451   8.470   3.761 -2.1352 -0.3360  0.0358
21138SOL    HW264866   8.397   8.363   3.853  0.8977 -1.8705  0.1681
21139SOL     OW64867   5.066   5.274   2.866 -0.1400 -1.1289 -0.6783
21139SOL    HW164868   5.029   5.229   2.790  1.1643 -2.4938 -0.5396
21139SOL    HW264869   5.009   5.249   2.939 -1.8719  0.8097 -1.2629
21140SOL     OW64870   4.086   4.886   5.770  0.3257  0.2602 -0.3951
21140SOL    HW164871   4.161   4.871   5.827 -0.6870  0.7241  1.1300
21140SOL    HW264872   4.119   4.870   5.682  1.5920 -1.9797  0.3975
21141SOL     OW64873   0.152   8.958   7.263 -0.1463  0.0223  0.0731
21141SOL    HW164874   0.105   9.003   7.333 -0.7865  1.2240 -1.0642
21141SOL    HW264875   0.090   8.894   7.229 -0.8534  1.2496 -1.0814
21142SOL     OW64876   4.401   1.867   9.267 -0.3405  0.0880 -0.4012
21142SOL    HW164877   4.431   1.779   9.289 -0.3805  0.1118 -0.2497
21142SOL    HW264878   4.462   1.897   9.200  0.0214  0.1672 -0.0373
21143SOL     OW64879   6.497   2.281   5.238 -0.2263 -0.0553 -0.0433
21143SOL    HW164880   6.435   2.212   5.213 -2.0160  2.1621 -2.2510
21143SOL    HW264881   6.581   2.252   5.203 -0.9051 -1.1569 -0.8220
21144SOL     OW64882   6.799   2.744   0.208 -0.1067  0.2891  0.1509
21144SOL    HW164883   6.713   2.783   0.222  0.5471  1.9549 -0.2446
21144SOL    HW264884   6.845   2.754   0.292  0.0072  0.2051  0.0997
21145SOL     OW64885   1.742   6.576   3.529  0.0411 -0.3233  0.0523
21145SOL    HW164886   1.687   6.654   3.520 -0.4967 -0.6681  0.3367
21145SOL    HW264887   1.686   6.504   3.503  0.3350 -0.6906  0.4299
21146SOL     OW64888   2.433   5.044   0.751 -0.2742  0.0798  0.2228
21146SOL    HW164889   2.518   5.071   0.717 -0.5939 -0.0667 -0.7247
21146SOL    HW264890   2.423   4.954   0.720 -0.5640 -0.0716  0.7488
21147SOL     OW64891   5.202   6.089   6.018  0.1087  0.2717 -0.0405
21147SOL    HW164892   5.211   6.101   5.924 -0.3068  0.2703 -0.0811
21147SOL    HW264893   5.257   6.013   6.038  0.5893  0.5743 -0.2023
21148SOL     OW64894   6.579   6.035   2.596  0.0831  0.3040  0.1663
21148SOL    HW164895   6.664   6.030   2.639  1.5204  0.4444 -2.4802
21148SOL    HW264896   6.564   5.947   2.562 -0.7936  0.3173  0.4816
21149SOL     OW64897   5.723   2.228   1.930  0.4183  0.3763 -0.3012
21149SOL    HW164898   5.719   2.300   1.867 -1.5530 -1.0848 -2.0162
21149SOL    HW264899   5.799   2.177   1.903  1.5077  1.4741  0.5901
21150SOL     OW64900   7.681   3.470   4.335 -0.0732  0.2634 -0.2878
21150SOL    HW164901   7.612   3.409   4.309  0.0210 -0.2981  0.7205
21150SOL    HW264902   7.763   3.427   4.309 -0.0796  1.1156 -1.8664
21151SOL     OW64903   6.936   5.659   0.404 -0.0019  0.5170  1.0769
21151SOL    HW164904   6.926   5.737   0.459  1.9274  0.8403  1.0270
21151SOL    HW264905   7.015   5.676   0.353 -1.5730  0.1323 -1.6824
21152SOL     OW64906   5.022   2.529   0.516  0.0380 -0.1937  0.1309
21152SOL    HW164907   4.938   2.536   0.561  0.8449  0.2076  1.6509
21152SOL    HW264908   5.019   2.443   0.473 -1.1913 -0.1120  0.0197
21153SOL     OW64909   7.258   3.157   6.945 -0.2000  0.2320  0.1267
21153SOL    HW164910   7.348   3.156   6.978 -1.2930  1.4453  3.5182
21153SOL    HW264911   7.257   3.230   6.882  0.9564  0.9541  0.9076
21154SOL     OW64912   0.825   5.179   7.729  0.1535  0.2450  0.0823
21154SOL    HW164913   0.826   5.246   7.660 -0.2763  0.6622  0.4702
21154SOL    HW264914   0.735   5.181   7.762 -0.9803 -2.9957 -2.2843
21155SOL     OW64915   0.120   2.882   8.337 -0.3983  0.2472  0.0366
21155SOL    HW164916   0.202   2.931   8.333 -1.3024  1.7757 -0.6236
21155SOL    HW264917   0.137   2.803   8.285 -0.4837  2.3969 -3.6078
21156SOL     OW64918   2.610   4.945   0.472 -0.4419  0.0868 -0.2620
21156SOL    HW164919   2.521   4.916   0.493  0.4774 -2.1185  0.9390
21156SOL    HW264920   2.664   4.909   0.542  1.6969 -0.4636 -2.0866
21157SOL     OW64921   5.358   4.287   0.570 -0.2076  0.3796 -0.3096
21157SOL    HW164922   5.298   4.236   0.517 -0.5319  0.8321 -0.3795
21157SOL    HW264923   5.328   4.274   0.660 -0.4223  0.6186 -0.3458
21158SOL     OW64924   4.798   4.918   6.939 -0.1582  0.4424  0.4130
21158SOL    HW164925   4.857   4.855   6.980 -1.0299 -0.2123  0.6885
21158SOL    HW264926   4.813   4.907   6.845 -1.1249 -1.0116  0.4125
21159SOL     OW64927   8.793   2.179   0.706  0.5190 -0.1746  0.0459
21159SOL    HW164928   8.857   2.240   0.743  1.4929 -1.0857 -0.0804
21159SOL    HW264929   8.752   2.227   0.635 -0.0641  0.9642  1.1264
21160SOL     OW64930   7.032   7.432   4.005 -0.5141  0.2785  0.1301
21160SOL    HW164931   7.102   7.493   3.986  0.2053 -0.4140  0.4808
21160SOL    HW264932   7.006   7.397   3.920 -0.3395  0.4351  0.0121
21161SOL     OW64933   4.165   8.599   6.924 -0.7583 -0.3020  0.5645
21161SOL    HW164934   4.198   8.604   7.014 -0.5686  1.8236  0.4268
21161SOL    HW264935   4.107   8.523   6.923 -0.3424 -0.6766  2.3251
21162SOL     OW64936   7.591   3.271   6.345  0.3824  0.1063  0.3420
21162SOL    HW164937   7.587   3.231   6.258  1.3448  0.1834  0.2547
21162SOL    HW264938   7.501   3.299   6.362  0.0981 -0.2840 -0.4466
21163SOL     OW64939   3.243   4.469   2.474  0.5042  0.2316 -0.2311
21163SOL    HW164940   3.198   4.397   2.430  2.0893  0.3684 -2.2180
21163SOL    HW264941   3.176   4.509   2.530 -1.6353  0.0008 -2.4803
21164SOL     OW64942   8.590   1.148   3.455 -0.3300  0.1687 -0.0985
21164SOL    HW164943   8.520   1.176   3.396  0.7278  1.7901 -0.6519
21164SOL    HW264944   8.610   1.226   3.507 -2.2628 -1.5259  3.6462
21165SOL     OW64945   8.195   3.389   1.440 -0.3709  0.2880  0.0202
21165SOL    HW164946   8.195   3.341   1.358 -0.7756 -0.7507  0.6039
21165SOL    HW264947   8.233   3.328   1.504  0.1455  1.1512  0.5606
21166SOL     OW64948   2.048   4.809   5.068 -0.1550 -0.0292 -0.1788
21166SOL    HW164949   2.065   4.856   4.987  0.3065  0.2047  0.0506
21166SOL    HW264950   2.020   4.877   5.129  0.4561 -0.0554  0.1375
21167SOL     OW64951   6.035   4.090   5.769 -0.4846  0.6982  0.0611
21167SOL    HW164952   6.061   3.999   5.754 -0.0489  0.9097 -0.5023
21167SOL    HW264953   6.104   4.126   5.824 -1.5338  0.2254  1.7392
21168SOL     OW64954   9.249   7.033   0.241  0.0432 -0.2005  0.1289
21168SOL    HW164955   9.289   7.119   0.230  0.7682 -0.5709 -0.2107
21168SOL    HW264956   9.155   7.051   0.248  0.0790  0.5362 -1.0115
21169SOL     OW64957   8.356   8.063   4.706  0.2576  0.7813  0.2801
21169SOL    HW164958   8.266   8.041   4.730  0.0741 -0.0619 -1.0764
21169SOL    HW264959   8.387   8.119   4.777 -0.8425 -0.1182  1.5161
21170SOL     OW64960   6.220   7.106   2.889  0.0271 -0.1839 -0.0619
21170SOL    HW164961   6.184   7.124   2.976 -2.0621  1.0829 -1.0982
21170SOL    HW264962   6.164   7.037   2.854 -0.1214  0.3708 -0.9413
21171SOL     OW64963   6.504   5.216   5.187 -0.6037 -0.0618 -0.6650
21171SOL    HW164964   6.496   5.164   5.107 -0.7372  0.8091 -1.2273
21171SOL    HW264965   6.482   5.305   5.161 -1.1892  0.1487  0.4547
21172SOL     OW64966   0.050   3.910   7.226  0.2402 -0.1116  0.4268
21172SOL    HW164967   0.087   3.892   7.140  0.6423 -0.6192  0.6989
21172SOL    HW264968   0.046   4.006   7.231 -1.4382 -0.0811 -0.8290
21173SOL     OW64969   8.466   4.993   5.100 -0.2735  0.5177 -0.4851
21173SOL    HW164970   8.440   4.933   5.170  0.1720  0.6944 -0.1672
21173SOL    HW264971   8.398   4.981   5.033 -0.9949  0.7247  0.1886
21174SOL     OW64972   6.350   4.657   2.518  0.2004 -0.0813 -0.2017
21174SOL    HW164973   6.340   4.750   2.540 -0.9564 -0.2420 -0.0158
21174SOL    HW264974   6.443   4.639   2.536 -0.1771  0.2954  2.6762
21175SOL     OW64975   6.286   5.904   1.873 -0.3821 -0.0200 -0.0607
21175SOL    HW164976   6.350   5.845   1.834  1.2193 -0.3306  2.8014
21175SOL    HW264977   6.338   5.972   1.915 -2.0954  1.7428 -0.6274
21176SOL     OW64978   0.425   0.092   3.452  0.1070  0.1940  0.0884
21176SOL    HW164979   0.442   0.019   3.393 -1.5082 -0.4087  0.3247
21176SOL    HW264980   0.357   0.143   3.409  0.0098  0.6051  0.7093
21177SOL     OW64981   3.356   0.161   3.030 -0.1736  0.7098  0.0978
21177SOL    HW164982   3.298   0.140   2.957  1.7133 -1.5028 -0.9065
21177SOL    HW264983   3.300   0.202   3.095 -2.8144 -1.1385 -0.8666
21178SOL     OW64984   7.528   6.961   9.046  0.5145  0.0320  0.6008
21178SOL    HW164985   7.548   7.026   8.979  1.0311  0.5684  1.2585
21178SOL    HW264986   7.481   6.892   8.999  1.0255  0.3043 -0.3407
21179SOL     OW64987   5.325   6.147   3.358  0.1465 -0.2003  0.1964
21179SOL    HW164988   5.279   6.230   3.368  0.0690 -0.2345  0.1272
21179SOL    HW264989   5.292   6.092   3.429  0.9404  0.1588  0.8633
21180SOL     OW64990   3.567   7.507   6.463  0.5431 -0.0551  0.1920
21180SOL    HW164991   3.473   7.496   6.481  0.7632 -1.6299  0.5172
21180SOL    HW264992   3.586   7.441   6.397  1.5020  0.0251  0.3821
21181SOL     OW64993   2.230   2.127   4.047  0.4822 -0.6590  0.4107
21181SOL    HW164994   2.271   2.118   3.961 -0.6656 -0.7937 -0.1422
21181SOL    HW264995   2.142   2.090   4.036  0.2207 -0.4240  1.5672
21182SOL     OW64996   4.538   7.041   4.094  0.2136 -0.4978 -0.1564
21182SOL    HW164997   4.602   7.014   4.160 -0.1645 -0.8033  0.0893
21182SOL    HW264998   4.469   7.084   4.144 -1.6059 -3.4367  0.0540
21183SOL     OW64999   2.814   4.859   5.519  0.5055  0.8377  0.4821
21183SOL    HW165000   2.807   4.955   5.516  0.7201  0.8198 -1.8151
21183SOL    HW265001   2.723   4.829   5.512  0.5775  0.8722 -0.7282
21184SOL     OW65002   2.843   8.844   6.470 -0.1066  0.6045  0.3453
21184SOL    HW165003   2.840   8.873   6.379 -1.6144  1.8975  0.7622
21184SOL    HW265004   2.844   8.748   6.465  2.0028  0.6229 -1.0320
21185SOL     OW65005   0.743   6.694   2.472  0.1441  0.3470 -0.1982
21185SOL    HW165006   0.724   6.769   2.528  0.4845  0.9043 -0.8215
21185SOL    HW265007   0.810   6.645   2.521 -0.8281 -0.1290  0.6918
21186SOL     OW65008   8.513   1.601   5.644  0.2335  0.0269  0.2965
21186SOL    HW165009   8.448   1.542   5.605  0.8685 -0.6438  0.2312
21186SOL    HW265010   8.468   1.685   5.652 -0.8794 -0.6051  0.9030
21187SOL     OW65011   8.483   3.566   2.634  0.4292  0.1629  0.1747
21187SOL    HW165012   8.562   3.610   2.604 -0.4734  1.5567 -0.2306
21187SOL    HW265013   8.507   3.530   2.720  1.7973 -0.3402 -0.3947
21188SOL     OW65014   1.484   5.277   9.148  0.4160 -0.2835 -0.1583
21188SOL    HW165015   1.457   5.358   9.192 -0.8218 -0.1227 -1.1675
21188SOL    HW265016   1.428   5.210   9.186  0.7102 -0.4818 -0.0780
21189SOL     OW65017   5.777   5.917   7.874  0.1137  0.2089 -0.4285
21189SOL    HW165018   5.843   5.983   7.852  0.4144  0.1857  0.3567
21189SOL    HW265019   5.748   5.941   7.962 -1.5582  0.7205 -1.0786
21190SOL     OW65020   0.057   6.174   7.293  0.1857  0.4134  0.4621
21190SOL    HW165021   0.147   6.205   7.303  0.3645 -0.0565  0.3505
21190SOL    HW265022   0.052   6.096   7.349 -0.4505  1.0214  1.2775
21191SOL     OW65023   5.180   3.058   1.444 -0.2611 -0.3478  0.3830
21191SOL    HW165024   5.201   2.996   1.514 -1.6291  1.3840  2.4360
21191SOL    HW265025   5.241   3.130   1.458 -0.3776 -0.0869 -0.4139
21192SOL     OW65026   5.684   6.549   1.466 -0.2996 -0.5141 -0.1493
21192SOL    HW165027   5.759   6.523   1.518  0.4350  0.0726 -0.8929
21192SOL    HW265028   5.691   6.497   1.386 -0.0495  0.3385 -0.6965
21193SOL     OW65029   2.860   5.369   1.616  0.0373 -0.2533  0.3817
21193SOL    HW165030   2.803   5.380   1.540  0.1067  2.5638  0.6313
21193SOL    HW265031   2.921   5.443   1.611  1.1696 -0.9996  2.2363
21194SOL     OW65032   3.395   0.277   1.149 -0.0592 -0.3993  0.2736
21194SOL    HW165033   3.433   0.312   1.229  0.5099 -1.0000  0.2710
21194SOL    HW265034   3.316   0.231   1.178  1.1122 -2.1852  0.7476
21195SOL     OW65035   3.723   3.791   4.482 -0.0466 -0.0616  0.2670
21195SOL    HW165036   3.817   3.787   4.464  0.3722 -2.0215  2.4161
21195SOL    HW265037   3.714   3.858   4.550 -0.7825  2.7616 -2.4182
21196SOL     OW65038   6.973   3.510   3.384 -0.0881 -0.2882  0.4586
21196SOL    HW165039   6.989   3.471   3.298 -0.0457 -0.5952  0.6049
21196SOL    HW265040   6.919   3.588   3.366 -0.4306 -0.5857  0.1951
21197SOL     OW65041   6.112   6.840   2.859  0.2366  0.3280  0.5746
21197SOL    HW165042   6.105   6.815   2.952  0.8890  1.4493  0.9451
21197SOL    HW265043   6.161   6.768   2.819 -0.4270 -0.3843  0.9932
21198SOL     OW65044   1.956   4.551   9.136  0.2633  0.6366 -1.2747
21198SOL    HW165045   1.970   4.642   9.111  0.0045  0.3345 -2.5526
21198SOL    HW265046   1.924   4.556   9.226 -0.1388  1.8258 -1.4660
21199SOL     OW65047   6.263   4.081   3.778  0.2823 -0.4218  0.2313
21199SOL    HW165048   6.293   4.099   3.868  0.4197  0.7208 -0.0266
21199SOL    HW265049   6.260   4.167   3.737 -2.0375 -0.6442 -0.1689
21200SOL     OW65050   5.501   7.934   8.689  0.4532 -0.5257  0.4568
21200SOL    HW165051   5.543   7.908   8.607 -0.5510 -0.0625 -0.2341
21200SOL    HW265052   5.573   7.954   8.748  1.2151 -2.1760  0.1383
21201SOL     OW65053   9.066   5.764   8.909  0.2096 -0.2905  0.6495
21201SOL    HW165054   9.068   5.859   8.907 -0.0869 -0.2940 -0.0899
21201SOL    HW265055   8.983   5.742   8.951 -0.6097 -0.2136 -0.8594
21202SOL     OW65056   7.067   5.495   4.878  0.3716  0.2696 -0.2916
21202SOL    HW165057   7.130   5.509   4.949  0.1472 -0.0653 -0.0259
21202SOL    HW265058   7.071   5.401   4.860 -0.1129  0.2317 -0.2136
21203SOL     OW65059   2.780   4.826   2.366  0.3776 -0.1761 -0.0582
21203SOL    HW165060   2.749   4.764   2.431  1.0494 -1.1398 -0.6399
21203SOL    HW265061   2.701   4.853   2.319  0.0018 -0.0930  0.6081
21204SOL     OW65062   3.956   5.702   6.797 -0.1045 -0.6064  0.7079
21204SOL    HW165063   3.969   5.749   6.880  0.7193 -0.5735  0.5682
21204SOL    HW265064   4.032   5.725   6.744 -0.7498 -0.4291 -0.1605
21205SOL     OW65065   8.505   2.057   8.410  0.0168  0.7694  0.0024
21205SOL    HW165066   8.489   2.096   8.495 -0.0455 -0.1962  0.4471
21205SOL    HW265067   8.600   2.043   8.408  0.2353  2.1664 -0.7161
21206SOL     OW65068   5.614   3.164   6.285  0.6780 -0.3236 -0.1701
21206SOL    HW165069   5.538   3.206   6.324  0.1376 -0.6333 -0.8609
21206SOL    HW265070   5.633   3.090   6.343 -1.0884 -1.7308 -1.2718
21207SOL     OW65071   5.980   0.338   1.760 -0.2738 -0.3521 -0.2045
21207SOL    HW165072   6.007   0.406   1.698 -0.6130  0.6465  0.7145
21207SOL    HW265073   5.902   0.373   1.803  0.2624 -0.7845  1.1759
21208SOL     OW65074   5.624   3.234   7.525 -0.0184 -0.1713  0.0007
21208SOL    HW165075   5.612   3.240   7.619  0.4179  1.3631 -0.0144
21208SOL    HW265076   5.553   3.178   7.494  0.1836 -1.1744  1.2950
21209SOL     OW65077   3.212   4.470   6.666  0.2765 -0.0866  0.0689
21209SOL    HW165078   3.207   4.375   6.677  0.9341 -0.2744 -1.0716
21209SOL    HW265079   3.170   4.486   6.581  1.6994  0.4273 -0.5788
21210SOL     OW65080   2.690   4.306   5.258 -0.0469 -0.4130 -0.6868
21210SOL    HW165081   2.773   4.264   5.283 -0.7546 -1.2655  0.3635
21210SOL    HW265082   2.715   4.391   5.223  1.1051  1.7730  4.5298
21211SOL     OW65083   0.894   8.650   8.785  0.4294  0.1413 -0.0206
21211SOL    HW165084   0.828   8.696   8.732  0.2784 -1.3334 -1.1948
21211SOL    HW265085   0.870   8.670   8.876 -1.5465 -0.1938 -0.4185
21212SOL     OW65086   8.582   8.549   8.511 -0.0414 -0.8389  0.4072
21212SOL    HW165087   8.660   8.506   8.548  0.1248 -1.1216 -0.2537
21212SOL    HW265088   8.534   8.580   8.588  0.7955 -0.5271  0.8284
21213SOL     OW65089   3.166   3.478   0.646  0.2172 -0.1244 -0.1738
21213SOL    HW165090   3.131   3.549   0.592 -0.2150 -0.3435 -0.1835
21213SOL    HW265091   3.151   3.506   0.736 -0.4252 -0.4357 -0.1817
21214SOL     OW65092   5.534   1.392   1.957  0.2605  0.0932  0.8381
21214SOL    HW165093   5.501   1.480   1.940  3.3686  1.1175 -0.7238
21214SOL    HW265094   5.543   1.353   1.870 -3.1757 -2.7957  1.5635
21215SOL     OW65095   4.938   0.185   6.389  0.3427 -0.3900 -0.1309
21215SOL    HW165096   4.905   0.184   6.479  1.7946 -1.7806  0.4434
21215SOL    HW265097   5.023   0.142   6.395  0.9924  0.5379 -1.9978
21216SOL     OW65098   6.789   0.818   5.509  0.0313 -0.1433  0.1979
21216SOL    HW165099   6.713   0.777   5.549  0.1242 -2.0918 -1.4115
21216SOL    HW265100   6.756   0.857   5.429  0.3347  1.1004  0.6659
21217SOL     OW65101   1.274   5.389   1.110  0.3769 -0.7622  0.2170
21217SOL    HW165102   1.357   5.427   1.140  1.0043 -1.2693 -0.8193
21217SOL    HW265103   1.279   5.298   1.137  1.3111 -1.4375 -2.0071
21218SOL     OW65104   8.038   8.004   9.229  0.0322  0.1558  1.0741
21218SOL    HW165105   8.075   8.089   9.250 -1.3305  0.8691  0.7278
21218SOL    HW265106   8.001   8.015   9.141  0.9253 -1.1712  0.4970
21219SOL     OW65107   5.058   9.114   6.209 -0.2338 -0.8562 -0.1404
21219SOL    HW165108   5.068   9.125   6.304  0.1016  1.0238 -0.3531
21219SOL    HW265109   5.124   9.048   6.186  0.2641 -0.7253  0.8254
21220SOL     OW65110   8.440   4.457   2.401  0.3757  0.4416 -0.4030
21220SOL    HW165111   8.430   4.362   2.407 -1.6609  0.6893  1.1270
21220SOL    HW265112   8.456   4.474   2.309 -0.1326 -1.3351 -0.8509
21221SOL     OW65113   7.848   3.070   3.674  0.0913  0.0042 -0.0472
21221SOL    HW165114   7.885   3.060   3.586  1.8858 -0.5696  0.7269
21221SOL    HW265115   7.829   2.980   3.702  0.4838  0.0981  0.5279
21222SOL     OW65116   5.445   1.695   4.698  0.4076  0.1826  0.3711
21222SOL    HW165117   5.467   1.613   4.741 -2.2105  0.4126  2.4492
21222SOL    HW265118   5.381   1.671   4.630  1.0353  0.3274 -0.2845
21223SOL     OW65119   0.640   6.980   1.331 -0.1527  0.5401  0.4333
21223SOL    HW165120   0.564   7.029   1.364 -2.0158 -2.4590  1.0038
21223SOL    HW265121   0.610   6.944   1.247  1.3532  0.8596 -0.2554
21224SOL     OW65122   6.073   2.899   7.453 -0.4605 -0.2974  0.1322
21224SOL    HW165123   6.009   2.927   7.520  2.3194  1.0773  2.4310
21224SOL    HW265124   6.092   2.979   7.403 -0.9798 -0.8538 -0.9952
21225SOL     OW65125   2.380   0.424   3.165 -0.5466  0.4848  0.0559
21225SOL    HW165126   2.291   0.395   3.184 -0.6357  1.3506  1.0421
21225SOL    HW265127   2.432   0.394   3.239  0.2972 -1.2866 -1.1988
21226SOL     OW65128   3.222   3.895   4.815 -0.1023 -0.4788  0.0778
21226SOL    HW165129   3.233   3.878   4.908  0.4102 -1.0225 -0.0774
21226SOL    HW265130   3.128   3.880   4.799  0.0668 -1.8051  0.2277
21227SOL     OW65131   5.809   7.091   4.422  0.2088  0.3634 -0.2525
21227SOL    HW165132   5.721   7.109   4.454 -0.1555  0.1642 -1.1182
21227SOL    HW265133   5.853   7.050   4.497 -1.2583 -2.0185 -0.5617
21228SOL     OW65134   7.803   0.884   1.687  0.0626 -0.1426  0.3159
21228SOL    HW165135   7.805   0.846   1.599 -0.4420  0.3454  0.0879
21228SOL    HW265136   7.875   0.841   1.733 -1.0417 -2.0630  0.3563
21229SOL     OW65137   3.054   1.294   2.947 -0.2881 -0.1638  0.2850
21229SOL    HW165138   3.066   1.218   2.890 -1.4610  0.7120 -1.1987
21229SOL    HW265139   3.123   1.286   3.013 -0.0827 -2.2380 -0.1154
21230SOL     OW65140   8.363   2.256   4.973 -0.4588 -0.6196  0.7302
21230SOL    HW165141   8.288   2.228   5.026 -0.2603 -1.3039  0.6643
21230SOL    HW265142   8.359   2.351   4.974 -1.6849 -0.6405  0.2340
21231SOL     OW65143   3.113   5.036   5.290 -0.6308 -0.0376  0.1957
21231SOL    HW165144   3.155   4.962   5.247 -1.8446  0.7818 -2.6224
21231SOL    HW265145   3.105   5.010   5.381  1.5511 -2.1622 -0.1230
21232SOL     OW65146   8.015   8.633   1.380 -0.5921 -0.0700  0.0523
21232SOL    HW165147   7.972   8.714   1.407  0.0627 -0.1225  1.3363
21232SOL    HW265148   7.943   8.573   1.362 -1.0767  0.5893 -0.2797
21233SOL     OW65149   2.508   2.170   7.010 -0.0651 -0.3159 -0.0737
21233SOL    HW165150   2.471   2.189   7.096 -0.4528 -2.5126  0.2875
21233SOL    HW265151   2.433   2.148   6.955  0.2542  0.2946 -0.7766
21234SOL     OW65152   4.263   8.569   8.886  0.0154  0.0108  0.3966
21234SOL    HW165153   4.188   8.572   8.945 -0.8114 -1.8044 -0.4903
21234SOL    HW265154   4.249   8.643   8.827  1.1477  2.2063  2.6811
21235SOL     OW65155   6.012   3.349   4.975  0.1765 -0.0972 -0.0450
21235SOL    HW165156   5.972   3.406   4.909 -1.7326  0.3186  1.3486
21235SOL    HW265157   5.939   3.298   5.010  1.2470 -0.8443  1.2069
21236SOL     OW65158   7.572   5.319   3.821 -0.1401 -0.4724 -0.1716
21236SOL    HW165159   7.629   5.277   3.756 -0.3434  0.2611 -0.8305
21236SOL    HW265160   7.509   5.250   3.843  0.1025 -0.8251 -0.5389
21237SOL     OW65161   4.823   1.619   0.201 -1.1810  0.0832  0.0152
21237SOL    HW165162   4.916   1.626   0.178 -1.2458  0.9009 -0.0384
21237SOL    HW265163   4.793   1.541   0.155 -0.9965  0.9455 -1.6363
21238SOL     OW65164   4.250   0.868   4.095  0.2893  0.4784 -0.0746
21238SOL    HW165165   4.178   0.913   4.140  2.3825  1.6392  2.3567
21238SOL    HW265166   4.246   0.778   4.129 -0.4558  0.3204 -0.5560
21239SOL     OW65167   7.994   2.696   3.119  0.2129  0.0367  0.6160
21239SOL    HW165168   8.047   2.691   3.040  0.3653  0.7091  0.6669
21239SOL    HW265169   7.938   2.618   3.116  0.6807 -0.2863  0.1869
21240SOL     OW65170   2.746   1.787   0.542 -0.1313  0.1251  0.1154
21240SOL    HW165171   2.721   1.790   0.635  0.2113 -3.4389  0.4737
21240SOL    HW265172   2.683   1.843   0.498  0.5400  3.0801  2.5823
21241SOL     OW65173   3.846   5.332   5.894  0.2063 -0.6572  0.9668
21241SOL    HW165174   3.759   5.328   5.932 -0.9107 -2.0460 -1.4633
21241SOL    HW265175   3.883   5.415   5.926 -2.4505  0.5544  1.1688
21242SOL     OW65176   6.426   7.948   5.584 -0.4880 -0.3527  0.2773
21242SOL    HW165177   6.495   7.888   5.613  0.2280 -0.2439 -1.1383
21242SOL    HW265178   6.355   7.891   5.555 -0.0544 -0.5235 -0.4767
21243SOL     OW65179   0.658   3.277   3.603 -0.5322  0.0809 -0.6790
21243SOL    HW165180   0.715   3.200   3.604 -0.3539  0.1545  2.1033
21243SOL    HW265181   0.570   3.242   3.590 -0.5332 -0.7190  1.2651
21244SOL     OW65182   4.324   2.691   2.078 -0.2944  0.1089 -0.0245
21244SOL    HW165183   4.335   2.729   2.166 -0.5209  1.1459 -0.4309
21244SOL    HW265184   4.252   2.629   2.088 -0.0527 -0.0889  0.6043
21245SOL     OW65185   0.418   4.614   3.917  0.6733 -0.5482 -0.4979
21245SOL    HW165186   0.497   4.609   3.865 -0.0082  0.4153 -1.6670
21245SOL    HW265187   0.349   4.578   3.861  0.1885 -0.9476  0.3239
21246SOL     OW65188   5.004   6.658   1.503  0.0430 -0.3252  0.8232
21246SOL    HW165189   4.964   6.584   1.549  0.5008 -0.5584  0.8559
21246SOL    HW265190   5.075   6.618   1.451  0.8196  0.1899  1.4639
21247SOL     OW65191   1.631   4.794   2.779 -0.0105 -0.2605  0.7403
21247SOL    HW165192   1.621   4.859   2.708  0.5529 -0.9768 -0.0196
21247SOL    HW265193   1.642   4.847   2.858 -2.3156  0.5766  0.5863
21248SOL     OW65194   2.428   4.502   4.292  0.5757 -0.0045  0.8455
21248SOL    HW165195   2.476   4.421   4.274 -0.9291 -0.8357  0.3864
21248SOL    HW265196   2.359   4.476   4.353 -0.0966  0.8741  0.4854
21249SOL     OW65197   2.981   8.625   1.928  0.3650 -0.1819  0.2599
21249SOL    HW165198   3.037   8.548   1.941  1.5040 -0.1441 -3.3603
21249SOL    HW265199   2.908   8.593   1.875 -0.2799  0.8357  0.4998
21250SOL     OW65200   6.549   7.182   0.927 -0.3541 -0.5872 -0.1817
21250SOL    HW165201   6.565   7.269   0.964  0.0836 -1.2700  1.3093
21250SOL    HW265202   6.631   7.158   0.885 -0.7984  0.1196 -1.5127
21251SOL     OW65203   2.159   4.567   0.596 -0.1899  0.0466  0.2634
21251SOL    HW165204   2.119   4.582   0.510 -1.2876  0.2608  0.7923
21251SOL    HW265205   2.116   4.487   0.629 -0.7842  0.7158  1.1721
21252SOL     OW65206   3.771   5.131   9.008 -0.5940 -0.2887 -0.2481
21252SOL    HW165207   3.734   5.219   9.002  0.7477  0.3932  0.9255
21252SOL    HW265208   3.824   5.122   8.929  0.4566  0.5572  0.3461
21253SOL     OW65209   8.078   1.108   7.072  0.0019 -0.2151 -0.4720
21253SOL    HW165210   8.051   1.051   6.999  1.4391 -1.6427  0.0304
21253SOL    HW265211   8.146   1.057   7.117  1.4975  2.0071 -0.0833
21254SOL     OW65212   7.504   0.090   0.037  0.0342 -0.3260  0.4527
21254SOL    HW165213   7.598   0.106   0.042  0.0795  0.1032 -1.0512
21254SOL    HW265214   7.490   0.061  -0.054 -1.1966 -0.9732  0.8269
21255SOL     OW65215   0.963   4.307   4.645 -0.1350 -0.1583 -0.2945
21255SOL    HW165216   0.870   4.318   4.666  0.2149  2.4044  0.1868
21255SOL    HW265217   0.963   4.270   4.556 -1.5897 -0.8439 -0.0348
21256SOL     OW65218   4.291   3.647   7.371 -0.0778 -0.1236 -0.6101
21256SOL    HW165219   4.360   3.584   7.392 -0.6545 -0.1999  1.2105
21256SOL    HW265220   4.254   3.615   7.288 -1.2771 -3.0747  0.9068
21257SOL     OW65221   6.055   7.213   4.442  0.6035 -0.3986  0.4079
21257SOL    HW165222   5.964   7.193   4.422  0.4749 -0.2591  0.8542
21257SOL    HW265223   6.063   7.307   4.427  0.3095 -0.1439  1.7247
21258SOL     OW65224   2.876   0.063   0.785  0.7367  0.1665  0.2659
21258SOL    HW165225   2.945   0.008   0.746  1.1719 -0.4144  1.7927
21258SOL    HW265226   2.906   0.079   0.874 -1.4323 -0.7067  1.2139
21259SOL     OW65227   5.357   1.439   2.248 -0.4789 -0.1014  0.5721
21259SOL    HW165228   5.413   1.481   2.183  0.0284 -0.9365  0.4426
21259SOL    HW265229   5.289   1.396   2.198  0.0058 -0.8831  0.5607
21260SOL     OW65230   5.685   7.285   6.592 -0.3849  0.1249 -0.0368
21260SOL    HW165231   5.768   7.238   6.589 -0.5212 -0.1672  0.6804
21260SOL    HW265232   5.619   7.217   6.604 -0.8016  0.2904 -1.2222
21261SOL     OW65233   2.471   6.761   7.501  0.2922  0.2858 -0.0975
21261SOL    HW165234   2.449   6.785   7.411 -0.0799  1.6130  0.3289
21261SOL    HW265235   2.465   6.665   7.502 -0.2939  0.2860 -1.3227
21262SOL     OW65236   2.052   5.882   5.002  0.5488 -0.1819 -0.2417
21262SOL    HW165237   2.134   5.842   4.974  0.0637 -1.7632  0.5072
21262SOL    HW265238   1.983   5.828   4.964 -0.1411  0.3378  0.2268
21263SOL     OW65239   9.102   5.279   8.386  0.1645  0.3846 -0.0815
21263SOL    HW165240   9.094   5.189   8.354 -0.1827  0.3790  0.0185
21263SOL    HW265241   9.164   5.320   8.326 -1.1206  0.6174 -1.3135
21264SOL     OW65242   1.172   3.056   5.220 -0.1124 -0.5497 -0.2043
21264SOL    HW165243   1.195   2.979   5.272  2.2267  0.1383 -0.1254
21264SOL    HW265244   1.187   3.130   5.279 -1.4042  0.0617 -0.5942
21265SOL     OW65245   2.084   4.602   8.373  0.5135 -0.1525 -0.0628
21265SOL    HW165246   2.002   4.593   8.421 -0.9573  1.3310 -2.1301
21265SOL    HW265247   2.100   4.515   8.336 -0.4975 -0.2857 -0.1997
21266SOL     OW65248   1.286   2.997   0.248  0.3443 -0.4014  0.1172
21266SOL    HW165249   1.302   3.069   0.186  1.7846 -0.6852  0.1066
21266SOL    HW265250   1.222   2.942   0.204 -1.2248  1.1416  0.3723
21267SOL     OW65251   1.182   4.516   1.519 -0.6616 -0.0650  0.1575
21267SOL    HW165252   1.259   4.572   1.519 -2.1585  2.0909 -0.1037
21267SOL    HW265253   1.160   4.505   1.427 -0.4300 -1.0953  0.2036
21268SOL     OW65254   5.106   9.100   7.607 -0.2715 -0.6857  0.0322
21268SOL    HW165255   5.188   9.066   7.569 -0.0177 -1.3933  1.1618
21268SOL    HW265256   5.118   9.195   7.608  1.4036 -0.8465  1.9547
21269SOL     OW65257   0.248   4.581   1.835  0.1625 -0.4984  0.5827
21269SOL    HW165258   0.165   4.622   1.811  0.1218 -1.1092 -0.3672
21269SOL    HW265259   0.253   4.589   1.930 -1.4220 -1.2839  0.7490
21270SOL     OW65260   4.118   7.407   4.014  0.1109 -0.2348 -0.1611
21270SOL    HW165261   4.030   7.371   4.004 -0.6813  1.9753 -1.9933
21270SOL    HW265262   4.115   7.457   4.095  0.3587 -1.8295  0.8722
21271SOL     OW65263   3.436   4.097   5.478 -0.4166 -0.2235  0.1738
21271SOL    HW165264   3.448   4.157   5.551 -0.1314 -0.2492  0.1527
21271SOL    HW265265   3.477   4.141   5.404  0.8577 -0.9336  0.4119
21272SOL     OW65266   0.690   5.857   9.120 -0.2225  0.1408 -0.2682
21272SOL    HW165267   0.678   5.896   9.034  0.2574  0.6732 -0.0972
21272SOL    HW265268   0.724   5.928   9.175 -1.7609  0.1689  0.7037
21273SOL     OW65269   3.084   1.026   0.232  0.4666  0.1664  0.1971
21273SOL    HW165270   2.992   1.047   0.247  0.8859  0.9602  2.0031
21273SOL    HW265271   3.130   1.071   0.303  2.0769 -1.7786  0.4574
21274SOL     OW65272   5.890   1.951   1.564 -0.0580  0.1892  1.1072
21274SOL    HW165273   5.931   2.034   1.587  0.0003  0.5218 -0.0999
21274SOL    HW265274   5.903   1.943   1.469 -1.2927 -0.5121  0.9610
21275SOL     OW65275   1.200   7.735   0.356 -0.2854  0.0001  0.2283
21275SOL    HW165276   1.195   7.684   0.275  1.6160 -0.6786  0.4834
21275SOL    HW265277   1.120   7.713   0.404 -3.3918  3.1705 -2.9230
21276SOL     OW65278   4.475   5.187   1.959 -0.2825  0.2213  0.2827
21276SOL    HW165279   4.494   5.256   1.895 -2.9282 -1.0894 -2.0936
21276SOL    HW265280   4.406   5.225   2.014 -0.1750  0.2496  0.3983
21277SOL     OW65281   4.823   5.460   7.311 -0.1034 -0.1485  0.6969
21277SOL    HW165282   4.828   5.366   7.330  0.0808 -0.1642  0.5701
21277SOL    HW265283   4.796   5.500   7.394 -2.0326 -0.5026  0.2725
21278SOL     OW65284   0.012   1.910   1.971  0.2925 -0.7071  0.4316
21278SOL    HW165285   0.072   1.920   1.896 -1.3862  1.3075 -0.7529
21278SOL    HW265286  -0.064   1.864   1.935 -0.3281 -0.1617  1.0125
21279SOL     OW65287   2.500   1.816   6.960  0.4631 -0.0945 -0.1593
21279SOL    HW165288   2.509   1.727   6.994  2.4838  0.5826  1.3087
21279SOL    HW265289   2.428   1.854   7.010 -0.3247 -0.8393 -0.7036
21280SOL     OW65290   4.451   8.589   1.104 -0.1917  0.3536  0.0393
21280SOL    HW165291   4.422   8.647   1.175 -1.0289  0.7710 -0.6354
21280SOL    HW265292   4.428   8.636   1.024  0.3681 -0.3087 -0.5132
21281SOL     OW65293   6.330   2.013   8.253 -0.0361  0.3435 -0.6203
21281SOL    HW165294   6.383   1.977   8.324 -0.5947 -1.3264 -1.0071
21281SOL    HW265295   6.241   2.015   8.289 -0.1676  0.3835 -0.9481
21282SOL     OW65296   0.176   4.571   5.269 -0.9657  0.3738 -0.3567
21282SOL    HW165297   0.215   4.656   5.253  0.1704  0.0057  0.3343
21282SOL    HW265298   0.082   4.587   5.272 -0.9027  1.2778 -2.1199
21283SOL     OW65299   8.326   5.451   8.645  0.3422 -0.0892 -0.1345
21283SOL    HW165300   8.325   5.470   8.739 -2.1754 -0.2206 -0.0696
21283SOL    HW265301   8.413   5.479   8.616  1.1194  0.1092  2.1883
21284SOL     OW65302   5.362   4.632   8.181 -0.1609  0.4963  0.1918
21284SOL    HW165303   5.270   4.654   8.192  0.2484  2.5420  0.0080
21284SOL    HW265304   5.388   4.593   8.264 -1.6547 -2.1880 -0.4921
21285SOL     OW65305   0.223   2.449   4.777 -0.1128  0.4441 -0.0756
21285SOL    HW165306   0.230   2.540   4.807  0.7036  0.5718 -0.6360
21285SOL    HW265307   0.218   2.398   4.858  1.7163  0.8135  0.3173
21286SOL     OW65308   1.126   8.461   5.603  0.8267 -0.5088 -0.0288
21286SOL    HW165309   1.150   8.519   5.675 -2.1743 -0.1938  0.8515
21286SOL    HW265310   1.124   8.374   5.641  1.0471 -0.5974 -0.2173
21287SOL     OW65311   1.937   1.471   5.031 -0.8623 -0.2328 -0.1845
21287SOL    HW165312   1.977   1.533   5.092 -0.3054 -0.1667 -0.6170
21287SOL    HW265313   1.845   1.497   5.027 -0.4290  1.2759 -1.2214
21288SOL     OW65314   1.155   5.786   1.727  0.0120  0.3932 -0.1051
21288SOL    HW165315   1.159   5.770   1.633  0.1306 -1.4137  0.1734
21288SOL    HW265316   1.068   5.757   1.753 -0.5711  2.2505  0.1480
21289SOL     OW65317   2.158   5.425   3.110 -0.0991 -0.4985  0.8099
21289SOL    HW165318   2.240   5.471   3.123 -0.1141  0.2513 -1.3421
21289SOL    HW265319   2.165   5.347   3.165 -0.1617  2.0182  4.8035
21290SOL     OW65320   7.234   6.697   8.031  0.1830  0.3707 -0.7950
21290SOL    HW165321   7.185   6.641   7.971 -0.2582  1.3755 -1.4032
21290SOL    HW265322   7.292   6.749   7.975  0.8471  0.2736 -0.2154
21291SOL     OW65323   0.779   6.437   0.731  0.2334  0.1023  0.4057
21291SOL    HW165324   0.869   6.419   0.757  0.6099 -0.1923 -0.9978
21291SOL    HW265325   0.749   6.356   0.690 -1.1484 -0.2535  2.0353
21292SOL     OW65326   6.982   2.059   0.464 -0.0398  0.4747 -0.1999
21292SOL    HW165327   6.957   2.041   0.555  2.3448 -1.3920  0.2129
21292SOL    HW265328   7.007   2.151   0.464  1.4801  0.1357  1.5274
21293SOL     OW65329   4.924   3.817   6.592 -0.2937  0.3701  0.4236
21293SOL    HW165330   4.924   3.856   6.680 -0.9241 -0.2046  0.6919
21293SOL    HW265331   4.986   3.745   6.598  0.9024  1.3319 -0.0844
21294SOL     OW65332   5.006   1.211   4.536  0.3707 -0.1456 -0.1700
21294SOL    HW165333   5.025   1.224   4.443  0.9869 -1.1052 -0.1956
21294SOL    HW265334   4.925   1.260   4.551  0.1274 -0.1824 -1.2715
21295SOL     OW65335   8.206   2.607   6.394 -0.2104  0.4190 -0.2482
21295SOL    HW165336   8.193   2.650   6.310  0.1630  1.1938  0.0834
21295SOL    HW265337   8.227   2.516   6.371 -0.0502  0.6359 -0.9941
21296SOL     OW65338   0.601   3.726   9.104  0.1145 -0.3195 -0.4755
21296SOL    HW165339   0.654   3.724   9.184  0.7992  0.9392 -0.8662
21296SOL    HW265340   0.638   3.658   9.048  0.6209 -0.1828 -0.3113
21297SOL     OW65341   1.680   5.910   6.728  0.2410  0.2432 -0.3165
21297SOL    HW165342   1.760   5.928   6.778 -0.1575  0.7254  0.1530
21297SOL    HW265343   1.701   5.938   6.639  0.5871  0.3908 -0.1910
21298SOL     OW65344   6.932   7.987   5.503  0.5265 -0.3362  0.0398
21298SOL    HW165345   6.920   7.940   5.586  2.0181 -1.9465 -0.6265
21298SOL    HW265346   6.857   8.048   5.500 -1.8806 -3.0450  0.6475
21299SOL     OW65347   0.489   2.265   8.052 -0.0291 -0.0230  0.9557
21299SOL    HW165348   0.503   2.240   8.143 -1.9713  2.8386  2.1813
21299SOL    HW265349   0.565   2.320   8.031 -0.3669  0.6408  1.4335
21300SOL     OW65350   8.479   4.687   3.625 -0.3415  0.3912  0.0305
21300SOL    HW165351   8.452   4.687   3.716  1.4166  0.5418  0.5951
21300SOL    HW265352   8.427   4.618   3.584 -0.6833 -0.1193  1.2898
21301SOL     OW65353   5.836   3.418   5.283 -0.2474 -0.0770 -0.2564
21301SOL    HW165354   5.891   3.487   5.245 -0.9944  0.9015  0.3627
21301SOL    HW265355   5.896   3.346   5.301  0.7402  0.7677 -0.0661
21302SOL     OW65356   3.154   0.139   1.151  0.5246  0.1784  0.3647
21302SOL    HW165357   3.110   0.155   1.067  1.8475  0.1918 -0.3550
21302SOL    HW265358   3.166   0.044   1.155  2.3904  0.3098 -0.5426
21303SOL     OW65359   7.968   2.115   3.626 -0.1561  0.1118  0.1654
21303SOL    HW165360   7.889   2.131   3.575  0.4303  0.2776 -0.7122
21303SOL    HW265361   8.035   2.170   3.584  0.5822 -0.5251  0.4890
21304SOL     OW65362   3.882   8.374   5.217  0.7443 -0.1409 -0.2659
21304SOL    HW165363   3.818   8.353   5.148  1.0293  1.1955 -0.9783
21304SOL    HW265364   3.967   8.353   5.178  0.9922  1.6784 -0.7869
21305SOL     OW65365   0.860   1.158   3.493  0.6641 -0.1068  0.1125
21305SOL    HW165366   0.864   1.141   3.587  0.6220  1.3272  0.4003
21305SOL    HW265367   0.857   1.254   3.486  1.8229 -0.1415 -1.3969
21306SOL     OW65368   4.231   1.391   3.794  0.4371  0.3762  1.1101
21306SOL    HW165369   4.227   1.314   3.737 -1.4860  0.2890  1.3166
21306SOL    HW265370   4.242   1.464   3.734  2.8284 -0.0317  0.9369
21307SOL     OW65371   0.534   8.279   4.451 -0.4288  0.3797  0.6144
21307SOL    HW165372   0.562   8.241   4.368  0.1088  1.6452  0.1874
21307SOL    HW265373   0.439   8.285   4.444 -0.3261  1.1709 -0.2310
21308SOL     OW65374   8.101   1.750   4.176  0.7363  0.3020 -0.7286
21308SOL    HW165375   8.032   1.728   4.238 -0.0414  1.1620 -1.2687
21308SOL    HW265376   8.145   1.666   4.158 -1.0688 -0.5438 -1.4622
21309SOL     OW65377   8.206   0.020   1.219 -0.1768 -0.0425  0.5192
21309SOL    HW165378   8.224   0.107   1.183  0.4755 -0.7403 -0.9298
21309SOL    HW265379   8.245   0.022   1.306 -2.0519  1.8014  1.4109
21310SOL     OW65380   3.928   7.922   2.118 -0.1569  0.4219 -0.6674
21310SOL    HW165381   3.925   8.006   2.071  1.1928  0.6782 -0.3437
21310SOL    HW265382   4.003   7.931   2.177 -1.2111 -0.2782  0.8159
21311SOL     OW65383   2.322   2.774   7.391  0.2255  0.2582 -0.0043
21311SOL    HW165384   2.397   2.820   7.353  0.5892  0.3166  0.7555
21311SOL    HW265385   2.337   2.779   7.486  0.1397 -1.2241  0.0992
21312SOL     OW65386   5.130   1.497   6.281  0.1920 -0.2092  0.0752
21312SOL    HW165387   5.186   1.445   6.339  1.3396  1.5329  0.6110
21312SOL    HW265388   5.055   1.440   6.263  0.1020 -1.0769  2.7232
21313SOL     OW65389   8.911   0.321   0.899  0.0168 -0.5343  0.0802
21313SOL    HW165390   9.001   0.290   0.898 -0.1491 -1.0703  1.0850
21313SOL    HW265391   8.903   0.371   0.980 -0.6900 -0.7990  0.1839
21314SOL     OW65392   5.351   0.160   4.801 -0.3062  0.0972 -0.1099
21314SOL    HW165393   5.397   0.076   4.799 -0.5306 -0.0261 -1.3679
21314SOL    HW265394   5.263   0.139   4.768 -0.2000  0.9014 -0.9354
21315SOL     OW65395   1.534   1.498   3.351  0.6737 -0.3359  0.0961
21315SOL    HW165396   1.561   1.408   3.330 -0.5095 -0.5748 -0.4830
21315SOL    HW265397   1.440   1.492   3.366  0.5785  0.8106  0.0488
21316SOL     OW65398   5.308   6.082   0.976  0.0608 -0.0626 -0.2249
21316SOL    HW165399   5.218   6.051   0.964  0.3365 -0.4111 -1.6960
21316SOL    HW265400   5.346   6.024   1.042 -1.2685  1.1739  1.7122
21317SOL     OW65401   8.806   5.844   9.033 -0.0891 -0.0926  0.1142
21317SOL    HW165402   8.726   5.897   9.035 -0.5956 -0.8506  1.7090
21317SOL    HW265403   8.875   5.902   9.065 -0.1906  0.2834 -0.3481
21318SOL     OW65404   6.385   7.217   4.239  0.3080  0.1076  0.4360
21318SOL    HW165405   6.453   7.226   4.172  1.3979 -1.1983  1.2911
21318SOL    HW265406   6.311   7.267   4.206  1.8701  2.1061 -0.2800
21319SOL     OW65407   3.695   0.011   8.451 -0.1774 -0.1536  0.2513
21319SOL    HW165408   3.769   0.022   8.392  2.4151  0.2937  3.2773
21319SOL    HW265409   3.628   0.071   8.418  0.8082 -0.4527 -2.5154
21320SOL     OW65410   1.139   7.107   1.088 -0.2573 -0.4135 -0.2316
21320SOL    HW165411   1.167   7.024   1.127 -2.5177 -1.4910 -0.7181
21320SOL    HW265412   1.082   7.081   1.016  0.6520  1.5771 -1.7696
21321SOL     OW65413   3.774   2.705   7.956 -0.3835  0.1420  0.1850
21321SOL    HW165414   3.710   2.723   7.887 -1.7944  0.0330  1.3983
21321SOL    HW265415   3.789   2.610   7.950 -1.5457 -0.1049  0.8518
21322SOL     OW65416   1.054   1.272   4.459  0.3149 -0.4928 -0.1108
21322SOL    HW165417   1.027   1.355   4.500  0.5531 -0.0578 -0.8248
21322SOL    HW265418   1.146   1.262   4.484  0.7277  0.2332 -1.2541
21323SOL     OW65419   3.652   4.064   2.093  0.2468  0.0702 -0.1480
21323SOL    HW165420   3.591   3.996   2.125 -0.5323 -0.3513 -2.3728
21323SOL    HW265421   3.605   4.146   2.107 -0.7322 -0.2252 -1.5121
21324SOL     OW65422   7.559   1.366   8.447  0.2388  0.1197  0.1304
21324SOL    HW165423   7.633   1.308   8.431 -0.4091 -0.8167  0.4210
21324SOL    HW265424   7.560   1.428   8.374  1.1019 -0.0914 -0.0423
21325SOL     OW65425   0.092   4.075   6.653  0.6115 -0.1834  0.2211
21325SOL    HW165426   0.106   4.115   6.568  1.9327 -1.5014 -0.2207
21325SOL    HW265427   0.151   4.000   6.655 -1.2040 -1.6837  1.3081
21326SOL     OW65428   0.303   4.551   4.160  0.0844 -0.4458  0.0434
21326SOL    HW165429   0.365   4.588   4.096 -0.2624  1.3100  0.6557
21326SOL    HW265430   0.351   4.553   4.243  0.2123 -1.8544  0.0171
21327SOL     OW65431   7.697   2.688   6.708 -0.1217  0.4324  0.4754
21327SOL    HW165432   7.777   2.636   6.714 -0.2550 -0.2160 -2.0970
21327SOL    HW265433   7.728   2.779   6.708  0.4986  0.2279  0.7546
21328SOL     OW65434   6.307   3.569   0.621 -1.1055  0.1929  0.5132
21328SOL    HW165435   6.364   3.495   0.638  2.6523  3.1670  2.4320
21328SOL    HW265436   6.339   3.607   0.540 -2.4949  0.2402 -0.0518
21329SOL     OW65437   0.797   5.118   1.358 -0.0699  1.1878  0.3860
21329SOL    HW165438   0.731   5.127   1.426  0.6001  2.8343  0.8665
21329SOL    HW265439   0.843   5.037   1.381 -2.0597 -0.1457 -0.1378
21330SOL     OW65440   7.599   0.867   5.592  0.0003  0.3197  0.2480
21330SOL    HW165441   7.526   0.824   5.547  1.3969  0.1819 -2.0161
21330SOL    HW265442   7.662   0.797   5.609  1.2411  0.9851 -1.3141
21331SOL     OW65443   4.080   6.502   5.059 -0.2640  0.5819 -0.1198
21331SOL    HW165444   4.040   6.581   5.096 -2.5968 -0.5929  0.0503
21331SOL    HW265445   4.063   6.508   4.965 -1.9708 -0.4654  0.0851
21332SOL     OW65446   0.525   3.045   9.101  0.7213 -0.1997  0.5331
21332SOL    HW165447   0.492   3.135   9.105  1.1025  0.0090 -0.5312
21332SOL    HW265448   0.616   3.052   9.132  0.8806 -0.1419  0.0565
21333SOL     OW65449   3.976   2.803   3.906  0.2854 -0.2851 -0.1725
21333SOL    HW165450   3.963   2.753   3.825 -0.3369  0.1152 -0.3261
21333SOL    HW265451   4.071   2.807   3.916  0.3581 -0.8312 -0.5743
21334SOL     OW65452   1.525   0.360   9.050  0.1166  0.2331 -0.0353
21334SOL    HW165453   1.557   0.300   9.118 -0.0065  0.0251 -0.1618
21334SOL    HW265454   1.600   0.417   9.031  0.0872  0.4360  0.4314
21335SOL     OW65455   0.317   1.944   4.498  0.0316  0.2278 -0.5369
21335SOL    HW165456   0.284   2.022   4.542 -1.8192 -0.3048 -0.8959
21335SOL    HW265457   0.412   1.956   4.497 -0.1389  2.0398  0.1941
21336SOL     OW65458   1.971   2.321   7.542  0.3265  0.1095  0.2059
21336SOL    HW165459   2.015   2.236   7.546  0.0221 -0.0126  1.7381
21336SOL    HW265460   2.038   2.382   7.512  0.4965 -0.6953 -1.0970
21337SOL     OW65461   6.447   6.290   6.218  0.3432 -0.1336  0.1130
21337SOL    HW165462   6.519   6.351   6.199  0.3398 -0.5048 -1.2138
21337SOL    HW265463   6.383   6.343   6.266  1.0554  0.4659  0.4212
21338SOL     OW65464   3.623   4.714   8.178  0.3300 -0.0613  0.3959
21338SOL    HW165465   3.633   4.808   8.162  0.8257 -0.3420 -1.0459
21338SOL    HW265466   3.530   4.697   8.162  0.1217  0.2697  1.2053
21339SOL     OW65467   6.026   2.928   8.095 -0.0189  0.6612  0.0420
21339SOL    HW165468   5.985   2.860   8.148  0.7436  0.7194  0.7287
21339SOL    HW265469   6.066   2.988   8.159  2.0404  0.0291 -0.5813
21340SOL     OW65470   5.600   6.038   6.178  0.1784 -0.7704  0.8820
21340SOL    HW165471   5.659   5.963   6.176 -0.4712 -1.3434 -1.9221
21340SOL    HW265472   5.647   6.107   6.130 -0.1461 -0.1469  1.4422
21341SOL     OW65473   7.882   7.034   5.951  0.2842 -0.1816 -0.8319
21341SOL    HW165474   7.790   7.010   5.936  0.4404 -0.2265 -1.7607
21341SOL    HW265475   7.904   6.992   6.034 -0.1328 -1.3171 -1.2800
21342SOL     OW65476   6.153   0.672   6.462 -0.8005 -0.4793 -0.2198
21342SOL    HW165477   6.178   0.713   6.545 -0.0824  0.2423 -0.7746
21342SOL    HW265478   6.065   0.704   6.445 -0.4306  0.4654 -0.4037
21343SOL     OW65479   5.598   4.758   8.708  0.1620 -0.0187  0.2710
21343SOL    HW165480   5.656   4.829   8.681 -0.3934  0.6275  0.7350
21343SOL    HW265481   5.604   4.756   8.803  0.6314 -1.0039  0.2294
21344SOL     OW65482   8.067   6.193   1.814 -0.2572 -0.2212 -0.2648
21344SOL    HW165483   7.996   6.165   1.872 -0.7242  1.1424 -0.1661
21344SOL    HW265484   8.038   6.276   1.778  0.7250 -0.2884 -1.2496
21345SOL     OW65485   2.126   7.826   8.882 -0.8478  0.1440  0.4085
21345SOL    HW165486   2.193   7.844   8.816 -1.1752 -0.1085  0.0028
21345SOL    HW265487   2.043   7.831   8.834 -1.0541 -0.5888  0.6825
21346SOL     OW65488   9.237   0.993   3.011  0.1047  0.1738  0.1918
21346SOL    HW165489   9.171   0.972   2.944 -0.3496 -2.1259  1.2335
21346SOL    HW265490   9.200   1.067   3.058 -1.4327 -0.6077  0.2815
21347SOL     OW65491   1.975   7.180   1.643  0.2570  0.2443 -0.1109
21347SOL    HW165492   1.936   7.108   1.594 -0.0655  0.3828 -0.0580
21347SOL    HW265493   1.949   7.259   1.596  0.0011  0.3750  0.2433
21348SOL     OW65494   2.412   8.708   7.698 -0.3313 -1.1557 -0.2514
21348SOL    HW165495   2.505   8.698   7.714 -0.0292 -0.3551 -1.4100
21348SOL    HW265496   2.400   8.801   7.680 -1.4552 -1.1455  0.4431
21349SOL     OW65497   5.288   2.347   8.097  0.3482  0.2629 -0.6363
21349SOL    HW165498   5.378   2.362   8.125  0.4715 -2.4328  0.7544
21349SOL    HW265499   5.254   2.282   8.159 -2.0817  0.1001 -2.0090
21350SOL     OW65500   7.853   1.207   5.682  0.4548  0.1849  0.4650
21350SOL    HW165501   7.926   1.145   5.689 -0.6615 -1.0757  1.5215
21350SOL    HW265502   7.886   1.288   5.720  0.9053 -0.7665  2.2033
21351SOL     OW65503   8.960   6.549   3.002 -0.4271 -0.1514 -0.0238
21351SOL    HW165504   8.879   6.501   2.985 -0.2175 -0.7628  0.6391
21351SOL    HW265505   8.950   6.584   3.090  0.1317 -0.4520  0.1657
21352SOL     OW65506   0.525   0.900   7.366 -0.0682 -0.2983 -0.3225
21352SOL    HW165507   0.506   0.939   7.451 -0.7176 -1.3674  0.0404
21352SOL    HW265508   0.450   0.843   7.349  1.4725 -2.4876 -0.1834
21353SOL     OW65509   4.979   6.372   3.580  0.0529 -0.0439 -0.4908
21353SOL    HW165510   4.980   6.419   3.663 -0.1842  0.2063 -0.6273
21353SOL    HW265511   4.968   6.280   3.604  0.4468 -0.0250 -0.2268
21354SOL     OW65512   1.778   5.912   7.477  0.2059 -0.1477 -0.0601
21354SOL    HW165513   1.723   5.922   7.555  0.8477  2.9250  0.0861
21354SOL    HW265514   1.814   5.999   7.461  1.9510 -1.2092 -2.4557
21355SOL     OW65515   0.646   2.428   1.678  0.2419 -0.1791 -0.2999
21355SOL    HW165516   0.576   2.390   1.732  0.1655 -0.6785 -0.7455
21355SOL    HW265517   0.727   2.402   1.723  0.1442  2.6372  1.7357
21356SOL     OW65518   1.110   0.974   5.911 -0.0849 -0.6148 -0.3842
21356SOL    HW165519   1.071   0.887   5.913 -0.3945 -0.5505 -1.9413
21356SOL    HW265520   1.177   0.968   5.842 -0.2709  0.4255 -0.6735
21357SOL     OW65521   0.348   2.801   4.467  0.0003 -0.1868 -0.1154
21357SOL    HW165522   0.263   2.816   4.424 -0.5457  0.2735  1.0911
21357SOL    HW265523   0.398   2.880   4.448  0.4789 -0.7877 -1.5014
21358SOL     OW65524   6.099   6.539   5.764 -0.2241 -0.2110 -0.1760
21358SOL    HW165525   6.110   6.483   5.687 -0.1871 -2.1899  1.2063
21358SOL    HW265526   6.080   6.478   5.836 -2.6339  1.7274  0.9763
21359SOL     OW65527   5.741   5.100   3.281  0.8580  0.6674  0.1329
21359SOL    HW165528   5.707   5.171   3.335  0.1355  0.8618 -0.5633
21359SOL    HW265529   5.824   5.134   3.247  0.5442  1.1534 -0.1521
21360SOL     OW65530   6.437   2.693   1.492 -0.0544 -0.4359  0.2483
21360SOL    HW165531   6.492   2.762   1.528  1.1584 -1.7559  1.0502
21360SOL    HW265532   6.392   2.656   1.568  0.0120 -1.1072 -0.0279
21361SOL     OW65533   7.806   0.722   0.612 -0.2776 -0.0101  0.4891
21361SOL    HW165534   7.833   0.796   0.666  1.2973  0.5814 -1.0088
21361SOL    HW265535   7.887   0.685   0.579 -1.1148 -1.4240 -0.0729
21362SOL     OW65536   7.406   0.038   8.026 -0.3915 -0.2712 -0.4328
21362SOL    HW165537   7.311   0.045   8.016 -0.4358  1.1347  0.6355
21362SOL    HW265538   7.417  -0.016   8.104 -0.3432  0.1882 -0.1172
21363SOL     OW65539   6.407   2.466   4.589 -0.1562  0.1897  0.2603
21363SOL    HW165540   6.501   2.457   4.571 -0.4800  0.0861 -1.5914
21363SOL    HW265541   6.403   2.526   4.663  1.4151 -1.4242  1.7524
21364SOL     OW65542   5.847   1.217   1.942  0.1912  0.4599  0.0218
21364SOL    HW165543   5.800   1.231   2.024  1.6182 -0.8967  1.1426
21364SOL    HW265544   5.896   1.298   1.928 -0.3842  0.8531  0.2941
21365SOL     OW65545   5.805   4.933   7.177 -0.3052  0.9273 -0.0159
21365SOL    HW165546   5.889   4.961   7.139 -1.1044  1.2824 -1.6138
21365SOL    HW265547   5.824   4.920   7.270  1.2632  2.0350 -0.1411
21366SOL     OW65548   1.939   0.908   5.665 -0.1328  0.1240 -0.4057
21366SOL    HW165549   1.845   0.915   5.647  0.0526  2.2167 -0.8170
21366SOL    HW265550   1.977   0.874   5.584 -0.1034  3.2389 -1.8487
21367SOL     OW65551   3.584   3.117   0.116  0.6057 -0.7492 -0.1541
21367SOL    HW165552   3.538   3.052   0.063  1.7494 -0.1250 -1.9868
21367SOL    HW265553   3.530   3.196   0.109 -0.1542 -1.1186  1.1015
21368SOL     OW65554   7.208   0.373   6.764 -0.0892  0.1284  0.3525
21368SOL    HW165555   7.187   0.426   6.687  2.0056 -1.6833 -1.5849
21368SOL    HW265556   7.228   0.437   6.832 -0.7745  1.8043 -0.9480
21369SOL     OW65557   4.902   4.406   8.144  0.2894 -0.2171 -0.0694
21369SOL    HW165558   4.826   4.348   8.134  1.2687 -1.9604  1.7340
21369SOL    HW265559   4.875   4.470   8.210 -0.5561  1.0332 -1.5598
21370SOL     OW65560   7.247   4.957   0.545 -0.4585  0.1479  0.9197
21370SOL    HW165561   7.299   4.884   0.579  1.0952  0.6764 -0.1871
21370SOL    HW265562   7.293   5.035   0.576  0.0833  0.6318 -1.0117
21371SOL     OW65563   2.907   5.139   3.717 -0.0984 -0.3930 -0.6545
21371SOL    HW165564   2.879   5.177   3.633  0.5214  0.0850 -0.6490
21371SOL    HW265565   2.905   5.044   3.701  0.5352 -0.2954 -1.3853
21372SOL     OW65566   4.439   4.107   2.791  0.8955 -0.2709 -0.1389
21372SOL    HW165567   4.392   4.047   2.849 -0.2365 -0.3931 -1.1542
21372SOL    HW265568   4.396   4.099   2.707 -0.1901  2.9168 -0.0338
21373SOL     OW65569   5.968   0.795   9.149 -0.4097 -0.1466 -0.4387
21373SOL    HW165570   5.889   0.812   9.200  0.0041  1.8644 -0.3868
21373SOL    HW265571   5.968   0.863   9.081  2.0958  1.0351  0.5906
21374SOL     OW65572   2.088   2.476   5.811  0.3410 -0.2920 -0.3151
21374SOL    HW165573   2.018   2.421   5.845  0.0063 -0.8231 -1.8025
21374SOL    HW265574   2.136   2.419   5.750  0.6171  0.7569 -1.1066
21375SOL     OW65575   4.964   3.699   0.591 -0.0659  0.4022 -0.2633
21375SOL    HW165576   5.008   3.782   0.612  1.0788  0.2748 -1.9497
21375SOL    HW265577   5.014   3.664   0.517 -1.1071 -1.3461 -0.1829
21376SOL     OW65578   0.036   1.465   1.586  0.1825 -0.7335  0.3091
21376SOL    HW165579   0.056   1.557   1.570 -1.0247 -0.5380 -0.1859
21376SOL    HW265580   0.095   1.417   1.528  0.2147 -0.2392 -0.0708
21377SOL     OW65581   3.458   5.595   8.727 -0.6314 -0.5896  0.8030
21377SOL    HW165582   3.548   5.625   8.720 -1.4816  1.7347 -2.6872
21377SOL    HW265583   3.413   5.663   8.777 -0.5407 -1.6234  2.3322
21378SOL     OW65584   2.334   8.824   8.252 -0.0151 -0.2896  0.7322
21378SOL    HW165585   2.351   8.917   8.258  0.9165 -0.4532  0.7938
21378SOL    HW265586   2.298   8.811   8.164  0.1487  0.0790  0.6122
21379SOL     OW65587   6.141   0.947   0.518  0.4048  0.1305 -0.0100
21379SOL    HW165588   6.143   1.034   0.478 -0.7151  0.7839  1.2988
21379SOL    HW265589   6.178   0.959   0.605 -0.0724 -0.6329  0.3069
21380SOL     OW65590   6.662   5.011   9.267  0.2489 -0.0449 -0.3201
21380SOL    HW165591   6.755   5.033   9.275  0.4116 -1.1122  1.0613
21380SOL    HW265592   6.661   4.926   9.223 -0.0053 -0.5474  0.6373
21381SOL     OW65593   2.171   0.523   3.746 -0.6122  0.4895 -0.4468
21381SOL    HW165594   2.108   0.595   3.753 -1.2279  0.1027 -1.6577
21381SOL    HW265595   2.199   0.525   3.655 -1.5753 -1.5449 -0.8510
21382SOL     OW65596   4.491   0.648   3.603 -0.4990 -0.4045 -0.0735
21382SOL    HW165597   4.400   0.626   3.582 -1.0885  1.9169 -0.2362
21382SOL    HW265598   4.528   0.567   3.638 -1.8494 -2.1350 -2.3972
21383SOL     OW65599   0.339   1.437   2.104  0.1589 -0.0954  0.6954
21383SOL    HW165600   0.420   1.412   2.148  0.3236  1.2013  1.1983
21383SOL    HW265601   0.366   1.468   2.018  0.0523 -0.7889  0.4054
21384SOL     OW65602   0.396   0.377   3.664 -0.6730 -0.1349  0.2684
21384SOL    HW165603   0.452   0.434   3.611 -0.6719 -0.6001 -0.2406
21384SOL    HW265604   0.352   0.436   3.725 -1.0555  0.4810 -0.5889
21385SOL     OW65605   4.818   4.703   7.292 -0.4087  0.1909  0.4402
21385SOL    HW165606   4.864   4.751   7.361  0.7173 -0.5011  0.1965
21385SOL    HW265607   4.880   4.635   7.265 -1.4753 -0.5873 -0.1087
21386SOL     OW65608   1.671   3.972   7.464 -0.1726 -0.2561 -0.0604
21386SOL    HW165609   1.614   3.895   7.470 -0.1645 -0.1784  1.6297
21386SOL    HW265610   1.758   3.937   7.450  0.0366 -0.6828  2.0264
21387SOL     OW65611   0.327   2.811   5.982 -0.3540  0.3307  0.1123
21387SOL    HW165612   0.275   2.746   5.936 -1.3018  0.3180  1.1623
21387SOL    HW265613   0.273   2.890   5.981 -1.0402 -0.0314  2.3341
21388SOL     OW65614   6.506   6.110   3.197  0.8329  0.3807  0.2496
21388SOL    HW165615   6.535   6.189   3.151  0.1907 -0.0449 -0.9228
21388SOL    HW265616   6.579   6.088   3.254  0.7080  2.2812  1.2291
21389SOL     OW65617   4.462   8.123   6.339  0.2848  0.2196  0.3505
21389SOL    HW165618   4.412   8.089   6.264  1.3367  1.0414 -0.7602
21389SOL    HW265619   4.404   8.188   6.378  0.0055  0.2963 -0.1810
21390SOL     OW65620   3.620   0.511   8.350  0.1219 -0.4360  0.1930
21390SOL    HW165621   3.612   0.606   8.340 -1.5765 -0.6118 -0.3948
21390SOL    HW265622   3.595   0.494   8.441 -0.7728 -0.4229 -0.0433
21391SOL     OW65623   6.554   7.834   9.036  0.4060  0.0355 -0.6606
21391SOL    HW165624   6.537   7.891   9.111  1.0309 -1.8132  0.9963
21391SOL    HW265625   6.472   7.788   9.021  0.3236  0.2968 -0.9982
21392SOL     OW65626   3.179   1.201   5.597 -0.0449 -0.4021  0.1667
21392SOL    HW165627   3.114   1.131   5.604  1.0120 -1.3548  0.7824
21392SOL    HW265628   3.241   1.183   5.667  0.4602  0.9512  0.0998
21393SOL     OW65629   2.927   6.242   1.508  0.0252 -0.2268  0.4964
21393SOL    HW165630   2.901   6.274   1.594  4.7623  0.4361  2.0022
21393SOL    HW265631   2.899   6.150   1.507 -1.2408  0.0946  2.1911
21394SOL     OW65632   6.567   9.247   3.795 -0.2391  0.7404  0.0182
21394SOL    HW165633   6.519   9.238   3.878 -0.7932  1.4777 -0.2114
21394SOL    HW265634   6.623   9.324   3.808 -0.5082  1.0091 -0.3654
21395SOL     OW65635   3.827   1.717   8.998  0.3101 -0.7935  0.1632
21395SOL    HW165636   3.828   1.676   9.085  0.7021 -1.8769 -0.3379
21395SOL    HW265637   3.862   1.650   8.939  1.8196  0.5551 -0.5652
21396SOL     OW65638   1.115   7.222   2.298  0.4948 -0.2625  0.0365
21396SOL    HW165639   1.115   7.133   2.334  0.1941 -0.3203 -0.1107
21396SOL    HW265640   1.098   7.210   2.204  3.7232 -0.3448 -0.6826
21397SOL     OW65641   6.451   0.375   0.091 -0.3665  0.1090  0.6727
21397SOL    HW165642   6.517   0.309   0.067 -0.7249 -0.4340  1.1419
21397SOL    HW265643   6.437   0.424   0.010 -1.5762 -1.6976 -0.2942
21398SOL     OW65644   0.218   3.595   7.614 -0.2704 -0.6636 -0.6625
21398SOL    HW165645   0.130   3.576   7.579 -0.3247  0.5697 -1.2779
21398SOL    HW265646   0.242   3.517   7.662 -2.1596 -0.6439  0.4250
21399SOL     OW65647   3.697   8.078   6.379 -0.0530  0.2191 -0.0462
21399SOL    HW165648   3.701   8.125   6.462  0.2021  0.0530  0.0344
21399SOL    HW265649   3.702   8.147   6.313 -1.1325  0.4301  0.0725
21400SOL     OW65650   9.075   6.922   1.214 -0.0368 -0.2307 -0.0467
21400SOL    HW165651   9.017   6.972   1.157  1.6758 -0.1716 -1.8670
21400SOL    HW265652   9.129   6.870   1.154  1.7719 -0.3013  1.5160
21401SOL     OW65653   0.274   8.767   3.017 -0.6798 -0.0847 -0.4411
21401SOL    HW165654   0.290   8.800   2.929 -1.5130  0.9458 -0.2389
21401SOL    HW265655   0.346   8.802   3.069  0.8561 -2.2173 -1.0147
21402SOL     OW65656   0.233   0.542   3.831 -0.0703 -0.1533  0.2999
21402SOL    HW165657   0.325   0.567   3.844  0.6784 -2.9429  1.1474
21402SOL    HW265658   0.212   0.491   3.909 -2.0584 -0.3888 -0.3529
21403SOL     OW65659   5.829   8.309   2.992 -0.0954  0.0241  0.0199
21403SOL    HW165660   5.913   8.353   3.006  0.2406 -0.7264  0.3861
21403SOL    HW265661   5.852   8.217   2.980 -0.8171 -0.0963 -0.4917
21404SOL     OW65662   3.128   7.395   3.152 -0.2551 -0.1768  0.0055
21404SOL    HW165663   3.165   7.314   3.118 -2.6517 -2.2970  2.0486
21404SOL    HW265664   3.052   7.413   3.097  0.3929  0.8868 -0.5864
21405SOL     OW65665   0.044   2.774   0.592 -0.3066  0.3171  0.1181
21405SOL    HW165666  -0.001   2.852   0.626 -0.7635  1.3566 -2.6375
21405SOL    HW265667   0.131   2.804   0.568 -0.8087  0.3180 -1.9103
21406SOL     OW65668   3.155   6.894   8.238  0.2423  0.8576  0.4694
21406SOL    HW165669   3.077   6.850   8.204  1.3980 -1.0152  0.1042
21406SOL    HW265670   3.150   6.983   8.202 -0.4887  0.0399 -1.5717
21407SOL     OW65671   7.375   6.502   1.391 -0.5690  0.0685 -0.1084
21407SOL    HW165672   7.346   6.445   1.320 -0.8578  0.4293 -0.2819
21407SOL    HW265673   7.434   6.564   1.348  0.0214 -0.3112  0.1415
21408SOL     OW65674   5.389   6.332   3.620 -0.2293  0.0470 -0.2096
21408SOL    HW165675   5.339   6.380   3.553  0.0039  0.0667 -0.3696
21408SOL    HW265676   5.449   6.397   3.656 -0.2530 -0.0021 -0.0822
21409SOL     OW65677   2.571   0.071   7.576  0.2215 -0.1176  0.3790
21409SOL    HW165678   2.584   0.165   7.589  0.1848  0.0514 -0.6905
21409SOL    HW265679   2.477   0.058   7.589  0.1575  0.0691  0.1038
21410SOL     OW65680   4.432   4.737   3.977  0.4870  0.2851  0.0454
21410SOL    HW165681   4.415   4.739   4.071 -1.6915 -2.7312 -0.1461
21410SOL    HW265682   4.363   4.791   3.938  0.7476  0.6625  0.1019
21411SOL     OW65683   3.357   6.857   1.864  0.1136 -0.6949  0.1184
21411SOL    HW165684   3.383   6.792   1.930  1.1907 -0.0003  0.4102
21411SOL    HW265685   3.393   6.939   1.897 -2.8409  0.4524  0.7235
21412SOL     OW65686   6.218   9.037   5.072  0.2227  0.6888 -0.1557
21412SOL    HW165687   6.135   9.078   5.048  0.9509  1.8828 -0.7682
21412SOL    HW265688   6.251   8.998   4.991 -0.9260 -2.1330  0.6039
21413SOL     OW65689   6.795   0.376   5.587 -0.0896 -0.1133 -0.4717
21413SOL    HW165690   6.847   0.296   5.586 -0.2423 -0.2305  0.1846
21413SOL    HW265691   6.706   0.348   5.564 -0.1027 -0.1063 -0.4307
21414SOL     OW65692   0.820   6.959   7.694  0.0315 -0.3217  0.4286
21414SOL    HW165693   0.800   6.946   7.786  1.0471 -0.7065  0.6104
21414SOL    HW265694   0.789   7.047   7.674  1.6514  0.5793  1.6778
21415SOL     OW65695   6.442   6.127   8.950 -0.2828 -0.2442 -0.2066
21415SOL    HW165696   6.399   6.045   8.927 -2.0242  0.5763  0.0037
21415SOL    HW265697   6.448   6.124   9.046  1.8720 -1.1501 -0.2959
21416SOL     OW65698   4.688   9.021   3.003 -0.3814  0.4745  0.2429
21416SOL    HW165699   4.781   9.031   3.022 -0.5400  1.3027  0.6373
21416SOL    HW265700   4.647   9.016   3.089 -0.7265  0.3622  0.0728
21417SOL     OW65701   3.476   0.019   5.603 -0.1348 -0.1952  0.4282
21417SOL    HW165702   3.466   0.053   5.692 -0.8584  0.3606  0.1403
21417SOL    HW265703   3.487  -0.075   5.615 -1.9776 -0.3743  1.0066
21418SOL     OW65704   2.133   0.290   3.228 -0.0761 -0.2602  0.8227
21418SOL    HW165705   2.109   0.263   3.317  0.7845 -2.0649  0.5609
21418SOL    HW265706   2.151   0.208   3.182 -0.8560  0.5969 -1.1551
21419SOL     OW65707   4.368   1.108   3.709 -0.3023 -0.0495  0.4624
21419SOL    HW165708   4.435   1.055   3.666  0.3090  1.2848 -0.2850
21419SOL    HW265709   4.418   1.167   3.766 -0.7098  1.7062 -0.9131
21420SOL     OW65710   5.453   6.258   1.100 -0.4421  0.1861  0.5001
21420SOL    HW165711   5.414   6.201   1.034 -2.2386  1.1797  0.6320
21420SOL    HW265712   5.388   6.261   1.170  0.6393  0.5719  1.5089
21421SOL     OW65713   5.810   8.984   3.668 -0.1259 -0.0079 -0.0605
21421SOL    HW165714   5.834   8.940   3.587 -2.0386 -0.6614 -0.3216
21421SOL    HW265715   5.855   8.935   3.737 -0.2317 -0.8205 -0.5605
21422SOL     OW65716   2.801   0.238   1.067 -0.1724  0.0048  0.5190
21422SOL    HW165717   2.826   0.241   1.160  0.7453 -0.0320  0.2903
21422SOL    HW265718   2.807   0.145   1.044  0.2385  0.0868  0.2720
21423SOL     OW65719   3.698   8.850   7.863  0.2288 -0.3854 -0.3955
21423SOL    HW165720   3.657   8.936   7.853  1.5507  0.1637 -1.4874
21423SOL    HW265721   3.695   8.832   7.957  0.1191  0.9557 -0.1295
21424SOL     OW65722   8.401   0.951   2.984 -0.3360  0.0908 -0.1987
21424SOL    HW165723   8.422   1.044   2.986  0.1325 -0.0149 -0.0156
21424SOL    HW265724   8.308   0.947   2.965 -0.4591  0.6107  0.3053
21425SOL     OW65725   0.038   6.575   7.143 -0.0519 -0.0473 -0.1013
21425SOL    HW165726  -0.016   6.651   7.164  1.0393  0.5882  0.4313
21425SOL    HW265727   0.082   6.598   7.061  0.2818 -0.1171  0.0602
21426SOL     OW65728   4.738   7.225   3.575 -0.2189  0.2259 -0.6553
21426SOL    HW165729   4.782   7.223   3.660  0.0459 -1.2672 -0.8108
21426SOL    HW265730   4.730   7.319   3.555  1.7064  0.5732 -0.0241
21427SOL     OW65731   6.132   8.092   1.895 -0.4294  0.2250  0.5614
21427SOL    HW165732   6.158   8.019   1.951  1.5024 -0.1247 -0.7051
21427SOL    HW265733   6.163   8.068   1.808  0.0896  2.4587  0.0670
21428SOL     OW65734   1.794   4.386   4.637  0.2639  0.0024  0.5200
21428SOL    HW165735   1.751   4.301   4.633 -0.0797  0.1837  0.2778
21428SOL    HW265736   1.882   4.370   4.603 -0.1557 -0.0372 -0.5750
21429SOL     OW65737   3.732   1.482   6.576  0.2002  0.1400 -0.3862
21429SOL    HW165738   3.719   1.555   6.637 -1.7139 -0.3809 -0.1044
21429SOL    HW265739   3.680   1.507   6.499 -0.8407 -1.0866 -0.1146
21430SOL     OW65740   4.971   4.587   7.965  0.2955  0.6651 -0.0710
21430SOL    HW165741   5.065   4.601   7.974  0.6796 -1.5444 -0.1451
21430SOL    HW265742   4.951   4.515   8.024 -0.8403 -0.6320 -1.9069
21431SOL     OW65743   7.260   4.485   2.251  0.4649 -0.5992  0.4229
21431SOL    HW165744   7.260   4.405   2.199  1.1862 -2.1717  2.6991
21431SOL    HW265745   7.196   4.469   2.321 -0.1406  1.2505  0.3637
21432SOL     OW65746   3.003   7.946   5.442 -0.3665  0.4880  0.2408
21432SOL    HW165747   3.030   7.999   5.367  0.5446 -0.0101  0.1999
21432SOL    HW265748   3.012   7.856   5.412 -1.1092  0.3002  0.5800
21433SOL     OW65749   5.759   1.056   7.686 -0.1378 -0.1078 -0.1854
21433SOL    HW165750   5.695   0.986   7.699  0.9823 -1.4401 -1.4912
21433SOL    HW265751   5.710   1.136   7.700 -1.6994 -1.1242  0.4248
21434SOL     OW65752   7.474   4.802   3.054  0.5475  0.3709  0.0111
21434SOL    HW165753   7.461   4.889   3.016  1.8249  0.5114 -0.1512
21434SOL    HW265754   7.462   4.814   3.148  1.3148  0.8683  0.0566
21435SOL     OW65755   5.314   2.361   2.113 -0.2596 -0.3068  0.2632
21435SOL    HW165756   5.356   2.298   2.055  0.5565  1.2327 -0.9015
21435SOL    HW265757   5.386   2.412   2.151 -0.9337  1.1940 -0.3649
21436SOL     OW65758   0.140   8.951   6.243 -0.1263  0.2191  0.1811
21436SOL    HW165759   0.162   8.943   6.336  0.0694  1.2058  0.2343
21436SOL    HW265760   0.156   8.864   6.206 -0.6831 -0.3159  1.1647
21437SOL     OW65761   5.557   3.817   7.581 -0.6899  0.0986 -0.5640
21437SOL    HW165762   5.642   3.793   7.618  0.0749  1.1898 -1.5292
21437SOL    HW265763   5.547   3.758   7.506 -1.4779 -1.0026  0.3773
21438SOL     OW65764   6.169   7.134   4.672  0.1334 -0.4010  0.1108
21438SOL    HW165765   6.263   7.129   4.651  0.1685 -1.0837  0.4011
21438SOL    HW265766   6.127   7.143   4.586  0.4926  0.5175  0.0186
21439SOL     OW65767   8.161   6.553   0.273  0.6451 -0.0112 -0.4443
21439SOL    HW165768   8.239   6.516   0.232  1.3804  1.6378 -0.6104
21439SOL    HW265769   8.101   6.568   0.200  0.5088 -0.4421 -0.4273
21440SOL     OW65770   0.193   0.601   2.131  0.1260  0.6507  0.1461
21440SOL    HW165771   0.162   0.690   2.112  0.9330  1.1880  1.2317
21440SOL    HW265772   0.279   0.596   2.088  0.7085  0.9034  1.2426
21441SOL     OW65773   7.635   4.805   7.347 -0.3663 -0.5925 -0.5056
21441SOL    HW165774   7.598   4.766   7.426  0.9982 -3.4796 -1.1786
21441SOL    HW265775   7.729   4.790   7.355  0.3542  2.8940 -0.7691
21442SOL     OW65776   8.074   1.758   0.928 -0.5734 -0.1106  0.0457
21442SOL    HW165777   8.023   1.740   0.849  0.2987  1.0360 -0.8193
21442SOL    HW265778   8.014   1.806   0.985 -0.1404  2.5259 -1.5558
21443SOL     OW65779   5.836   0.718   4.802  0.0054 -0.0797 -0.5665
21443SOL    HW165780   5.742   0.701   4.812  0.1377 -0.3040  0.3208
21443SOL    HW265781   5.879   0.641   4.840  0.5782  1.1863  1.4999
21444SOL     OW65782   2.321   8.262   5.582  0.4679  0.0105  0.4407
21444SOL    HW165783   2.365   8.347   5.575  1.5939 -0.6604 -1.4409
21444SOL    HW265784   2.371   8.205   5.524 -0.1193 -2.0250  1.8325
21445SOL     OW65785   1.079   3.820   1.122 -0.4147  0.6620  0.5398
21445SOL    HW165786   1.157   3.807   1.068  0.3571  0.7795  1.5893
21445SOL    HW265787   1.008   3.782   1.071 -0.2019  3.0395 -1.7751
21446SOL     OW65788   6.087   7.457   2.298 -0.3337  0.0886 -0.0479
21446SOL    HW165789   6.150   7.388   2.277  1.1140  0.8060  1.6835
21446SOL    HW265790   6.006   7.410   2.315  0.2485 -1.0578 -0.2753
21447SOL     OW65791   3.379   8.838   1.625 -0.1403  0.4882 -0.4324
21447SOL    HW165792   3.348   8.784   1.552 -1.4284  0.6703 -0.0280
21447SOL    HW265793   3.334   8.803   1.702  0.2369  1.1192  0.0820
21448SOL     OW65794   8.624   5.453   2.948 -0.3070  0.4377 -0.1788
21448SOL    HW165795   8.655   5.385   3.008  3.0691 -0.2333 -2.3509
21448SOL    HW265796   8.622   5.533   3.001  2.8511 -0.0454  0.9319
21449SOL     OW65797   5.437   4.832   2.731  0.1482  0.7755  0.0478
21449SOL    HW165798   5.530   4.854   2.728  0.1043  0.8350 -1.3005
21449SOL    HW265799   5.399   4.876   2.655 -0.5680 -1.0602 -0.7140
21450SOL     OW65800   2.321   7.394   8.916  0.1243  0.0467 -0.4476
21450SOL    HW165801   2.246   7.359   8.868  0.1248 -0.1349 -0.3185
21450SOL    HW265802   2.286   7.470   8.962 -0.0284 -0.1540 -0.2294
21451SOL     OW65803   0.453   4.600   4.403 -0.1151 -0.0225 -0.1316
21451SOL    HW165804   0.522   4.661   4.378  0.0657  0.3112  1.1404
21451SOL    HW265805   0.415   4.638   4.482 -0.3492 -1.2880  0.3836
21452SOL     OW65806   7.420   9.023   4.725 -0.0374  0.1609  0.5334
21452SOL    HW165807   7.446   8.990   4.811 -0.1624 -0.2218  0.4262
21452SOL    HW265808   7.330   8.994   4.714  0.3469 -0.8189 -0.2182
21453SOL     OW65809   7.759   6.263   2.372 -0.0718 -0.3164 -0.1234
21453SOL    HW165810   7.769   6.212   2.292 -1.8339  1.2413 -1.4427
21453SOL    HW265811   7.847   6.292   2.394  0.4828 -1.0125 -1.3519
21454SOL     OW65812   8.831   3.754   0.384  1.2788  0.2063  0.3609
21454SOL    HW165813   8.825   3.839   0.427  0.9777  0.9303 -1.0588
21454SOL    HW265814   8.756   3.705   0.417  1.5331  0.4282  1.2993
21455SOL     OW65815   0.324   0.428   0.951  0.5136  0.0208  0.4911
21455SOL    HW165816   0.261   0.369   0.993  1.8205 -1.0218  1.0595
21455SOL    HW265817   0.390   0.370   0.913 -0.5138  0.9129 -3.0136
21456SOL     OW65818   4.698   6.573   0.176  0.0471  0.2377 -0.2815
21456SOL    HW165819   4.639   6.579   0.101  0.2347  0.1440 -0.4390
21456SOL    HW265820   4.725   6.664   0.192  1.8067  0.0338 -1.7954
21457SOL     OW65821   9.143   4.841   4.917 -0.1139  0.2353 -0.5725
21457SOL    HW165822   9.237   4.827   4.928 -0.4213 -0.1171  3.0233
21457SOL    HW265823   9.104   4.757   4.942 -1.4191  1.0023  0.0584
21458SOL     OW65824   3.543   4.976   9.069 -0.0279 -0.0300 -0.3977
21458SOL    HW165825   3.485   5.043   9.104 -1.1992 -1.5760  0.7756
21458SOL    HW265826   3.614   5.025   9.028 -0.9970  1.9092  0.1016
21459SOL     OW65827   4.292   5.061   1.258 -0.7437  0.1122 -0.4375
21459SOL    HW165828   4.338   5.143   1.276 -0.3707  0.1437 -1.4861
21459SOL    HW265829   4.342   4.994   1.305 -0.5130  0.3599 -0.3279
21460SOL     OW65830   1.202   4.164   1.002 -0.2450  0.2953  0.3799
21460SOL    HW165831   1.237   4.147   0.915 -0.3026  1.1258  0.1868
21460SOL    HW265832   1.172   4.254   0.999  3.4765  1.8347  2.4490
21461SOL     OW65833   2.908   7.850   7.547  0.4952 -0.1060 -0.1985
21461SOL    HW165834   2.929   7.943   7.537  1.0100 -0.0927  0.8167
21461SOL    HW265835   2.868   7.844   7.634  1.1850 -0.9405  0.0782
21462SOL     OW65836   8.861   5.449   2.354 -0.0917  0.6100  0.2189
21462SOL    HW165837   8.913   5.442   2.274  1.1343  0.1835  1.0231
21462SOL    HW265838   8.775   5.478   2.324 -0.1584 -1.1250 -1.4320
21463SOL     OW65839   1.430   5.287   6.047 -0.2506  0.2046  0.0873
21463SOL    HW165840   1.477   5.358   6.003 -0.7565 -0.1472 -1.0447
21463SOL    HW265841   1.401   5.326   6.130 -1.0268  1.5103 -0.7665
21464SOL     OW65842   8.468   9.049   8.730 -0.0753 -0.4832  0.0500
21464SOL    HW165843   8.414   8.998   8.670 -0.1261  0.5727 -0.8440
21464SOL    HW265844   8.407   9.080   8.797 -0.1071 -1.2851  0.4066
21465SOL     OW65845   0.597   7.169   3.920  0.2277  0.1271 -0.7583
21465SOL    HW165846   0.689   7.193   3.915  0.3667 -0.0602  0.5386
21465SOL    HW265847   0.569   7.202   4.005 -0.9659  0.3553 -1.2211
21466SOL     OW65848   7.708   1.205   6.361  0.1189 -1.1010 -0.3562
21466SOL    HW165849   7.646   1.173   6.426  0.1094  0.9781  0.7478
21466SOL    HW265850   7.792   1.209   6.409  0.0858  0.5634 -0.3860
21467SOL     OW65851   4.606   8.210   4.604  0.0140  0.0425  0.3062
21467SOL    HW165852   4.579   8.198   4.695 -0.3715 -2.7259 -0.0848
21467SOL    HW265853   4.652   8.294   4.604 -1.6685  1.0726  2.6176
21468SOL     OW65854   8.696   4.901   8.463 -0.1134  0.0189 -0.0059
21468SOL    HW165855   8.761   4.903   8.392  0.5186  0.7238  0.5719
21468SOL    HW265856   8.639   4.828   8.441  0.4680 -0.1858 -0.8992
21469SOL     OW65857   0.454   8.119   4.854 -0.0252  0.3101  0.2646
21469SOL    HW165858   0.429   8.169   4.931  1.4106  0.9911  0.3289
21469SOL    HW265859   0.548   8.136   4.845 -0.2292  0.5263 -1.8348
21470SOL     OW65860   5.900   7.660   5.499 -0.1099 -0.2074 -0.6659
21470SOL    HW165861   5.901   7.591   5.566  0.4518  0.3920 -0.0464
21470SOL    HW265862   5.849   7.622   5.427  1.6277 -1.9286 -1.0550
21471SOL     OW65863   9.020   7.119   0.999 -0.3039  0.0349 -0.0390
21471SOL    HW165864   8.957   7.155   0.937  0.6514  0.4956 -0.7791
21471SOL    HW265865   9.039   7.191   1.059  1.6944  0.8930 -1.5883
21472SOL     OW65866   0.960   7.000   2.975  0.3120  0.2187  0.0766
21472SOL    HW165867   0.884   6.943   2.983  0.1894  0.4489  0.5811
21472SOL    HW265868   1.026   6.960   3.031  0.6949 -0.1825 -0.6417
21473SOL     OW65869   1.661   7.523   0.616 -0.1032  0.3073  0.2590
21473SOL    HW165870   1.617   7.511   0.532  0.6487  1.8129 -0.4060
21473SOL    HW265871   1.705   7.440   0.633 -1.4901 -0.5185 -0.0731
21474SOL     OW65872   3.202   6.600   6.688  0.2520 -0.1066  0.0929
21474SOL    HW165873   3.254   6.610   6.608  0.2092 -0.8749 -0.0366
21474SOL    HW265874   3.249   6.533   6.738  0.3349  0.4484  0.7640
21475SOL     OW65875   2.174   1.058   4.964 -0.1683  0.4142  0.0721
21475SOL    HW165876   2.170   0.965   4.941  1.0438  0.5919 -0.9759
21475SOL    HW265877   2.239   1.063   5.034  2.2728  0.7818 -2.0548
21476SOL     OW65878   4.033   1.621   1.823 -0.4447 -0.3623 -0.2422
21476SOL    HW165879   4.070   1.708   1.834  0.9602 -0.8751 -0.6644
21476SOL    HW265880   4.037   1.605   1.729 -1.8318 -0.4096 -0.3030
21477SOL     OW65881   3.019   2.810   0.041 -0.5812 -0.7300 -0.3152
21477SOL    HW165882   2.945   2.854  -0.002 -0.2468 -0.4853 -0.6351
21477SOL    HW265883   3.094   2.867   0.026 -0.2569 -1.1340 -0.2563
21478SOL     OW65884   7.750   8.897   7.569 -0.0916 -0.5462  0.1265
21478SOL    HW165885   7.776   8.806   7.580 -1.8224 -1.2598 -1.2566
21478SOL    HW265886   7.817   8.934   7.511 -0.3557 -1.4446 -0.7734
21479SOL     OW65887   8.191   2.673   4.588  0.2651 -0.0201  0.4010
21479SOL    HW165888   8.272   2.713   4.556  0.6667 -1.5002 -0.4985
21479SOL    HW265889   8.190   2.692   4.682  0.0849  2.6673 -0.0720
21480SOL     OW65890   0.256   4.002   1.070 -0.2974 -0.1360  0.0660
21480SOL    HW165891   0.257   4.081   1.015 -2.0482  0.4771  0.8020
21480SOL    HW265892   0.179   4.014   1.126  0.5748 -1.4187  1.6314
21481SOL     OW65893   5.952   8.172   2.189 -0.0268  0.4252  0.1230
21481SOL    HW165894   6.032   8.145   2.143 -0.3768 -1.2964  0.4826
21481SOL    HW265895   5.957   8.128   2.274 -1.1427  0.6636  0.3227
21482SOL     OW65896   7.343   5.498   6.473  0.2035 -0.1896 -0.4523
21482SOL    HW165897   7.386   5.534   6.395 -1.1590 -2.4326 -2.3567
21482SOL    HW265898   7.273   5.443   6.438 -1.8285  0.3751  2.4353
21483SOL     OW65899   4.758   6.007   8.020  0.6350 -0.2828  0.4598
21483SOL    HW165900   4.740   6.072   8.089  2.4118  2.6202 -1.5651
21483SOL    HW265901   4.854   6.004   8.016  0.5631 -1.3034 -1.0449
21484SOL     OW65902   5.313   2.967   8.746  0.5970 -0.1976  0.0626
21484SOL    HW165903   5.330   2.948   8.654 -0.1030  0.2315 -0.1599
21484SOL    HW265904   5.218   2.972   8.753  0.6001 -1.2203  1.0177
21485SOL     OW65905   6.219   5.011   2.050  0.3812 -0.0923  0.3034
21485SOL    HW165906   6.235   5.105   2.063  0.5403  0.1041 -1.1396
21485SOL    HW265907   6.132   4.996   2.086  0.1138  0.7342  0.0164
21486SOL     OW65908   7.411   5.876   7.011 -0.3262  0.4476  0.0084
21486SOL    HW165909   7.383   5.787   6.992  0.8254  0.2519 -0.8819
21486SOL    HW265910   7.359   5.902   7.087 -0.1281 -1.2586  0.7746
21487SOL     OW65911   0.926   1.285   6.934 -0.5485  0.4440 -0.6138
21487SOL    HW165912   0.904   1.195   6.957  1.0840  0.5296  1.6711
21487SOL    HW265913   0.918   1.289   6.839 -0.9388 -2.0216 -0.7383
21488SOL     OW65914   4.099   2.546   4.011  0.1601 -0.1031  0.3704
21488SOL    HW165915   4.156   2.615   3.978 -1.3214  0.4148 -1.2926
21488SOL    HW265916   4.145   2.465   3.989  0.6637  0.3090 -0.1499
21489SOL     OW65917   8.678   8.976   5.316  0.5218  0.0516 -0.5641
21489SOL    HW165918   8.674   8.894   5.365 -1.1750  0.8439  0.7215
21489SOL    HW265919   8.587   8.998   5.298  0.7855  2.5718  0.7447
21490SOL     OW65920   3.469   4.216   3.397 -0.8346 -0.1129 -0.1456
21490SOL    HW165921   3.483   4.177   3.483 -1.5287  1.2745  0.6462
21490SOL    HW265922   3.519   4.297   3.399  0.0032 -0.5718 -1.4727
21491SOL     OW65923   4.502   1.275   3.198  0.2327 -0.1771  0.0584
21491SOL    HW165924   4.542   1.198   3.157 -0.4818 -1.2229  1.2650
21491SOL    HW265925   4.529   1.348   3.142  1.6627 -1.1715 -0.6185
21492SOL     OW65926   3.187   3.651   2.413 -0.1938  0.0263 -0.6582
21492SOL    HW165927   3.139   3.730   2.386  1.0116  0.6818 -0.9667
21492SOL    HW265928   3.186   3.653   2.508 -1.6005 -0.5021 -0.6378
21493SOL     OW65929   0.579   5.161   3.900  0.1303  0.2638  0.1349
21493SOL    HW165930   0.548   5.198   3.817  0.9707 -1.8875 -1.2212
21493SOL    HW265931   0.662   5.205   3.917  0.2444  0.2959 -0.4993
21494SOL     OW65932   0.279   2.935   9.083 -0.0824  0.1784  0.4585
21494SOL    HW165933   0.272   2.908   9.175  0.1787 -1.5806 -0.0044
21494SOL    HW265934   0.368   2.970   9.075 -0.1376  0.4295  0.8839
21495SOL     OW65935   5.071   0.958   1.243  0.5512  0.1051 -0.3232
21495SOL    HW165936   5.067   0.864   1.225  0.7694  0.1086 -0.3867
21495SOL    HW265937   5.149   0.988   1.197 -0.2815  0.5759 -1.4458
21496SOL     OW65938   1.397   4.044   6.691 -0.4918  0.5836 -0.7183
21496SOL    HW165939   1.342   4.117   6.664  1.2143  2.1727 -0.0759
21496SOL    HW265940   1.474   4.049   6.635 -1.0550 -1.8035 -1.8284
21497SOL     OW65941   7.233   7.192   5.102 -0.2039  0.1900  0.2443
21497SOL    HW165942   7.324   7.199   5.072 -0.3144  0.5660 -0.0210
21497SOL    HW265943   7.214   7.098   5.099 -0.5491  0.2694 -1.9570
21498SOL     OW65944   2.262   0.329   0.987 -0.7613 -0.3584  0.2748
21498SOL    HW165945   2.285   0.332   1.080 -1.1044 -1.8952  0.4357
21498SOL    HW265946   2.304   0.406   0.949 -0.8503  0.4435  1.7512
21499SOL     OW65947   4.173   5.529   5.049 -0.0372  0.0903 -0.4589
21499SOL    HW165948   4.154   5.601   4.989 -0.6352  0.5499  0.2634
21499SOL    HW265949   4.132   5.555   5.132  2.4597  0.4521  0.7902
21500SOL     OW65950   2.933   5.109   4.620  0.2492 -0.2939 -0.1150
21500SOL    HW165951   2.883   5.037   4.581 -2.0394 -1.6126  4.4475
21500SOL    HW265952   2.912   5.185   4.565 -3.1271 -1.7573 -1.1238
21501SOL     OW65953   0.712   0.042   3.144 -0.6082 -0.2420  0.1247
21501SOL    HW165954   0.679   0.005   3.226  0.4501 -1.8414 -0.1431
21501SOL    HW265955   0.670  -0.011   3.075  0.6244 -0.7419 -0.2723
21502SOL     OW65956   2.000   9.216   3.810  0.4311 -0.2718 -0.2741
21502SOL    HW165957   1.997   9.191   3.717 -0.1628 -0.9217 -0.0903
21502SOL    HW265958   1.931   9.164   3.850  1.2092 -0.5928  0.6802
21503SOL     OW65959   1.178   4.329   5.516  0.0128 -0.3697 -0.1213
21503SOL    HW165960   1.139   4.271   5.581 -0.5062 -1.4893 -1.3784
21503SOL    HW265961   1.213   4.403   5.567 -2.8791  0.2303  1.1800
21504SOL     OW65962   3.575   1.254   8.323  0.4871 -0.0610  0.1632
21504SOL    HW165963   3.633   1.292   8.390  1.5963  3.3144 -2.4191
21504SOL    HW265964   3.635   1.221   8.256 -0.5960 -0.6989 -0.5247
21505SOL     OW65965   8.395   3.736   8.799 -0.4799 -0.1320 -0.2551
21505SOL    HW165966   8.415   3.795   8.872  1.4947  0.7714 -1.4439
21505SOL    HW265967   8.480   3.707   8.767 -1.3671 -2.6048 -0.5966
21506SOL     OW65968   2.547   0.055   5.978  0.6058  0.3511  0.1182
21506SOL    HW165969   2.513   0.132   5.933 -1.3101 -0.5879 -0.1213
21506SOL    HW265970   2.640   0.054   5.956  0.3585  1.7167 -1.1522
21507SOL     OW65971   2.843   7.463   0.117 -0.3571  0.3091  0.2001
21507SOL    HW165972   2.841   7.557   0.132 -0.1979  0.1527  1.3193
21507SOL    HW265973   2.849   7.453   0.022 -1.3328  1.4019  0.0101
21508SOL     OW65974   3.886   5.070   5.357 -0.2095  0.4859 -0.2872
21508SOL    HW165975   3.838   4.998   5.397  0.3031  0.4710  0.3072
21508SOL    HW265976   3.833   5.094   5.281 -0.2669 -0.6618 -0.6225
21509SOL     OW65977   5.214   4.975   2.108 -0.0954 -0.1622 -0.5108
21509SOL    HW165978   5.271   4.927   2.168 -1.8867 -0.9371  0.6667
21509SOL    HW265979   5.198   5.059   2.152  0.4011  0.1955 -1.0035
21510SOL     OW65980   3.382   0.769   9.227 -0.0697  0.1382 -0.0710
21510SOL    HW165981   3.369   0.764   9.322 -0.5949 -1.8530 -0.2134
21510SOL    HW265982   3.425   0.687   9.204 -0.6576  0.2499 -1.6619
21511SOL     OW65983   2.658   2.240   4.713 -0.4484  0.5559 -0.5981
21511SOL    HW165984   2.678   2.290   4.792  0.2428 -0.2696 -0.2350
21511SOL    HW265985   2.703   2.286   4.642  0.3808  0.3213 -0.2293
21512SOL     OW65986   5.547   5.364   2.354  0.6625  1.3001  0.9707
21512SOL    HW165987   5.523   5.334   2.266  0.7717 -0.4330  1.4923
21512SOL    HW265988   5.519   5.293   2.412  1.4689  1.9725  2.2272
21513SOL     OW65989   4.755   0.183   8.273  0.0795  0.3251  0.0072
21513SOL    HW165990   4.675   0.187   8.219 -0.4045  2.4742  0.7852
21513SOL    HW265991   4.781   0.275   8.283  0.8626 -0.0951  2.3614
21514SOL     OW65992   7.947   6.493   8.567 -0.0070 -0.9556  0.0930
21514SOL    HW165993   7.896   6.415   8.590  0.0787 -1.2283 -0.6416
21514SOL    HW265994   8.018   6.460   8.512  0.8939 -0.5561  0.9721
21515SOL     OW65995   8.053   1.445   0.708 -0.0245  0.0247 -0.0150
21515SOL    HW165996   8.043   1.395   0.627 -0.4366 -1.1033  0.7137
21515SOL    HW265997   8.017   1.532   0.687  0.2846 -0.1039 -1.1588
21516SOL     OW65998   6.909   1.156   1.799  0.0331 -0.0614  0.3481
21516SOL    HW165999   6.896   1.090   1.867  2.0606 -0.5372  0.3441
21516SOL    HW266000   6.927   1.236   1.847 -0.3141  0.0029  0.3688
21517SOL     OW66001   0.302   3.756   0.931 -0.2500  0.1882  0.1995
21517SOL    HW166002   0.306   3.852   0.930  0.8875  0.1812 -2.5420
21517SOL    HW266003   0.213   3.736   0.961 -0.5446  2.0697  0.7158
21518SOL     OW66004   5.332   0.599   0.354  0.4601  0.3500 -0.3291
21518SOL    HW166005   5.346   0.689   0.383 -0.9052  0.2651  0.7101
21518SOL    HW266006   5.416   0.556   0.369  0.7736  1.1607  0.3380
21519SOL     OW66007   0.444   1.709   0.588  0.4774  0.3284  0.3725
21519SOL    HW166008   0.402   1.651   0.524 -3.5275  0.8261  2.2764
21519SOL    HW266009   0.491   1.773   0.535 -0.6040 -0.7130 -1.9817
21520SOL     OW66010   8.565   6.679   8.833  0.2041  0.2735 -0.2002
21520SOL    HW166011   8.652   6.718   8.831  0.7725 -0.8848 -3.2712
21520SOL    HW266012   8.559   6.639   8.920  2.4743  0.9355  0.3255
21521SOL     OW66013   6.831   4.680   3.140 -0.6969 -0.6276  0.5652
21521SOL    HW166014   6.856   4.675   3.048  1.0944  1.4201  0.8571
21521SOL    HW266015   6.885   4.750   3.176  0.2707 -2.7478  3.6946
21522SOL     OW66016   8.244   9.067   6.736  0.5130 -0.7608  0.2224
21522SOL    HW166017   8.303   9.133   6.700 -0.4540 -0.0825 -0.1782
21522SOL    HW266018   8.257   9.070   6.830 -1.4254  1.9897  0.5247
21523SOL     OW66019   4.234   4.677   2.741  0.3804 -0.0999 -0.3426
21523SOL    HW166020   4.302   4.737   2.708  0.6380  0.0119  0.3682
21523SOL    HW266021   4.174   4.734   2.788  0.5434 -0.3807  0.2057
21524SOL     OW66022   4.606   5.581   1.471  0.6169  0.5660  0.1015
21524SOL    HW166023   4.669   5.546   1.533 -1.6811  0.0085  2.3069
21524SOL    HW266024   4.544   5.631   1.525 -3.0477 -2.1315 -1.1503
21525SOL     OW66025   3.281   7.240   5.695 -0.0141 -0.1005  0.6271
21525SOL    HW166026   3.206   7.230   5.754 -0.2690 -0.1571  0.2962
21525SOL    HW266027   3.347   7.181   5.731 -0.0198  0.1841  1.0966
21526SOL     OW66028   8.648   1.631   3.992  0.6606 -0.3253  0.2734
21526SOL    HW166029   8.695   1.705   4.030  1.0114  0.5071 -1.7072
21526SOL    HW266030   8.706   1.599   3.923 -1.0483 -0.1501 -1.3067
21527SOL     OW66031   6.092   8.827   1.689 -0.1433 -0.3007 -0.3826
21527SOL    HW166032   6.153   8.792   1.755 -1.2809  0.9231  1.4173
21527SOL    HW266033   6.008   8.833   1.736 -0.6887  1.9176 -1.5233
21528SOL     OW66034   2.282   5.611   3.771 -0.0845  0.3317 -0.0070
21528SOL    HW166035   2.283   5.554   3.847  0.9584 -0.1880 -0.3849
21528SOL    HW266036   2.196   5.597   3.731 -0.0605 -0.5408  0.2274
21529SOL     OW66037   2.297   7.195   5.230  0.0107  0.7150 -0.4037
21529SOL    HW166038   2.242   7.231   5.161 -2.1597 -0.1321  0.7946
21529SOL    HW266039   2.275   7.102   5.232  0.0999  0.6995  1.3433
21530SOL     OW66040   7.375   0.803   8.856  0.3746  0.1475 -0.3157
21530SOL    HW166041   7.455   0.751   8.856 -0.1940 -0.7670 -1.2116
21530SOL    HW266042   7.312   0.750   8.807 -0.5055  1.2714 -0.4398
21531SOL     OW66043   1.063   4.142   4.445 -0.2228 -0.2484 -0.5222
21531SOL    HW166044   1.047   4.054   4.411 -0.2862 -0.6305  0.4539
21531SOL    HW266045   1.158   4.153   4.441 -0.0703 -0.9831  0.8085
21532SOL     OW66046   4.093   4.481   3.432 -0.2198  0.5992  0.9371
21532SOL    HW166047   4.161   4.460   3.495  0.0081 -1.4287  0.0992
21532SOL    HW266048   4.124   4.443   3.349 -0.6997  2.7891 -0.3398
21533SOL     OW66049   4.136   8.953   1.012 -0.0397  0.7439  0.3431
21533SOL    HW166050   4.198   9.011   1.056 -1.0929  1.4479  0.9605
21533SOL    HW266051   4.064   9.010   0.985 -0.1954  0.0361 -0.8045
21534SOL     OW66052   4.803   1.386   4.603  0.5551 -0.6354 -0.6390
21534SOL    HW166053   4.814   1.473   4.643 -2.3988 -0.2318 -0.5228
21534SOL    HW266054   4.765   1.332   4.672 -2.5158 -0.5330 -2.0789
21535SOL     OW66055   5.012   6.114   5.362  0.1048  0.6185 -0.3872
21535SOL    HW166056   4.969   6.053   5.302 -0.1647  0.1121  0.3060
21535SOL    HW266057   4.940   6.164   5.400  0.2657  0.8630 -0.4044
21536SOL     OW66058   0.604   3.304   4.104  0.1196 -0.1301  0.0688
21536SOL    HW166059   0.678   3.330   4.049  1.1433  0.2228  1.5524
21536SOL    HW266060   0.639   3.236   4.160 -1.2626 -1.4027 -0.5405
21537SOL     OW66061   3.974   4.124   7.341 -0.6995  0.3712  0.6955
21537SOL    HW166062   3.980   4.112   7.246  0.7169 -1.8572  0.9936
21537SOL    HW266063   3.923   4.205   7.352 -0.2881  1.0885 -1.9485
21538SOL     OW66064   0.287   2.208   4.199  0.1617  0.0915  0.0550
21538SOL    HW166065   0.197   2.180   4.183 -0.3357  1.8113 -0.3600
21538SOL    HW266066   0.287   2.233   4.292 -0.0633  0.9355 -0.1569
21539SOL     OW66067   3.379   6.796   6.056 -0.2666 -0.5185  0.0914
21539SOL    HW166068   3.447   6.844   6.009 -0.8468  0.2593  0.0350
21539SOL    HW266069   3.423   6.764   6.135 -0.8482  3.9858  2.5699
21540SOL     OW66070   2.721   2.275   2.733 -0.5126  0.1224  0.2021
21540SOL    HW166071   2.663   2.236   2.668 -1.9370  0.6075  1.1229
21540SOL    HW266072   2.740   2.362   2.699  0.8597 -0.5205 -0.7758
21541SOL     OW66073   1.935   3.542   7.981 -0.6005  0.3852  0.0899
21541SOL    HW166074   1.990   3.472   8.017 -0.7295  0.7256  0.9701
21541SOL    HW266075   1.995   3.594   7.928  0.2321  1.4404  1.9894
21542SOL     OW66076   6.411   6.438   5.198  0.0143  0.7578 -0.3714
21542SOL    HW166077   6.325   6.395   5.192  0.8241 -0.9458 -0.3908
21542SOL    HW266078   6.434   6.457   5.107  0.8812 -1.4534 -0.6937
21543SOL     OW66079   0.161   4.385   0.462  0.1421 -0.6729  0.3325
21543SOL    HW166080   0.150   4.426   0.376 -0.5085  1.7561  1.4693
21543SOL    HW266081   0.255   4.377   0.473  0.3672  1.5192  0.4185
21544SOL     OW66082   5.167   6.454   7.738 -0.3699 -0.1692 -0.1252
21544SOL    HW166083   5.165   6.511   7.814 -0.6652  0.2145 -0.4122
21544SOL    HW266084   5.078   6.459   7.702  0.2733  1.2454 -1.6417
21545SOL     OW66085   8.981   4.337   3.440 -0.1082  0.0188  0.1271
21545SOL    HW166086   8.926   4.361   3.514 -1.0928  1.9256 -1.1294
21545SOL    HW266087   9.068   4.372   3.462 -0.1572 -0.2635  0.7747
21546SOL     OW66088   1.577   0.218   0.365  0.0605  0.1181  0.3157
21546SOL    HW166089   1.521   0.290   0.395 -0.3083 -0.8631  2.1420
21546SOL    HW266090   1.665   0.255   0.365 -0.4599  1.5985 -2.3169
21547SOL     OW66091   9.128   3.709   3.708 -0.8197  0.9062 -0.0708
21547SOL    HW166092   9.074   3.691   3.631  1.1195  0.7943 -1.4764
21547SOL    HW266093   9.208   3.660   3.693  0.0881  1.8252  1.4802
21548SOL     OW66094   1.588   7.389   7.610  0.0156 -0.2912 -0.2516
21548SOL    HW166095   1.493   7.380   7.623 -0.0128  0.4322  0.0755
21548SOL    HW266096   1.624   7.390   7.699  0.2349  0.3456 -0.3432
21549SOL     OW66097   2.161   6.331   0.401  0.0016  0.1715 -0.2180
21549SOL    HW166098   2.098   6.394   0.367 -1.6884 -0.9452  0.6730
21549SOL    HW266099   2.196   6.287   0.323 -0.2210  0.9069 -0.7390
21550SOL     OW66100   5.622   2.203   6.661 -0.2413  0.1299  0.0138
21550SOL    HW166101   5.700   2.181   6.712 -0.9886  0.1240  1.1755
21550SOL    HW266102   5.556   2.228   6.726 -1.6609 -1.2118 -0.8445
21551SOL     OW66103   0.554   5.210   3.033 -0.0730 -0.4923 -0.1761
21551SOL    HW166104   0.574   5.275   3.101  0.6700 -0.3015 -0.5659
21551SOL    HW266105   0.485   5.250   2.980 -0.7835 -0.7161  0.5629
21552SOL     OW66106   4.543   4.619   2.796 -0.3124  0.2536 -0.3547
21552SOL    HW166107   4.518   4.710   2.815  0.9865  0.3126  1.2678
21552SOL    HW266108   4.561   4.580   2.882 -1.8075 -1.8685 -0.9143
21553SOL     OW66109   3.004   0.499   3.185  0.9823 -0.2895  0.3395
21553SOL    HW166110   3.087   0.462   3.156  1.2954  0.3353  0.4049
21553SOL    HW266111   3.002   0.481   3.279  1.0767 -0.2538  0.3492
21554SOL     OW66112   2.066   9.137   5.772  0.6592 -0.0290 -0.1222
21554SOL    HW166113   2.057   9.111   5.863 -1.1887  0.7907 -0.0247
21554SOL    HW266114   2.023   9.067   5.722  1.8341 -0.5771 -0.4305
21555SOL     OW66115   6.035   7.778   1.413 -0.1094 -0.7856 -0.9125
21555SOL    HW166116   6.119   7.779   1.458 -1.0380  0.0012  0.8927
21555SOL    HW266117   6.032   7.692   1.370  0.8629 -1.5449  0.4633
21556SOL     OW66118   1.710   3.837   4.977  0.5098  0.0843 -0.3899
21556SOL    HW166119   1.684   3.823   5.068  1.2414 -0.7126 -0.2968
21556SOL    HW266120   1.713   3.932   4.969 -0.1072  0.1760  0.2543
21557SOL     OW66121   4.363   9.280   5.093 -0.6631  0.9100  0.2727
21557SOL    HW166122   4.346   9.368   5.058  0.2074  1.9315  2.2236
21557SOL    HW266123   4.393   9.296   5.183  0.0126 -1.3722  0.5105
21558SOL     OW66124   4.248   4.352   3.226 -0.1093  0.4659 -0.1464
21558SOL    HW166125   4.235   4.258   3.237 -2.5418  0.5951 -1.4092
21558SOL    HW266126   4.219   4.370   3.136  1.7746  2.2177 -0.4809
21559SOL     OW66127   1.822   6.345   5.941  0.1865  0.1357 -0.1642
21559SOL    HW166128   1.746   6.376   5.891 -0.6677 -1.8870 -0.2539
21559SOL    HW266129   1.898   6.372   5.889 -0.6325 -0.9198 -2.0604
21560SOL     OW66130   8.281   7.496   4.516 -0.5532 -0.2538 -0.6197
21560SOL    HW166131   8.232   7.473   4.437 -0.9401  0.1359 -0.4940
21560SOL    HW266132   8.360   7.538   4.483 -0.4073 -0.6753 -0.8166
21561SOL     OW66133   8.145   4.779   8.923  1.4617 -0.1440 -0.2266
21561SOL    HW166134   8.115   4.694   8.957  1.1518  0.5268  1.2136
21561SOL    HW266135   8.199   4.756   8.847 -1.3271 -1.4993 -1.9729
21562SOL     OW66136   4.953   8.555   8.535 -0.2356  0.0421  0.1952
21562SOL    HW166137   4.884   8.619   8.554 -0.6653  1.1150 -3.9456
21562SOL    HW266138   5.000   8.592   8.459  1.2597 -3.2903 -0.7009
21563SOL     OW66139   1.573   6.958   6.049  0.0375  0.1398 -0.2173
21563SOL    HW166140   1.499   6.909   6.085  1.2479 -1.5106  0.1824
21563SOL    HW266141   1.582   7.034   6.105 -0.6882 -0.2193  0.3957
21564SOL     OW66142   5.351   2.962   0.688  0.4263 -0.1718 -0.3635
21564SOL    HW166143   5.421   2.997   0.744 -0.6024 -0.9815  1.4885
21564SOL    HW266144   5.287   3.034   0.682  0.6167 -0.0242 -0.6696
21565SOL     OW66145   3.620   4.259   5.333 -0.0732 -0.0736  0.4266
21565SOL    HW166146   3.699   4.204   5.332 -1.8763 -2.9276  2.1739
21565SOL    HW266147   3.587   4.254   5.243  0.7011 -0.4945  0.1512
21566SOL     OW66148   1.274   9.268   0.138 -0.6311 -0.9116  0.0886
21566SOL    HW166149   1.367   9.281   0.154 -0.9607  1.4152  0.3893
21566SOL    HW266150   1.271   9.204   0.066  1.1831 -1.0238  0.0723
21567SOL     OW66151   8.822   0.437   1.652  0.3646 -0.3464 -1.0920
21567SOL    HW166152   8.736   0.447   1.611  1.2238 -0.4246 -3.0403
21567SOL    HW266153   8.810   0.469   1.742 -1.4207  0.6867 -1.6420
21568SOL     OW66154   0.623   4.164   4.882 -0.5682  0.4446  0.2264
21568SOL    HW166155   0.715   4.181   4.900 -0.7779  1.8952  0.1116
21568SOL    HW266156   0.593   4.111   4.956  0.4689 -0.5149 -0.0237
21569SOL     OW66157   0.750   0.779   8.099 -0.0669  0.0175  0.3085
21569SOL    HW166158   0.844   0.770   8.114 -0.2786 -2.5588  0.5024
21569SOL    HW266159   0.733   0.730   8.019 -1.2341  0.5018  0.2365
21570SOL     OW66160   7.359   3.697   6.580 -0.0481 -0.5033  0.1436
21570SOL    HW166161   7.288   3.710   6.643  0.2179 -0.9727  0.5418
21570SOL    HW266162   7.320   3.723   6.496 -0.7687 -0.9818  0.3156
21571SOL     OW66163   5.323   6.474   5.181  0.0696 -0.1924 -0.0257
21571SOL    HW166164   5.304   6.515   5.266  0.1374  0.3247 -0.2550
21571SOL    HW266165   5.250   6.500   5.125  0.6025  0.4319 -0.4466
21572SOL     OW66166   2.168   0.588   7.007 -0.0657  0.1691  0.1905
21572SOL    HW166167   2.138   0.645   7.078  0.4859 -0.6939  1.1457
21572SOL    HW266168   2.113   0.509   7.016 -1.4303  0.8289 -1.6498
21573SOL     OW66169   3.040   0.446   9.067 -0.7168 -0.5461 -0.1945
21573SOL    HW166170   3.053   0.540   9.079 -2.6203 -0.1628 -0.6693
21573SOL    HW266171   3.101   0.423   8.997 -1.1524  0.6599 -1.0304
21574SOL     OW66172   5.798   1.877   8.928 -0.5121 -0.4928  0.0199
21574SOL    HW166173   5.860   1.871   9.001  1.1962 -0.4470 -1.3609
21574SOL    HW266174   5.769   1.968   8.929  0.2969 -0.2284  0.0282
21575SOL     OW66175   7.002   2.254   8.323 -0.1537 -0.1852 -0.2490
21575SOL    HW166176   7.063   2.191   8.284 -1.0641 -0.1702 -1.7743
21575SOL    HW266177   6.921   2.205   8.336 -0.3760  0.2602  0.0813
21576SOL     OW66178   5.639   2.398   4.260  0.6996 -0.0360 -0.0638
21576SOL    HW166179   5.696   2.426   4.188 -2.6858  0.5495 -2.7553
21576SOL    HW266180   5.558   2.370   4.218 -1.0296 -1.0661  3.4939
21577SOL     OW66181   5.751   0.645   8.554  0.1927  0.2426  0.0509
21577SOL    HW166182   5.734   0.552   8.536 -1.0129  0.2983  0.8172
21577SOL    HW266183   5.757   0.650   8.650  0.7781  0.8858 -0.0065
21578SOL     OW66184   6.140   1.889   4.848 -0.5489 -0.8814 -0.4992
21578SOL    HW166185   6.212   1.871   4.787  0.5212  0.0120  0.4409
21578SOL    HW266186   6.133   1.985   4.849  0.4821 -0.7672  1.8592
21579SOL     OW66187   5.496   7.075   1.700 -0.3965 -0.1736  0.4433
21579SOL    HW166188   5.464   6.992   1.734 -1.1260 -0.1936 -0.2424
21579SOL    HW266189   5.584   7.057   1.668 -0.4650 -0.6296  0.5123
21580SOL     OW66190   8.066   1.316   6.892 -0.2767 -0.1301 -0.7325
21580SOL    HW166191   8.091   1.306   6.984  2.0114 -0.9963 -1.3735
21580SOL    HW266192   8.055   1.227   6.860 -2.9017  0.1817 -0.9201
21581SOL     OW66193   8.270   8.887   1.354  0.1596  0.4528 -0.4984
21581SOL    HW166194   8.322   8.934   1.288  2.2022  1.7390  1.8508
21581SOL    HW266195   8.197   8.945   1.373  0.1705  0.5798 -0.8426
21582SOL     OW66196   2.179   8.578   1.923 -0.1918 -0.1191  0.0300
21582SOL    HW166197   2.244   8.633   1.968 -0.5066  0.1024  0.2210
21582SOL    HW266198   2.144   8.521   1.992  0.8284 -1.2532 -0.3551
21583SOL     OW66199   9.276   0.053   2.778 -0.7387  0.0824 -0.1576
21583SOL    HW166200   9.229  -0.014   2.827 -0.1189 -0.1474  0.1309
21583SOL    HW266201   9.207   0.109   2.741 -1.3371 -1.4720 -1.5276
21584SOL     OW66202   8.555   0.223   5.921  0.7779 -0.1449  0.2219
21584SOL    HW166203   8.576   0.208   5.829  0.7159 -0.9616  0.3295
21584SOL    HW266204   8.475   0.173   5.936  0.3483  0.6210  0.5276
21585SOL     OW66205   4.412   5.386   2.851 -0.3388 -0.5244 -0.6571
21585SOL    HW166206   4.490   5.351   2.894  1.1876  1.3475 -1.7351
21585SOL    HW266207   4.392   5.466   2.900 -1.9402 -1.2461 -0.0764
21586SOL     OW66208   0.799   5.282   0.824 -0.3637  0.0211  0.0508
21586SOL    HW166209   0.894   5.273   0.832 -0.4392 -0.1110  0.8778
21586SOL    HW266210   0.764   5.240   0.902 -1.2198 -1.8732 -1.2629
21587SOL     OW66211   2.656   1.951   5.109  0.2133 -0.5766 -0.3259
21587SOL    HW166212   2.579   1.991   5.150  1.2166  1.7568 -0.5775
21587SOL    HW266213   2.670   2.001   5.028  1.8280 -1.1244 -0.4346
21588SOL     OW66214   0.833   3.756   4.854  0.1953  0.1025 -0.0350
21588SOL    HW166215   0.760   3.704   4.888  0.6616 -0.5651 -0.0333
21588SOL    HW266216   0.870   3.702   4.784  0.4560  0.5987 -0.2829
21589SOL     OW66217   4.497   4.014   1.659  0.3546 -0.2094  0.6566
21589SOL    HW166218   4.510   4.093   1.606  2.1660 -1.1687 -0.4296
21589SOL    HW266219   4.407   4.022   1.692 -0.2755  1.2455 -1.1986
21590SOL     OW66220   3.578   1.140   3.865 -0.4511  0.5754 -0.3384
21590SOL    HW166221   3.595   1.226   3.904  0.3382  0.1509  0.2954
21590SOL    HW266222   3.638   1.136   3.790  1.9565 -0.6615  1.5150
21591SOL     OW66223   5.327   3.487   0.457  0.3092 -0.0078  0.5475
21591SOL    HW166224   5.323   3.391   0.452  0.7265 -0.0297  0.5914
21591SOL    HW266225   5.355   3.514   0.369 -1.4335  0.1813  0.0210
21592SOL     OW66226   5.173   1.625   3.512  0.2952 -0.3965  0.0530
21592SOL    HW166227   5.170   1.695   3.577 -0.1468 -0.9474  0.6431
21592SOL    HW266228   5.082   1.595   3.504 -0.7066  2.7694 -4.3456
21593SOL     OW66229   9.081   1.571   0.131  0.0230 -0.3772 -0.0393
21593SOL    HW166230   9.161   1.565   0.078  0.6578  0.3845  0.7857
21593SOL    HW266231   9.030   1.641   0.089  0.5592  0.2781  0.3646
21594SOL     OW66232   7.679   8.934   8.382 -0.1059  0.0391  0.0219
21594SOL    HW166233   7.628   8.957   8.305  1.5489  2.7389 -0.3947
21594SOL    HW266234   7.770   8.936   8.352  0.6494  1.8170  2.1168
21595SOL     OW66235   7.654   6.055   2.585  0.1988 -0.6664  0.1340
21595SOL    HW166236   7.562   6.029   2.578  0.1678 -0.5698  0.1830
21595SOL    HW266237   7.657   6.140   2.542  0.2349 -0.5992  0.2703
21596SOL     OW66238   6.259   3.371   6.585  0.0498 -0.5742 -0.7664
21596SOL    HW166239   6.314   3.294   6.600  0.0282 -0.4909 -0.2574
21596SOL    HW266240   6.223   3.392   6.671 -0.3287 -0.2856 -0.9933
21597SOL     OW66241   7.697   1.341   1.285  0.6965  0.2176 -0.0085
21597SOL    HW166242   7.661   1.253   1.298 -1.3677  1.0106  0.0072
21597SOL    HW266243   7.771   1.346   1.345  0.0876 -1.0812  0.8930
21598SOL     OW66244   0.338   7.887   9.266 -0.3158 -0.2684 -0.1782
21598SOL    HW166245   0.356   7.854   9.354  1.7616 -0.8409 -0.7681
21598SOL    HW266246   0.340   7.809   9.210 -1.5920  0.0928 -0.7552
21599SOL     OW66247   7.718   8.521   8.974 -0.4616  0.5148 -0.0210
21599SOL    HW166248   7.781   8.585   8.941 -0.8713 -0.1107 -2.1389
21599SOL    HW266249   7.637   8.571   8.985 -0.7164  0.4525 -1.4368
21600SOL     OW66250   9.239   3.025   0.703  0.3648  0.2073  0.3351
21600SOL    HW166251   9.210   3.057   0.789  0.8986 -0.6747  0.8649
21600SOL    HW266252   9.300   3.092   0.672  1.3661 -0.1749  1.3695
21601SOL     OW66253   7.876   6.559   4.553 -0.7601  0.2576  0.6880
21601SOL    HW166254   7.852   6.482   4.501 -2.7188  0.7379  0.8009
21601SOL    HW266255   7.969   6.547   4.572 -0.7716 -1.5545 -0.1659
21602SOL     OW66256   7.270   6.709   2.786  0.1708  0.8194  0.1426
21602SOL    HW166257   7.221   6.658   2.722 -1.0718  0.5518  1.2595
21602SOL    HW266258   7.267   6.657   2.866 -0.7184  2.3608  1.1884
21603SOL     OW66259   8.565   3.581   1.862  0.6121 -0.4267 -0.2798
21603SOL    HW166260   8.609   3.585   1.776  0.6852 -0.1965 -0.2326
21603SOL    HW266261   8.636   3.568   1.924  0.6639  0.3672 -0.1608
21604SOL     OW66262   1.106   4.769   0.454  0.2534 -0.2020 -0.1829
21604SOL    HW166263   1.016   4.772   0.488  0.2406  0.2598 -0.2547
21604SOL    HW266264   1.116   4.851   0.405  0.9367  0.0782  0.3988
21605SOL     OW66265   2.193   8.556   4.337 -0.2608 -0.5779 -0.4163
21605SOL    HW166266   2.167   8.573   4.428  0.3962  0.9575 -0.4860
21605SOL    HW266267   2.165   8.466   4.321 -0.1559 -0.9792  1.3912
21606SOL     OW66268   0.771   8.405   8.035 -0.9739 -0.3180 -0.4225
21606SOL    HW166269   0.705   8.468   8.065  1.1017  2.5907 -1.4148
21606SOL    HW266270   0.833   8.399   8.108 -0.0963  0.4849 -1.0677
21607SOL     OW66271   5.672   6.328   4.061 -0.1953  0.0231  0.0938
21607SOL    HW166272   5.735   6.273   4.107 -1.0510  0.7920  2.2817
21607SOL    HW266273   5.587   6.287   4.077 -0.7532  1.4810  1.1050
21608SOL     OW66274   2.431   3.342   6.419  0.1469 -0.1341 -0.2216
21608SOL    HW166275   2.480   3.417   6.385  0.9797 -0.5886 -0.0526
21608SOL    HW266276   2.480   3.315   6.496  1.4363 -2.4993 -1.7404
21609SOL     OW66277   7.863   6.286   0.753  0.5343  0.2663  0.5727
21609SOL    HW166278   7.874   6.376   0.723  0.4913  1.0366  2.7222
21609SOL    HW266279   7.872   6.291   0.848 -5.1373 -1.0271  1.5279
21610SOL     OW66280   6.350   7.419   1.309  0.3290  0.2199  0.2922
21610SOL    HW166281   6.395   7.460   1.236 -0.5108 -0.3309 -0.5508
21610SOL    HW266282   6.416   7.414   1.378  0.8713  1.5846 -0.0900
21611SOL     OW66283   3.000   5.575   4.055  0.1424 -0.5366 -0.1765
21611SOL    HW166284   2.929   5.522   4.091 -1.8658  0.8403 -1.9048
21611SOL    HW266285   3.018   5.641   4.123  0.5038 -1.4780  0.6733
21612SOL     OW66286   4.013   4.170   3.513  0.3491  0.0550  0.1037
21612SOL    HW166287   3.923   4.190   3.539 -0.0202  2.3343 -2.4675
21612SOL    HW266288   4.067   4.227   3.569  0.2254 -1.0585  1.4039
21613SOL     OW66289   4.157   4.885   1.898  0.5362  0.0589  0.1494
21613SOL    HW166290   4.104   4.818   1.856  0.2652  0.0528  0.4974
21613SOL    HW266291   4.137   4.877   1.992 -1.4612  2.2595  0.0136
21614SOL     OW66292   6.221   6.051   5.377 -0.1536 -0.1083 -0.5736
21614SOL    HW166293   6.216   5.961   5.409  1.4696  0.1630  0.5780
21614SOL    HW266294   6.211   6.105   5.456 -0.6293  0.7037 -1.1773
21615SOL     OW66295   7.635   8.703   4.164 -0.0373 -0.3977  0.1968
21615SOL    HW166296   7.641   8.794   4.193 -1.9155  0.8918 -2.8941
21615SOL    HW266297   7.723   8.683   4.130  0.6310 -0.0922  1.6748
21616SOL     OW66298   5.888   7.301   2.255  0.1049  0.0497  0.2844
21616SOL    HW166299   5.825   7.257   2.312  1.4403 -0.1893  1.6385
21616SOL    HW266300   5.842   7.312   2.172 -1.0584 -1.8547  0.6209
21617SOL     OW66301   6.764   1.190   0.831  0.2611  0.0430 -0.0491
21617SOL    HW166302   6.832   1.230   0.777  1.2267  0.3086  1.3109
21617SOL    HW266303   6.778   1.226   0.918 -2.3612  0.9882  0.0637
21618SOL     OW66304   8.838   6.369   5.375 -0.1697 -0.5930  0.0667
21618SOL    HW166305   8.834   6.418   5.293  1.3074 -1.7128 -0.7231
21618SOL    HW266306   8.789   6.423   5.437  0.4462  1.3247 -1.0166
21619SOL     OW66307   5.846   7.430   1.690  0.5204  0.0966 -0.1924
21619SOL    HW166308   5.793   7.415   1.769 -0.6966 -1.4569 -1.2403
21619SOL    HW266309   5.901   7.505   1.712  0.4114 -0.4594  2.2269
21620SOL     OW66310   4.457   1.469   6.832  0.7687 -0.0151  0.3017
21620SOL    HW166311   4.510   1.508   6.902  0.4281 -0.0444  0.5808
21620SOL    HW266312   4.516   1.408   6.788  1.0254  0.1022  0.4812
21621SOL     OW66313   1.968   6.110   7.130 -0.1526 -0.1582  0.7704
21621SOL    HW166314   1.895   6.146   7.179 -1.1990 -0.5584 -0.4583
21621SOL    HW266315   2.032   6.086   7.198 -1.1899  0.0770  1.8742
21622SOL     OW66316   8.815   2.346   7.335 -0.4331 -0.3390 -0.1203
21622SOL    HW166317   8.721   2.340   7.353 -0.3655 -1.0788  0.0163
21622SOL    HW266318   8.843   2.255   7.319 -0.1999  0.0942 -2.5239
21623SOL     OW66319   2.648   2.259   2.228 -0.5957 -0.0133  0.5374
21623SOL    HW166320   2.557   2.287   2.222 -0.9147 -0.3806  2.8084
21623SOL    HW266321   2.645   2.164   2.223 -0.4823 -0.0926  1.7388
21624SOL     OW66322   0.830   8.372   7.026 -0.6320 -0.6118 -0.1373
21624SOL    HW166323   0.755   8.370   6.966 -2.4371 -2.3599  1.9861
21624SOL    HW266324   0.800   8.425   7.099 -0.5923 -2.8326  1.5884
21625SOL     OW66325   6.039   4.646   8.126 -0.2597 -0.0911  0.3597
21625SOL    HW166326   6.046   4.710   8.197  0.9079 -0.5795  0.7105
21625SOL    HW266327   6.107   4.670   8.064 -1.2514  0.3115 -0.6177
21626SOL     OW66328   1.752   7.741   8.365 -0.0289  0.1597 -0.8488
21626SOL    HW166329   1.675   7.691   8.391 -1.1740  3.1046  1.9873
21626SOL    HW266330   1.824   7.701   8.414 -0.3018 -0.5982 -1.0453
21627SOL     OW66331   6.951   2.734   4.301 -0.0762  0.2975  0.4261
21627SOL    HW166332   7.029   2.679   4.299 -0.4110 -0.3072  2.2421
21627SOL    HW266333   6.955   2.785   4.220  2.3805  0.5514  0.6508
21628SOL     OW66334   4.520   6.776   4.019 -0.5477  0.2846  0.0502
21628SOL    HW166335   4.585   6.772   4.089 -1.8153 -0.3687  1.2189
21628SOL    HW266336   4.498   6.868   4.012 -0.9053  0.2827  0.9970
21629SOL     OW66337   6.690   5.561   3.746  0.4979 -0.4688  0.2331
21629SOL    HW166338   6.605   5.599   3.726 -0.2993 -0.5869  2.9848
21629SOL    HW266339   6.692   5.479   3.697 -0.7485 -0.2348 -0.2536
21630SOL     OW66340   6.490   3.512   3.633 -0.1438 -0.0764  0.0324
21630SOL    HW166341   6.523   3.528   3.545 -1.2719  0.5048 -0.3105
21630SOL    HW266342   6.484   3.599   3.673  1.0141 -0.3857  0.9585
21631SOL     OW66343   0.252   7.814   6.451  0.1091  0.0868  0.4119
21631SOL    HW166344   0.319   7.881   6.461 -0.1669  0.4202  0.0849
21631SOL    HW266345   0.205   7.813   6.534 -0.4883  0.9709  0.0948
21632SOL     OW66346   8.991   0.567   8.489  0.0644  0.2111  0.0766
21632SOL    HW166347   8.948   0.520   8.560 -2.0716 -2.0806 -2.5277
21632SOL    HW266348   9.079   0.529   8.485  0.6819  1.2657  2.1682
21633SOL     OW66349   5.671   6.475   6.872 -0.0471  0.1224  0.1250
21633SOL    HW166350   5.644   6.416   6.941 -0.9576 -0.3285 -0.5893
21633SOL    HW266351   5.589   6.500   6.828  0.4402  0.9371 -0.3513
21634SOL     OW66352   1.384   3.125   3.972  0.0286 -0.0673  0.5456
21634SOL    HW166353   1.357   3.043   4.013  1.5937 -1.2502 -0.6374
21634SOL    HW266354   1.417   3.179   4.044 -2.6977  0.3341  1.6119
21635SOL     OW66355   1.696   6.142   4.182 -0.1281 -0.9109  0.9341
21635SOL    HW166356   1.767   6.197   4.216 -0.2419 -0.5908  0.6649
21635SOL    HW266357   1.627   6.148   4.248  0.0308 -1.0816  1.1138
21636SOL     OW66358   9.036   6.485   1.134 -0.3116  0.0455  0.2826
21636SOL    HW166359   9.049   6.393   1.110 -3.4445  0.0119 -1.7832
21636SOL    HW266360   9.033   6.485   1.229 -3.2698 -2.6026  0.3386
21637SOL     OW66361   3.554   6.099   2.651 -0.2812  0.4872  0.1327
21637SOL    HW166362   3.583   6.190   2.646 -2.3089  1.1339 -1.0283
21637SOL    HW266363   3.481   6.094   2.589  0.0484 -2.0464 -0.1256
21638SOL     OW66364   8.544   0.932   4.955  0.0935  0.5093  0.5716
21638SOL    HW166365   8.457   0.912   4.922  0.8229 -1.2665 -0.3994
21638SOL    HW266366   8.581   0.993   4.891 -0.4361  1.3210  1.0228
21639SOL     OW66367   0.433   8.793   2.754 -0.2720  0.6982  0.1003
21639SOL    HW166368   0.500   8.766   2.691 -0.6224 -0.4509  0.1850
21639SOL    HW266369   0.354   8.803   2.701 -0.0360  2.1569 -0.0178
21640SOL     OW66370   4.151   5.046   1.483  0.1125 -0.4910 -0.3029
21640SOL    HW166371   4.187   5.040   1.394 -0.2181 -1.0315 -0.4048
21640SOL    HW266372   4.224   5.022   1.540  0.4884  0.4076 -0.3904
21641SOL     OW66373   8.898   6.457   8.706 -0.0613  0.6222 -1.0312
21641SOL    HW166374   8.889   6.391   8.637  0.5322 -0.6423  0.0631
21641SOL    HW266375   8.991   6.454   8.729 -0.8807 -2.2870  2.9048
21642SOL     OW66376   6.174   5.454   3.800 -0.2412  0.2015  0.1556
21642SOL    HW166377   6.097   5.510   3.813 -1.5730 -1.5775  0.3207
21642SOL    HW266378   6.216   5.451   3.886 -0.2337  0.8257  0.1776
21643SOL     OW66379   6.002   1.140   1.119 -0.1281  0.4985  0.0748
21643SOL    HW166380   5.942   1.154   1.047  1.3039  0.7033 -1.1276
21643SOL    HW266381   5.968   1.194   1.190 -2.8480 -1.4228  0.3960
21644SOL     OW66382   1.059   4.229   6.733  0.2576  0.0859  0.5118
21644SOL    HW166383   1.049   4.294   6.663 -1.3049 -0.0002  0.6186
21644SOL    HW266384   1.025   4.148   6.695  0.9348 -0.3607  0.8384
21645SOL     OW66385   6.223   4.604   3.311  0.0574  0.3980 -0.2250
21645SOL    HW166386   6.267   4.616   3.395 -1.3297 -0.2215  0.6270
21645SOL    HW266387   6.140   4.562   3.333 -0.3533  0.2500 -1.9110
21646SOL     OW66388   6.201   7.972   2.444  0.2817  0.1065 -0.0817
21646SOL    HW166389   6.225   7.931   2.527 -0.4371 -0.2499 -0.0386
21646SOL    HW266390   6.117   7.931   2.421  0.6984 -0.1454 -1.2199
21647SOL     OW66391   3.382   5.474   1.655 -0.4011 -0.0342  0.1801
21647SOL    HW166392   3.451   5.523   1.699 -1.0530  1.8594 -0.8063
21647SOL    HW266393   3.301   5.513   1.687 -0.9459 -0.4691 -0.6487
21648SOL     OW66394   6.665   2.554   2.032  0.4863 -0.4501 -0.9802
21648SOL    HW166395   6.689   2.644   2.051  0.6257 -0.7924  0.5777
21648SOL    HW266396   6.614   2.559   1.951 -0.1891  1.1212 -0.4843
21649SOL     OW66397   1.091   7.301   1.296 -0.1055  0.5094  0.4146
21649SOL    HW166398   1.182   7.325   1.280 -0.5496  1.6975 -0.5320
21649SOL    HW266399   1.076   7.223   1.244  0.7501 -0.5634  1.7221
21650SOL     OW66400   0.865   3.483   1.807  0.0398  0.1572 -0.2614
21650SOL    HW166401   0.886   3.395   1.838  1.5528  0.4554 -0.3776
21650SOL    HW266402   0.925   3.540   1.855 -0.9309  1.1430 -0.1745
21651SOL     OW66403   1.872   1.308   0.437  0.7718  0.0647 -0.4660
21651SOL    HW166404   1.925   1.235   0.404 -0.1340 -0.2913 -1.1632
21651SOL    HW266405   1.808   1.267   0.494  1.8757  0.6080  1.2325
21652SOL     OW66406   0.029   8.461   4.714  0.6543  0.1409 -0.4026
21652SOL    HW166407  -0.050   8.444   4.662  1.4835 -2.1363 -1.0057
21652SOL    HW266408   0.034   8.389   4.776  3.6017 -1.3123 -2.0959
21653SOL     OW66409   8.568   6.726   7.087 -0.4548 -0.2258  0.8190
21653SOL    HW166410   8.596   6.648   7.039 -1.3330  0.3963 -0.7744
21653SOL    HW266411   8.622   6.797   7.053 -1.6239  0.3675  0.1410
21654SOL     OW66412   8.312   7.906   0.219  0.1806  0.0172  0.0844
21654SOL    HW166413   8.307   7.959   0.299 -1.3473 -1.3805  0.9583
21654SOL    HW266414   8.332   7.818   0.250  0.4176 -0.3847 -1.1604
21655SOL     OW66415   1.733   8.333   7.605 -0.0028  0.2285 -0.3255
21655SOL    HW166416   1.807   8.373   7.559  0.3965 -0.5037 -0.3211
21655SOL    HW266417   1.767   8.251   7.639 -1.4603 -1.3665 -2.4531
21656SOL     OW66418   4.374   5.339   7.818  0.1549 -0.2659  0.5184
21656SOL    HW166419   4.337   5.374   7.899  0.3350 -0.5851  0.7412
21656SOL    HW266420   4.427   5.264   7.846  0.0023 -0.5423  0.0811
21657SOL     OW66421   6.613   3.271   8.036 -0.3907 -0.7047 -0.0543
21657SOL    HW166422   6.545   3.334   8.011 -0.3570 -0.8569 -0.5388
21657SOL    HW266423   6.632   3.223   7.955  0.4382 -0.5258  0.0177
21658SOL     OW66424   6.460   3.753   4.664 -0.0112  0.3115 -0.9283
21658SOL    HW166425   6.463   3.740   4.569  1.1052  2.5057 -1.2612
21658SOL    HW266426   6.453   3.848   4.675  1.0550  0.2101  1.2049
21659SOL     OW66427   1.623   7.202   9.260  0.0030  0.1657  0.3402
21659SOL    HW166428   1.655   7.135   9.200 -0.5461 -0.2905  0.5505
21659SOL    HW266429   1.553   7.160   9.309 -2.3071  1.6664 -1.4477
21660SOL     OW66430   0.113   1.746   8.690 -0.3604  0.1799 -0.2727
21660SOL    HW166431   0.161   1.668   8.719 -0.1159  0.7114  0.7789
21660SOL    HW266432   0.139   1.757   8.598 -0.3790 -0.9522 -0.4392
21661SOL     OW66433   5.029   5.543   1.467  0.1468 -0.2930  0.6375
21661SOL    HW166434   5.043   5.543   1.561  1.6682  1.6095  0.4759
21661SOL    HW266435   5.017   5.636   1.445 -0.4808 -0.7308 -1.0005
21662SOL     OW66436   0.686   4.384   4.667  0.1473 -0.1721  0.1320
21662SOL    HW166437   0.608   4.369   4.613  0.2413 -0.1623 -0.0069
21662SOL    HW266438   0.686   4.478   4.684 -0.9036 -0.4141  1.7014
21663SOL     OW66439   8.953   8.629   7.348  0.3244 -0.2010 -0.6727
21663SOL    HW166440   8.960   8.611   7.441  0.0640  0.2101 -0.5727
21663SOL    HW266441   9.014   8.567   7.307 -1.2638 -2.0100 -0.4429
21664SOL     OW66442   2.524   8.787   1.238  0.2591 -0.6505  0.0006
21664SOL    HW166443   2.475   8.787   1.156 -2.6620  2.1155  1.4862
21664SOL    HW266444   2.515   8.697   1.271  2.4760 -2.1440 -3.0482
21665SOL     OW66445   0.965   2.486   3.565  0.2108  0.0019  0.6272
21665SOL    HW166446   0.955   2.443   3.480  0.2718 -1.1562  1.1971
21665SOL    HW266447   1.045   2.538   3.556 -0.5028  0.9893 -0.4620
21666SOL     OW66448   2.789   7.136   1.435 -0.2289  0.1545  0.8229
21666SOL    HW166449   2.767   7.118   1.527  0.0933 -0.6925  0.7432
21666SOL    HW266450   2.705   7.145   1.391 -0.3861  0.3983  1.1690
21667SOL     OW66451   2.686   1.985   7.581 -0.0857  0.4670 -0.2159
21667SOL    HW166452   2.601   2.015   7.551 -0.2605  0.6054  0.4057
21667SOL    HW266453   2.676   1.891   7.593  0.5004  0.0857 -2.2978
21668SOL     OW66454   3.154   3.924   4.520 -0.3186  0.5145  0.2079
21668SOL    HW166455   3.080   3.920   4.581 -1.5472  1.4097 -1.1549
21668SOL    HW266456   3.160   3.835   4.483  0.1926  0.0721  1.3071
21669SOL     OW66457   0.233   5.730   6.573  0.6507 -0.0706  0.1016
21669SOL    HW166458   0.298   5.678   6.620  0.9897  0.4052  0.1643
21669SOL    HW266459   0.233   5.815   6.618  1.1645  0.4744 -0.8970
21670SOL     OW66460   4.502   6.418   6.227  0.1369  0.0441 -0.6306
21670SOL    HW166461   4.410   6.413   6.254  0.4602  0.0932  0.5116
21670SOL    HW266462   4.500   6.393   6.134 -0.9411 -0.6463 -0.4470
21671SOL     OW66463   7.892   4.011   7.830 -0.4660  0.5121  0.3551
21671SOL    HW166464   7.827   3.943   7.846  0.6746 -0.5925  0.3859
21671SOL    HW266465   7.888   4.026   7.736 -0.0498 -0.3045  0.1993
21672SOL     OW66466   4.226   4.856   3.405  0.0825  0.8052 -0.5539
21672SOL    HW166467   4.316   4.842   3.434 -0.0261  0.8364 -0.2045
21672SOL    HW266468   4.179   4.887   3.482 -0.5192 -0.3973 -0.4010
21673SOL     OW66469   4.456   7.495   2.298 -1.0021  0.0429  0.0418
21673SOL    HW166470   4.511   7.431   2.344 -1.3732  0.4013  1.0144
21673SOL    HW266471   4.462   7.469   2.206  2.2633  1.1492 -0.1895
21674SOL     OW66472   6.118   4.462   8.580  0.5883  0.6260  0.0916
21674SOL    HW166473   6.211   4.482   8.574  0.4030  1.8030  0.8520
21674SOL    HW266474   6.081   4.535   8.629 -0.7975  0.3423 -0.4957
21675SOL     OW66475   5.070   6.613   0.833  0.1422  0.3518 -0.1120
21675SOL    HW166476   5.033   6.534   0.872  1.7137 -0.3088  0.1026
21675SOL    HW266477   5.149   6.630   0.883  0.3646  1.4806 -0.8178
21676SOL     OW66478   5.670   8.514   0.782 -0.3685  0.6956  0.3275
21676SOL    HW166479   5.667   8.528   0.877  2.1687  0.1296  0.5765
21676SOL    HW266480   5.735   8.577   0.750  2.3302 -2.1056 -0.2419
21677SOL     OW66481   7.789   3.466   6.285 -0.1297  0.1192 -0.2777
21677SOL    HW166482   7.802   3.528   6.357  2.9320 -0.3417 -0.2843
21677SOL    HW266483   7.722   3.405   6.317 -0.8582  1.5278  1.0125
21678SOL     OW66484   3.950   1.164   8.430 -0.0807  0.3669 -0.0673
21678SOL    HW166485   3.904   1.245   8.408  0.8913  0.9949  0.1508
21678SOL    HW266486   3.995   1.183   8.513  1.0753 -0.0026 -0.5778
21679SOL     OW66487   4.034   3.920   2.586 -0.4275  0.6439 -0.1620
21679SOL    HW166488   4.067   3.979   2.518  1.5410 -0.0150  0.1641
21679SOL    HW266489   3.992   3.978   2.649 -0.1789  1.5108 -0.7734
21680SOL     OW66490   7.677   2.961   8.155  0.2511 -0.2883 -0.0384
21680SOL    HW166491   7.741   2.947   8.224 -1.1082 -0.2102  1.2826
21680SOL    HW266492   7.687   2.886   8.096  1.9240  0.0275 -0.1893
21681SOL     OW66493   2.827   7.741   6.205 -0.0611  0.0032  0.1799
21681SOL    HW166494   2.898   7.680   6.225 -1.3140 -1.6251 -0.0953
21681SOL    HW266495   2.845   7.817   6.260  2.9282  0.5207 -1.2791
21682SOL     OW66496   7.673   6.553   8.692  0.0123  0.4049  0.4009
21682SOL    HW166497   7.764   6.575   8.675  0.1252 -1.4913 -2.1003
21682SOL    HW266498   7.628   6.637   8.698  1.6247  1.3600 -0.2587
21683SOL     OW66499   1.554   6.191   6.060  0.5328 -0.2104 -0.3578
21683SOL    HW166500   1.480   6.184   6.120  0.2720  1.7687 -0.3755
21683SOL    HW266501   1.527   6.258   5.997  2.2088  0.3337 -0.5395
21684SOL     OW66502   6.708   6.044   2.896 -0.2335 -0.0093 -0.2971
21684SOL    HW166503   6.767   5.996   2.838  2.6300  0.8214  1.6980
21684SOL    HW266504   6.699   6.130   2.854  0.0805 -0.0893 -0.5354
21685SOL     OW66505   2.426   6.524   7.675 -0.1076 -0.6915  0.4430
21685SOL    HW166506   2.346   6.528   7.727 -0.6431 -0.1272 -0.4083
21685SOL    HW266507   2.406   6.462   7.605 -0.1816  0.2400 -0.3849
21686SOL     OW66508   7.548   7.347   0.296  0.3923 -0.4746 -0.5099
21686SOL    HW166509   7.633   7.302   0.306  0.8608  0.3317 -0.8076
21686SOL    HW266510   7.510   7.309   0.217  0.4391 -0.8945 -0.3343
21687SOL     OW66511   3.323   7.861   7.269 -0.5438 -0.2158  0.0009
21687SOL    HW166512   3.411   7.898   7.267 -1.1580  1.3086 -0.4659
21687SOL    HW266513   3.335   7.773   7.306  1.1733 -0.0991 -0.1753
21688SOL     OW66514   3.245   7.838   8.544 -0.4646  0.2200 -0.4363
21688SOL    HW166515   3.178   7.805   8.485  0.4412 -0.6110 -1.0243
21688SOL    HW266516   3.310   7.767   8.549  1.0341  1.5016 -0.9421
21689SOL     OW66517   6.556   5.205   9.030  1.0940  0.4282 -0.9820
21689SOL    HW166518   6.525   5.122   9.066 -0.6708  0.1523 -2.9405
21689SOL    HW266519   6.567   5.262   9.106  0.1407 -0.9048  0.2052
21690SOL     OW66520   0.628   0.180   3.635  0.2900 -0.9887  0.5774
21690SOL    HW166521   0.565   0.175   3.563  0.0300  0.4509  0.6652
21690SOL    HW266522   0.600   0.257   3.685  3.3639  1.1294 -0.6352
21691SOL     OW66523   5.546   1.108   0.172 -0.0416  0.2742  0.4546
21691SOL    HW166524   5.622   1.151   0.132 -1.2303  1.4034 -0.6604
21691SOL    HW266525   5.482   1.178   0.182 -1.7797 -1.0822 -0.7472
21692SOL     OW66526   7.806   1.960   0.240 -0.2364  0.0214 -0.1873
21692SOL    HW166527   7.836   1.978   0.328 -0.4155 -0.8304  0.0560
21692SOL    HW266528   7.832   1.869   0.223 -0.1483  0.1921 -1.0317
21693SOL     OW66529   3.068   7.633   6.252 -0.3638  0.0061 -0.3853
21693SOL    HW166530   3.121   7.664   6.325  0.0952  1.6118 -1.3642
21693SOL    HW266531   3.073   7.537   6.258  3.4541  0.0174 -0.9299
21694SOL     OW66532   1.512   5.759   3.225  0.1939  0.5654  0.0319
21694SOL    HW166533   1.533   5.667   3.240  0.9863  1.1021  2.6001
21694SOL    HW266534   1.585   5.792   3.173  0.4095  0.0013 -0.0331
21695SOL     OW66535   5.732   0.050   2.162  0.7079  0.3279 -0.7551
21695SOL    HW166536   5.745   0.133   2.208  0.7438  0.4267 -0.9431
21695SOL    HW266537   5.651   0.014   2.198  0.9413  0.2181 -0.3329
21696SOL     OW66538   8.455   2.989   8.938 -0.0685  0.0363  0.0818
21696SOL    HW166539   8.519   2.937   8.988 -1.0805 -1.9291 -0.5373
21696SOL    HW266540   8.439   2.937   8.859 -0.1498  2.0000 -1.2638
21697SOL     OW66541   1.216   9.003   8.944 -0.2286 -0.2209 -0.6820
21697SOL    HW166542   1.244   8.942   8.876 -0.8910  1.4552 -2.5374
21697SOL    HW266543   1.226   9.089   8.905 -0.2430  0.8524  1.5222
21698SOL     OW66544   7.832   4.287   7.842 -0.1897 -0.2373 -0.4180
21698SOL    HW166545   7.925   4.310   7.852 -0.1929  0.0317 -0.9804
21698SOL    HW266546   7.833   4.194   7.816  0.0197  0.2102 -2.1505
21699SOL     OW66547   5.255   0.543   0.653 -0.1126  0.2341 -0.0326
21699SOL    HW166548   5.188   0.501   0.706 -0.5112 -0.7905 -1.2860
21699SOL    HW266549   5.207   0.584   0.581  0.3567  2.1185  0.6708
21700SOL     OW66550   1.131   6.687   7.030 -0.6919  0.4738 -0.6844
21700SOL    HW166551   1.133   6.750   6.958  2.1260 -0.2712 -1.3712
21700SOL    HW266552   1.145   6.602   6.988  0.6509 -0.0267  0.6936
21701SOL     OW66553   2.138   2.191   4.655 -0.5849  0.1129 -0.2585
21701SOL    HW166554   2.141   2.174   4.561  3.3931 -0.7204 -0.1984
21701SOL    HW266555   2.170   2.281   4.665  0.4018 -0.2709  0.2746
21702SOL     OW66556   6.968   4.889   8.218  0.0783 -0.7127 -0.4436
21702SOL    HW166557   7.047   4.921   8.262  0.8272 -1.1706 -1.4179
21702SOL    HW266558   6.996   4.875   8.128 -1.4169  0.2059 -1.0752
21703SOL     OW66559   9.183   1.859   8.804 -0.2051 -0.5729  0.1052
21703SOL    HW166560   9.261   1.808   8.783 -0.2197 -1.1916  1.4348
21703SOL    HW266561   9.111   1.796   8.795 -0.4326 -0.2873 -0.0855
21704SOL     OW66562   0.586   5.484   0.407 -0.4487  0.0170  0.0756
21704SOL    HW166563   0.621   5.396   0.393  1.0080  0.4026  1.0616
21704SOL    HW266564   0.573   5.489   0.502  1.0844  1.4055  0.2555
21705SOL     OW66565   6.521   5.493   0.260 -0.1491  0.5200  0.4724
21705SOL    HW166566   6.596   5.542   0.226  0.1090  1.0817  1.7765
21705SOL    HW266567   6.559   5.413   0.297 -0.3644  0.1532 -0.0905
21706SOL     OW66568   7.628   4.019   4.142 -0.6074 -0.1110 -0.1595
21706SOL    HW166569   7.696   4.023   4.075  0.8802 -0.6454  1.2689
21706SOL    HW266570   7.595   3.929   4.137 -0.2227 -0.2679  0.0760
21707SOL     OW66571   4.380   7.346   5.947 -0.3823  0.2846 -0.4707
21707SOL    HW166572   4.429   7.333   6.028 -1.8139 -0.1459  0.3598
21707SOL    HW266573   4.291   7.317   5.968 -0.7992  0.2285 -2.1778
21708SOL     OW66574   4.849   2.313   8.119  0.1608 -0.3512 -0.4028
21708SOL    HW166575   4.876   2.401   8.147  0.6760 -0.4032 -0.7242
21708SOL    HW266576   4.780   2.289   8.180 -0.0878  0.3405 -0.4032
21709SOL     OW66577   7.707   4.976   0.916 -0.0795 -0.4940 -0.0196
21709SOL    HW166578   7.640   5.014   0.859  0.5241 -0.5108 -0.7402
21709SOL    HW266579   7.657   4.927   0.982 -0.8092  0.2483 -0.0001
21710SOL     OW66580   5.945   8.977   4.475 -0.0940 -0.0248  0.5303
21710SOL    HW166581   5.918   8.885   4.470 -1.7557  0.4307  0.4138
21710SOL    HW266582   6.038   8.976   4.454 -0.6653 -1.3900 -2.5238
21711SOL     OW66583   7.207   1.070   5.944 -0.0756  0.4994 -0.4088
21711SOL    HW166584   7.112   1.074   5.951 -0.0292  0.7649  0.1411
21711SOL    HW266585   7.239   1.133   6.009  0.5000 -0.4480  0.2561
21712SOL     OW66586   4.891   4.553   0.970 -0.2700  0.4559  0.0321
21712SOL    HW166587   4.804   4.588   0.993 -0.1821  0.4717  0.3523
21712SOL    HW266588   4.929   4.619   0.913 -1.2259 -0.4240 -1.7085
21713SOL     OW66589   6.439   5.496   6.200 -0.4418  0.0068 -0.2766
21713SOL    HW166590   6.415   5.552   6.274  1.6747 -0.4113  0.8224
21713SOL    HW266591   6.429   5.407   6.234  0.4153 -0.1874 -0.5236
21714SOL     OW66592   6.615   8.411   1.062 -0.2580  0.3656 -0.0379
21714SOL    HW166593   6.611   8.473   0.989 -0.2430 -1.2852 -1.5083
21714SOL    HW266594   6.706   8.417   1.092 -0.5764  1.9696  0.7334
21715SOL     OW66595   0.043   7.885   0.964 -0.0499  0.2739  0.0156
21715SOL    HW166596  -0.017   7.828   1.011 -0.9682 -0.6796 -2.2235
21715SOL    HW266597   0.119   7.830   0.945  0.7848  0.9529  1.1868
21716SOL     OW66598   6.570   6.909   6.699  0.9830  0.2286  0.0050
21716SOL    HW166599   6.596   6.818   6.713  1.0076  0.0529 -1.0940
21716SOL    HW266600   6.496   6.905   6.638 -0.4927  0.8389  1.6740
21717SOL     OW66601   4.641   5.017   0.426  0.0380  0.2023 -0.2205
21717SOL    HW166602   4.580   5.062   0.484 -0.3010 -0.9788  0.3924
21717SOL    HW266603   4.714   5.078   0.415 -0.2543  0.7676  0.8175
21718SOL     OW66604   3.398   1.338   7.528  0.0125 -0.3509  0.0063
21718SOL    HW166605   3.395   1.400   7.601 -0.2627  0.4385 -0.6624
21718SOL    HW266606   3.476   1.286   7.544  0.1315  0.0298  0.6986
21719SOL     OW66607   9.196   5.708   5.598  0.0733 -0.3085 -0.2873
21719SOL    HW166608   9.253   5.729   5.523  0.5782 -3.6875 -1.0031
21719SOL    HW266609   9.108   5.719   5.563  0.2967 -0.3983 -0.9038
21720SOL     OW66610   4.579   1.641   2.053  0.2476 -0.4833 -0.2237
21720SOL    HW166611   4.513   1.597   1.998  0.6842 -1.1565 -0.2172
21720SOL    HW266612   4.619   1.706   1.994 -0.7195  0.2524 -0.1021
21721SOL     OW66613   2.117   4.578   0.314 -0.1571  0.1799  0.0472
21721SOL    HW166614   2.027   4.597   0.289  0.3234  1.4795 -0.8173
21721SOL    HW266615   2.161   4.561   0.231  0.5797  0.4469  0.3719
21722SOL     OW66616   6.931   6.503   0.108  0.4069 -0.3449  0.0316
21722SOL    HW166617   6.960   6.424   0.063  0.3312  0.9030 -2.4205
21722SOL    HW266618   6.836   6.497   0.111  0.3605 -0.1177 -0.7008
21723SOL     OW66619   7.129   7.531   7.096  0.0657 -0.1489 -0.1189
21723SOL    HW166620   7.098   7.503   7.010 -0.7967  1.0541 -0.2326
21723SOL    HW266621   7.212   7.485   7.107  0.3117 -0.1652 -1.6950
21724SOL     OW66622   1.070   7.667   4.680 -0.4699  0.0686  0.3006
21724SOL    HW166623   1.155   7.642   4.644 -0.2968 -0.7113  1.2229
21724SOL    HW266624   1.007   7.633   4.616 -0.1216  0.1012 -0.0696
21725SOL     OW66625   3.981   2.574   3.301 -0.1777  0.3108  0.5193
21725SOL    HW166626   4.049   2.547   3.363  0.4503  1.2543  0.2513
21725SOL    HW266627   3.975   2.502   3.239 -0.5550 -0.4891  1.4422
21726SOL     OW66628   2.860   7.540   4.114 -0.1143  0.3607  0.3754
21726SOL    HW166629   2.828   7.495   4.036 -2.0761  1.4155  0.5009
21726SOL    HW266630   2.942   7.582   4.086  0.3777 -1.0825 -0.4455
21727SOL     OW66631   7.056   0.289   4.717 -0.0773 -0.3422 -0.4350
21727SOL    HW166632   7.047   0.381   4.741 -1.5568 -0.2722 -1.1301
21727SOL    HW266633   7.137   0.261   4.759 -1.4004  0.3163  2.8407
21728SOL     OW66634   3.993   8.599   3.938  0.8436 -0.3532 -0.3488
21728SOL    HW166635   3.984   8.695   3.940  0.3077 -0.3905  2.5427
21728SOL    HW266636   4.086   8.584   3.953  0.7586 -0.3019  0.2243
21729SOL     OW66637   6.351   3.476   5.736 -0.5341  0.5166  0.0692
21729SOL    HW166638   6.437   3.461   5.776 -1.2123  1.5991  2.0558
21729SOL    HW266639   6.318   3.388   5.716  0.1881 -0.0338  1.1956
21730SOL     OW66640   0.534   6.981   7.897  0.6167 -0.4604  0.0689
21730SOL    HW166641   0.542   7.076   7.888 -0.5446 -0.2687  0.9107
21730SOL    HW266642   0.590   6.946   7.828 -0.7207  0.8454 -1.7533
21731SOL     OW66643   8.051   0.597   7.925  0.2880  0.2628 -0.4605
21731SOL    HW166644   8.104   0.518   7.925  0.9340  0.6368  1.3018
21731SOL    HW266645   7.962   0.566   7.911  0.4615 -0.8630  0.7182
21732SOL     OW66646   2.792   0.191   6.677 -0.5070  0.7128  0.9783
21732SOL    HW166647   2.757   0.232   6.597 -1.1786  1.2452  1.5366
21732SOL    HW266648   2.737   0.113   6.689  1.4148 -1.0419 -0.6636
21733SOL     OW66649   8.199   2.950   1.564  0.6990  0.4373  0.0373
21733SOL    HW166650   8.108   2.955   1.595  0.4160  0.1558 -0.7311
21733SOL    HW266651   8.194   2.898   1.484  1.2427  2.0240 -1.0721
21734SOL     OW66652   1.271   1.398   7.989  0.1353  0.0676 -0.1076
21734SOL    HW166653   1.350   1.420   8.038  1.1520  0.1729 -1.7169
21734SOL    HW266654   1.201   1.401   8.054  1.4227  0.0967  1.3380
21735SOL     OW66655   6.240   5.189   7.926  0.2440 -0.8411 -0.0696
21735SOL    HW166656   6.286   5.203   7.843 -1.1387  1.3406 -0.5727
21735SOL    HW266657   6.157   5.236   7.915 -0.7932 -2.0990  1.8804
21736SOL     OW66658   6.320   2.029   5.921 -0.2887  0.2049  0.3049
21736SOL    HW166659   6.343   1.986   5.839 -0.4386 -0.0507  0.3971
21736SOL    HW266660   6.321   1.959   5.987  1.4790  0.6907  0.8428
21737SOL     OW66661   2.266   0.044   8.709 -0.4983  0.1439 -0.0186
21737SOL    HW166662   2.280  -0.001   8.626  0.6145  0.0201  0.2111
21737SOL    HW266663   2.292   0.134   8.692 -0.1980  0.1020  0.2038
21738SOL     OW66664   6.104   1.927   3.262 -0.5658  0.1007 -0.0721
21738SOL    HW166665   6.149   1.846   3.286  2.2919  2.1789  2.2367
21738SOL    HW266666   6.011   1.902   3.256  0.2765 -3.4776 -0.5000
21739SOL     OW66667   8.364   8.129   2.972 -0.2806  0.0251 -0.2700
21739SOL    HW166668   8.288   8.123   2.914  0.5724 -1.5733 -1.2998
21739SOL    HW266669   8.420   8.056   2.945  1.9533  1.5505 -0.0091
21740SOL     OW66670   5.999   8.425   6.976  0.2336  0.4636  0.3434
21740SOL    HW166671   5.970   8.516   6.972 -2.6112 -0.2721  1.7738
21740SOL    HW266672   6.001   8.404   7.069  0.5340 -1.0407  0.0338
21741SOL     OW66673   6.379   0.678   2.111  0.0041 -0.1889 -0.4897
21741SOL    HW166674   6.378   0.723   2.196 -1.6958  0.5381 -0.8450
21741SOL    HW266675   6.380   0.585   2.133  0.5764 -0.0079  0.3071
21742SOL     OW66676   4.835   7.046   3.039 -0.2083  0.8283 -0.9211
21742SOL    HW166677   4.762   6.986   3.024  0.2952 -1.1274  3.1268
21742SOL    HW266678   4.798   7.114   3.095  0.7065  0.6574 -0.0971
21743SOL     OW66679   4.406   2.540   0.257  0.2343  0.3924 -0.0981
21743SOL    HW166680   4.369   2.546   0.168  2.1061 -0.5758 -1.0152
21743SOL    HW266681   4.463   2.616   0.264  0.8066 -0.0340 -0.0960
21744SOL     OW66682   2.774   8.172   7.340 -0.4294  0.0624 -0.3377
21744SOL    HW166683   2.823   8.096   7.309 -1.8736 -0.7254 -0.7919
21744SOL    HW266684   2.689   8.137   7.368 -0.3376  1.1971  1.5990
21745SOL     OW66685   5.632   6.387   5.662  0.3647  0.1869  0.3161
21745SOL    HW166686   5.671   6.461   5.709 -0.6676  0.7568  0.3030
21745SOL    HW266687   5.568   6.427   5.603  1.0471 -0.5800 -0.9864
21746SOL     OW66688   5.433   7.267   3.497  0.1653  0.0092  0.5615
21746SOL    HW166689   5.395   7.333   3.439 -0.2214 -1.4907 -0.9843
21746SOL    HW266690   5.460   7.316   3.575 -1.9874  1.6468  0.3664
21747SOL     OW66691   4.963   1.525   2.909  0.3791  0.1449  0.1186
21747SOL    HW166692   4.878   1.532   2.866  0.7769 -0.5768 -0.8056
21747SOL    HW266693   5.016   1.594   2.869  0.3974  0.2404  0.3047
21748SOL     OW66694   5.385   5.007   0.198  0.1575 -0.0899 -0.5572
21748SOL    HW166695   5.406   5.096   0.173  1.3077 -0.7095 -1.9252
21748SOL    HW266696   5.465   4.957   0.181 -0.7650 -1.5735 -0.7720
21749SOL     OW66697   8.335   4.142   8.660  0.5566 -0.4479 -0.2193
21749SOL    HW166698   8.243   4.117   8.669  0.3651  0.4772  0.5460
21749SOL    HW266699   8.349   4.207   8.729  1.9769 -1.0891  0.1434
21750SOL     OW66700   1.564   8.937   2.618 -0.4756 -0.0180  0.2487
21750SOL    HW166701   1.567   8.846   2.649 -0.4182  0.0127  0.3325
21750SOL    HW266702   1.655   8.967   2.623 -0.5314  0.1175  0.4382
21751SOL     OW66703   2.978   7.383   6.960 -0.3776  0.7533 -0.2765
21751SOL    HW166704   2.958   7.348   7.046 -0.0641 -1.1675 -0.9371
21751SOL    HW266705   3.073   7.391   6.958 -0.4321  1.4645 -0.2076
21752SOL     OW66706   7.959   4.992   8.794  0.5221  0.1649 -0.4325
21752SOL    HW166707   7.918   4.956   8.716 -2.0455 -2.1512  1.7911
21752SOL    HW266708   8.020   4.924   8.824 -0.0438  0.1092  0.6584
21753SOL     OW66709   4.121   6.349   8.712 -0.5818  0.1717 -0.2263
21753SOL    HW166710   4.163   6.327   8.796 -1.0617  0.2874  0.0485
21753SOL    HW266711   4.160   6.432   8.687  0.5711 -0.5235 -0.8108
21754SOL     OW66712   7.728   7.029   7.736  0.6114  0.0645 -0.2714
21754SOL    HW166713   7.715   6.963   7.668 -0.1547  0.7921 -0.8665
21754SOL    HW266714   7.710   6.983   7.818 -1.4775 -0.1314 -0.7696
21755SOL     OW66715   5.767   8.281   6.249 -0.3338  0.1208 -0.1306
21755SOL    HW166716   5.711   8.345   6.204  0.3002  0.2622 -0.7145
21755SOL    HW266717   5.732   8.280   6.339 -0.3199  1.3383 -0.0857
21756SOL     OW66718   7.518   8.136   3.583 -0.3350  0.3384  0.2253
21756SOL    HW166719   7.468   8.056   3.569 -1.3472  0.7453  1.3216
21756SOL    HW266720   7.512   8.183   3.500  1.7344 -1.4269 -1.0568
21757SOL     OW66721   2.409   1.432   6.255  0.6398  0.3676 -0.1956
21757SOL    HW166722   2.503   1.432   6.272  0.5663 -1.3883  0.4656
21757SOL    HW266723   2.375   1.508   6.302  1.2374 -1.1545  2.9797
21758SOL     OW66724   9.137   3.554   8.590  0.0905 -0.6023 -0.2428
21758SOL    HW166725   9.221   3.542   8.633 -0.2003 -2.2026 -0.0812
21758SOL    HW266726   9.152   3.524   8.500 -0.1355 -0.2333 -0.4075
21759SOL     OW66727   2.510   1.038   6.510 -0.3521 -0.1140 -0.3615
21759SOL    HW166728   2.482   1.129   6.510 -0.3748 -0.0350  2.6068
21759SOL    HW266729   2.460   0.997   6.580  0.0518 -2.3217 -1.2689
21760SOL     OW66730   6.143   2.876   8.983  0.1445 -0.2748 -0.1320
21760SOL    HW166731   6.103   2.891   8.897  1.3376 -0.5709 -0.7596
21760SOL    HW266732   6.173   2.962   9.011  2.8796 -0.6021 -1.6518
21761SOL     OW66733   0.969   1.299   6.154  0.2173 -0.1892  0.1812
21761SOL    HW166734   0.954   1.333   6.066 -0.5808 -0.9269  0.0181
21761SOL    HW266735   0.909   1.349   6.210  1.7313  1.3034  0.5857
21762SOL     OW66736   7.781   4.466   5.958  0.4051  0.1119  0.6343
21762SOL    HW166737   7.804   4.438   5.869  0.1167  0.5127  0.4296
21762SOL    HW266738   7.854   4.519   5.987  0.8544 -0.6523  0.9395
21763SOL     OW66739   5.344   3.258   6.657 -0.2962 -0.1340  0.3301
21763SOL    HW166740   5.383   3.262   6.570  0.2466 -2.4973  0.4014
21763SOL    HW266741   5.380   3.179   6.697 -0.8867  0.6255  2.5483
21764SOL     OW66742   0.576   6.522   7.872 -0.1257  0.4346  0.3049
21764SOL    HW166743   0.483   6.523   7.848 -0.3912 -3.0361  0.6842
21764SOL    HW266744   0.615   6.457   7.814  1.7530  0.6437  1.2591
21765SOL     OW66745   2.936   3.097   6.955 -0.2638  0.0267 -0.5655
21765SOL    HW166746   2.953   3.009   6.989  0.6944  0.0404 -0.9603
21765SOL    HW266747   2.961   3.091   6.863  2.2148  1.3301 -0.0573
21766SOL     OW66748   4.653   3.266   3.539 -0.2917 -0.1843  0.2551
21766SOL    HW166749   4.579   3.244   3.483 -0.6225  2.0113 -0.2580
21766SOL    HW266750   4.729   3.264   3.481 -0.2561 -0.4068  0.3093
21767SOL     OW66751   9.220   5.072   5.883 -0.3734  0.6825  0.4518
21767SOL    HW166752   9.212   4.977   5.875  1.3868  0.5726 -0.5263
21767SOL    HW266753   9.182   5.093   5.968  0.8326 -1.1567  1.5110
21768SOL     OW66754   0.073   0.961   8.655  0.2089 -0.6171  0.4094
21768SOL    HW166755   0.061   0.906   8.733 -0.8935 -1.0651 -0.0613
21768SOL    HW266756   0.125   1.035   8.687 -2.5812  0.7118  2.3274
21769SOL     OW66757   7.193   2.818   4.920 -0.1721  0.2389 -0.5150
21769SOL    HW166758   7.229   2.733   4.894  0.9398  0.9174 -1.2883
21769SOL    HW266759   7.143   2.800   5.000  1.9495 -0.7701  0.6616
21770SOL     OW66760   6.828   6.168   9.138 -0.4895  0.1096 -0.1951
21770SOL    HW166761   6.827   6.165   9.233  1.0019  1.7946 -0.0719
21770SOL    HW266762   6.790   6.252   9.115  1.9428  1.1295 -0.8796
21771SOL     OW66763   3.711   2.611   2.430 -0.3120 -0.2731  0.4052
21771SOL    HW166764   3.699   2.631   2.523  0.8609  1.5129  0.2236
21771SOL    HW266765   3.667   2.682   2.384 -1.2794 -1.3830 -0.4514
21772SOL     OW66766   9.004   2.544   5.608  0.0597 -0.1477  0.2585
21772SOL    HW166767   8.959   2.460   5.595 -1.0511  0.4527  0.1094
21772SOL    HW266768   9.059   2.554   5.531 -0.7275 -0.1777 -0.3216
21773SOL     OW66769   6.274   8.527   3.633  0.0185 -0.5769  0.2755
21773SOL    HW166770   6.306   8.448   3.589  0.6006  0.3929 -1.1311
21773SOL    HW266771   6.346   8.553   3.690 -0.2538 -1.1658  0.8951
21774SOL     OW66772   6.289   7.015   5.858  0.3328  0.5550 -0.5696
21774SOL    HW166773   6.288   6.947   5.790 -0.3204  0.2957 -0.3059
21774SOL    HW266774   6.198   7.043   5.866  0.3121  0.2568  0.5118
21775SOL     OW66775   8.340   8.981   2.042 -0.4352  0.3106  0.3026
21775SOL    HW166776   8.306   9.042   1.976  0.0933 -0.2786 -0.5363
21775SOL    HW266777   8.311   8.895   2.013  1.6983 -0.2275 -0.4544
21776SOL     OW66778   3.796   7.713   7.286  0.5057  0.4416 -0.3227
21776SOL    HW166779   3.836   7.627   7.301  0.4856  0.3844 -0.6121
21776SOL    HW266780   3.779   7.716   7.193 -3.4979 -0.9824  0.1945
21777SOL     OW66781   2.154   0.694   1.529  0.0226  0.0718  0.0357
21777SOL    HW166782   2.149   0.730   1.618 -0.7153 -2.3195  1.0376
21777SOL    HW266783   2.191   0.606   1.540 -1.5931 -0.9238 -1.7973
21778SOL     OW66784   6.316   7.516   4.872 -0.2904  0.3515 -0.2156
21778SOL    HW166785   6.302   7.525   4.778  0.0617  1.2220 -0.1923
21778SOL    HW266786   6.380   7.584   4.894  0.3351 -0.4458  0.4986
21779SOL     OW66787   6.659   5.847   7.643 -0.0887  0.3232  0.0002
21779SOL    HW166788   6.572   5.815   7.619 -0.8959 -0.5963  3.5862
21779SOL    HW266789   6.645   5.938   7.669 -0.0689  0.0916  0.8519
21780SOL     OW66790   0.388   1.632   8.703  0.1344  0.6793 -0.0788
21780SOL    HW166791   0.474   1.628   8.661 -0.3485  0.2743 -1.0740
21780SOL    HW266792   0.389   1.715   8.751  0.4791  1.5159 -1.4641
21781SOL     OW66793   2.034   3.880   6.339 -0.0898  0.0750  0.7927
21781SOL    HW166794   1.996   3.964   6.314 -1.0233 -0.5026  0.2333
21781SOL    HW266795   2.082   3.851   6.261  0.8314  0.4013  1.2162
21782SOL     OW66796   4.999   9.206   7.165  0.4202 -0.5802  0.4741
21782SOL    HW166797   5.039   9.291   7.180  0.7632 -0.6985  0.2300
21782SOL    HW266798   5.069   9.143   7.180  0.3474 -0.7840 -0.0206
21783SOL     OW66799   7.107   1.496   6.138 -0.4686 -0.3857  0.0701
21783SOL    HW166800   7.011   1.499   6.138 -0.5397 -1.7536  1.0602
21783SOL    HW266801   7.129   1.453   6.055 -0.7194 -0.4053  0.0121
21784SOL     OW66802   5.095   0.380   7.605  0.2388  0.6248  0.5076
21784SOL    HW166803   5.033   0.320   7.647  1.4314  0.3859  2.0071
21784SOL    HW266804   5.056   0.399   7.520 -2.4111  1.2965  1.7727
21785SOL     OW66805   0.438   6.262   4.193  0.3030 -0.3608  0.2614
21785SOL    HW166806   0.496   6.315   4.137  0.7393 -0.3869  0.6768
21785SOL    HW266807   0.498   6.216   4.252 -0.0702 -1.3690 -0.1291
21786SOL     OW66808   7.290   4.494   5.117  0.0157  0.1692  0.2828
21786SOL    HW166809   7.287   4.398   5.114 -1.1075  0.2097 -1.3583
21786SOL    HW266810   7.264   4.521   5.029  0.1137  2.0019  0.7811
21787SOL     OW66811   5.457   5.797   8.617 -0.4974 -0.5955  0.4177
21787SOL    HW166812   5.449   5.855   8.541  0.0121  0.2428  0.9769
21787SOL    HW266813   5.550   5.801   8.639 -0.9828  1.1874  2.5777
21788SOL     OW66814   3.413   7.594   7.325  0.0765  0.4870  0.0456
21788SOL    HW166815   3.471   7.600   7.249  1.5349 -0.1102  1.0889
21788SOL    HW266816   3.376   7.506   7.321 -0.7095  0.8286 -0.5544
21789SOL     OW66817   8.241   6.614   6.905 -0.2130  0.2098 -0.6726
21789SOL    HW166818   8.264   6.643   6.817  1.2286  1.4793  0.0624
21789SOL    HW266819   8.243   6.694   6.957 -1.2943 -0.4776  0.4670
21790SOL     OW66820   5.027   4.885   1.052 -0.1622  0.1409  0.2622
21790SOL    HW166821   5.020   4.842   0.967 -0.8256 -1.6267  1.1442
21790SOL    HW266822   4.989   4.972   1.039  0.5967  0.2408 -1.4481
21791SOL     OW66823   4.807   5.028   3.899  0.1717 -0.5496 -0.5589
21791SOL    HW166824   4.742   4.972   3.856 -1.0130  0.0049  0.4728
21791SOL    HW266825   4.890   4.982   3.884 -0.3598 -1.0507 -2.2751
21792SOL     OW66826   7.646   8.575   6.453 -0.1652 -0.4143 -0.2679
21792SOL    HW166827   7.638   8.480   6.463  0.5096 -0.4895 -0.3744
21792SOL    HW266828   7.580   8.611   6.512 -1.2389 -0.9593 -1.1075
21793SOL     OW66829   9.166   3.011   4.486 -0.2524  0.4355  0.2441
21793SOL    HW166830   9.080   3.009   4.445 -0.0272  2.3105 -0.4106
21793SOL    HW266831   9.228   3.013   4.413  0.2876  0.4477  0.6959
21794SOL     OW66832   9.018   3.400   8.876  0.2563 -0.5411  0.2418
21794SOL    HW166833   9.002   3.410   8.782 -1.1577 -0.1571  0.5062
21794SOL    HW266834   9.069   3.477   8.900 -0.7147  0.1695  0.0690
21795SOL     OW66835   8.452   6.350   3.010  0.2467 -0.0671 -0.3336
21795SOL    HW166836   8.371   6.363   2.961  0.1911  0.7641 -0.0313
21795SOL    HW266837   8.425   6.307   3.091 -0.0561  1.2320  0.2757
21796SOL     OW66838   5.615   4.920   0.957  0.7360  0.7830 -0.2738
21796SOL    HW166839   5.655   5.006   0.969  0.0331  0.9870  0.6976
21796SOL    HW266840   5.524   4.938   0.934  0.2857  0.3041  1.0589
21797SOL     OW66841   7.563   2.673   6.464 -0.3355 -0.0933  0.5056
21797SOL    HW166842   7.588   2.671   6.557 -0.1205  2.9420  0.6202
21797SOL    HW266843   7.467   2.668   6.465 -0.2661 -2.0922  0.7017
21798SOL     OW66844   4.431   5.747   3.948  0.0846  0.1993  0.0887
21798SOL    HW166845   4.408   5.724   4.038  1.8392  2.0402  1.0890
21798SOL    HW266846   4.347   5.749   3.901 -1.1443  1.3666  2.2063
21799SOL     OW66847   1.627   7.569   8.939  0.2733 -0.1555  0.3393
21799SOL    HW166848   1.604   7.508   9.009 -1.0961  1.0683  1.0114
21799SOL    HW266849   1.552   7.569   8.881  0.2820  0.7975  0.2998
21800SOL     OW66850   7.386   6.684   3.476 -0.4619  0.0132  0.1515
21800SOL    HW166851   7.359   6.616   3.539  0.2568 -0.5163 -0.0956
21800SOL    HW266852   7.399   6.762   3.530 -1.0374 -0.1061  0.4798
21801SOL     OW66853   4.741   4.375   6.290 -0.1457 -0.0648  0.0347
21801SOL    HW166854   4.803   4.336   6.352 -1.9450 -1.0654  1.3246
21801SOL    HW266855   4.663   4.319   6.296 -0.8642  0.5797 -2.2046
21802SOL     OW66856   1.353   0.628   1.227  0.3015 -0.0424  0.4317
21802SOL    HW166857   1.269   0.650   1.186  0.0387 -1.5278  0.1342
21802SOL    HW266858   1.417   0.683   1.181 -0.2829 -0.1242 -0.5092
21803SOL     OW66859   4.089   3.701   1.519  0.1984  0.2342 -0.4364
21803SOL    HW166860   4.053   3.726   1.434 -0.7863 -1.4141 -0.5513
21803SOL    HW266861   4.035   3.626   1.547  0.7113  0.5237  1.4809
21804SOL     OW66862   2.638   2.139   0.233  0.0221 -0.7298  0.1692
21804SOL    HW166863   2.657   2.190   0.312  0.1230  0.2263 -0.4566
21804SOL    HW266864   2.613   2.204   0.168 -0.9031 -1.5825 -0.3521
21805SOL     OW66865   2.444   4.349   8.946 -0.5622 -0.3209 -0.1838
21805SOL    HW166866   2.521   4.405   8.941  0.2362 -1.3170  0.4673
21805SOL    HW266867   2.429   4.321   8.856  0.7441 -1.2637 -0.1407
21806SOL     OW66868   6.560   2.019   8.453  0.1436  0.5743 -0.2568
21806SOL    HW166869   6.610   2.025   8.534  1.3754  0.1168 -0.9648
21806SOL    HW266870   6.484   1.965   8.477  0.5253  0.3810  0.5710
21807SOL     OW66871   1.188   8.516   2.540  0.0515  0.1733 -0.3545
21807SOL    HW166872   1.104   8.529   2.496  0.9585 -0.0990 -2.2552
21807SOL    HW266873   1.165   8.475   2.623 -1.6398 -0.8466 -1.2659
21808SOL     OW66874   0.876   6.763   7.483 -0.4102 -0.0187  0.1825
21808SOL    HW166875   0.945   6.791   7.422 -3.0452  1.2241 -2.4941
21808SOL    HW266876   0.879   6.826   7.554 -0.3956  1.6414 -1.2248
21809SOL     OW66877   8.982   6.457   0.476 -0.2837 -0.2187  0.2167
21809SOL    HW166878   8.958   6.518   0.407 -0.2655 -0.6844 -0.2071
21809SOL    HW266879   8.982   6.509   0.556 -0.3531  0.3116 -0.1292
21810SOL     OW66880   5.405   1.072   2.165  0.2216  0.5919 -0.7012
21810SOL    HW166881   5.423   0.980   2.183 -0.2840  0.4568 -0.8757
21810SOL    HW266882   5.398   1.077   2.070  3.6502  1.4412 -1.0315
21811SOL     OW66883   2.288   0.980   7.339  0.0985 -0.2665  0.1713
21811SOL    HW166884   2.353   1.017   7.279 -0.6656  1.1464  0.1558
21811SOL    HW266885   2.331   0.904   7.377  1.4078  0.0798 -0.5465
21812SOL     OW66886   6.269   7.507   8.373 -0.4422  0.6551  0.9113
21812SOL    HW166887   6.276   7.474   8.463 -2.6803 -0.2413  0.8276
21812SOL    HW266888   6.242   7.431   8.322  1.5586  0.9583 -0.7274
21813SOL     OW66889   4.681   8.112   7.657 -0.7108  0.4289  0.4719
21813SOL    HW166890   4.675   8.154   7.743  1.4031  2.5453 -0.3115
21813SOL    HW266891   4.764   8.143   7.620 -0.8908 -1.4793 -1.8070
21814SOL     OW66892   8.263   0.458   8.167 -0.1043 -0.7383 -0.7286
21814SOL    HW166893   8.222   0.434   8.084 -1.0718 -0.7346 -0.2691
21814SOL    HW266894   8.199   0.515   8.210  0.8925  0.2535 -0.5021
21815SOL     OW66895   9.161   8.028   0.731 -0.1584  0.2141  0.3882
21815SOL    HW166896   9.210   7.972   0.791 -0.2680  0.9879  1.2330
21815SOL    HW266897   9.075   7.987   0.725  0.4788 -1.0008 -0.8887
21816SOL     OW66898   5.773   5.514   1.330  0.4682  0.8174 -0.1945
21816SOL    HW166899   5.808   5.560   1.254  1.8710 -0.9932 -0.7368
21816SOL    HW266900   5.851   5.485   1.378 -0.2876 -1.3847 -0.1897
21817SOL     OW66901   2.166   1.345   4.933 -0.7801 -0.1318  0.2170
21817SOL    HW166902   2.080   1.366   4.968 -0.1148 -0.3259  2.0764
21817SOL    HW266903   2.182   1.255   4.961 -1.4204 -1.4761 -3.1914
21818SOL     OW66904   1.879   6.968   2.613  0.4521  0.7549 -0.4371
21818SOL    HW166905   1.856   6.986   2.704 -1.2068  2.5416 -1.1374
21818SOL    HW266906   1.969   6.936   2.617  0.0201 -0.4119  1.9162
21819SOL     OW66907   8.488   5.941   3.060 -0.4429  0.2333 -0.4513
21819SOL    HW166908   8.456   5.996   3.131  1.2906  0.7343 -0.0026
21819SOL    HW266909   8.545   5.999   3.008  0.1735 -0.7212 -0.8805
21820SOL     OW66910   9.185   5.928   2.794  0.1845 -0.0505 -0.4776
21820SOL    HW166911   9.098   5.952   2.762 -0.9852 -1.4052  1.4714
21820SOL    HW266912   9.180   5.834   2.811  3.1784 -0.9886 -3.5358
21821SOL     OW66913   8.269   8.252   2.577  0.3249  0.5673  0.1160
21821SOL    HW166914   8.242   8.167   2.541 -0.4668  0.7348  0.2959
21821SOL    HW266915   8.231   8.316   2.517  0.8471  0.8076  0.0300
21822SOL     OW66916   5.508   0.924   7.386 -0.3238 -0.7923 -0.0473
21822SOL    HW166917   5.420   0.910   7.352  0.5292  0.1697 -2.9847
21822SOL    HW266918   5.511   1.017   7.408 -0.1748 -0.9276  0.5195
21823SOL     OW66919   1.493   0.312   4.899 -0.0235 -0.4183 -0.0882
21823SOL    HW166920   1.572   0.340   4.853 -1.0362 -0.1077 -1.7168
21823SOL    HW266921   1.526   0.263   4.975  1.7245 -0.7810 -1.0214
21824SOL     OW66922   4.732   8.749   2.431 -0.0801  0.2365 -0.2114
21824SOL    HW166923   4.683   8.716   2.507 -2.7253  1.5407 -1.2247
21824SOL    HW266924   4.810   8.790   2.469 -0.3983 -0.7617  1.6314
21825SOL     OW66925   0.598   5.460   6.240 -0.6295  0.1687 -0.1713
21825SOL    HW166926   0.520   5.435   6.290 -1.8600  2.2610 -0.9185
21825SOL    HW266927   0.574   5.443   6.149 -0.2231  0.8352 -0.4078
21826SOL     OW66928   4.359   5.040   2.392  0.3860  0.5495 -0.3500
21826SOL    HW166929   4.378   5.040   2.299 -0.7510 -1.1348 -0.6285
21826SOL    HW266930   4.417   4.973   2.429  0.4315  0.8094  0.0574
21827SOL     OW66931   3.057   8.280   1.861 -0.1370 -0.2551  0.3266
21827SOL    HW166932   3.095   8.334   1.930 -1.1401  1.1092 -0.1488
21827SOL    HW266933   3.069   8.332   1.781  0.3002 -1.4608 -0.4147
21828SOL     OW66934   6.507   8.420   2.841 -0.0385  0.1730 -0.0798
21828SOL    HW166935   6.423   8.466   2.852 -0.2158 -0.1940  0.1300
21828SOL    HW266936   6.488   8.330   2.867  0.3076 -0.0183 -0.4903
21829SOL     OW66937   1.616   8.595   4.047  0.5802 -0.3083 -0.0011
21829SOL    HW166938   1.698   8.553   4.071  0.3885 -0.4366  0.4441
21829SOL    HW266939   1.593   8.650   4.123  1.1954  1.1839 -0.8485
21830SOL     OW66940   2.725   1.429   7.314 -0.0653 -0.4244 -0.2365
21830SOL    HW166941   2.807   1.392   7.281  0.0227  0.3051 -0.8950
21830SOL    HW266942   2.741   1.524   7.314 -0.6503 -0.3254  0.3492
21831SOL     OW66943   2.896   0.399   6.831  0.3284  0.5492  0.1043
21831SOL    HW166944   2.880   0.310   6.799  0.2621 -0.1374  1.9318
21831SOL    HW266945   2.810   0.433   6.852  0.4768  0.4193  0.9530
21832SOL     OW66946   0.839   3.799   7.275 -0.1558  0.1552  0.9152
21832SOL    HW166947   0.763   3.743   7.287 -0.5223  0.4501  0.0314
21832SOL    HW266948   0.823   3.844   7.192  0.0725  1.6650  1.6686
21833SOL     OW66949   5.002   0.158   0.168 -0.6860 -0.1585 -0.0893
21833SOL    HW166950   4.975   0.218   0.238 -0.7453 -0.3927  0.0880
21833SOL    HW266951   4.944   0.179   0.095 -0.9770 -0.2792  0.1054
21834SOL     OW66952   7.567   2.616   1.294 -0.1084  0.4511  0.0955
21834SOL    HW166953   7.504   2.614   1.366  1.2045  0.6243  1.3096
21834SOL    HW266954   7.634   2.553   1.319  0.0357  0.0063 -1.3338
21835SOL     OW66955   7.065   0.790   5.510  0.2201  0.1530  0.4363
21835SOL    HW166956   7.087   0.862   5.568  0.4347 -1.3152  2.3051
21835SOL    HW266957   6.969   0.792   5.505  0.1806  0.1752  1.0576
21836SOL     OW66958   2.280   3.593   4.020 -0.4472 -0.1771 -0.1253
21836SOL    HW166959   2.309   3.598   3.929  1.1077  0.6575  0.3801
21836SOL    HW266960   2.290   3.682   4.053  0.8800 -0.8418  1.3851
21837SOL     OW66961   7.518   0.024   9.025  0.0166  0.0150  0.1782
21837SOL    HW166962   7.565   0.018   8.942 -1.2007 -0.0350 -0.5326
21837SOL    HW266963   7.464  -0.055   9.027 -1.2185  0.8333  0.2121
21838SOL     OW66964   2.721   8.567   5.605 -0.0814 -0.7049 -0.5090
21838SOL    HW166965   2.807   8.540   5.637 -0.0360  1.1220  1.0689
21838SOL    HW266966   2.740   8.638   5.543 -0.3792 -1.7844 -1.8936
21839SOL     OW66967   1.357   8.299   4.040 -0.1105 -0.3142 -0.0209
21839SOL    HW166968   1.413   8.334   3.971  0.2641 -0.2016  0.3444
21839SOL    HW266969   1.321   8.376   4.084 -0.7424 -0.3833 -0.4028
21840SOL     OW66970   6.599   8.853   3.953  0.7650  0.1128 -0.2604
21840SOL    HW166971   6.688   8.882   3.933  0.4296  2.4867  1.3213
21840SOL    HW266972   6.591   8.768   3.909  2.9819  0.9135 -2.4380
21841SOL     OW66973   4.270   0.897   6.580 -0.3092 -0.3989  0.1492
21841SOL    HW166974   4.285   0.989   6.604 -1.4615  0.3607 -1.8259
21841SOL    HW266975   4.213   0.864   6.649  0.8490  0.0694  1.3827
21842SOL     OW66976   3.514   3.613   8.948  0.0703 -0.5342 -0.1648
21842SOL    HW166977   3.578   3.641   9.012  3.4803 -2.2962 -2.5082
21842SOL    HW266978   3.530   3.519   8.936 -1.5447 -0.6384 -2.3284
21843SOL     OW66979   8.293   5.993   4.125  0.2335  0.0312  0.7904
21843SOL    HW166980   8.264   6.075   4.164 -1.9660  0.1804 -0.9379
21843SOL    HW266981   8.273   5.926   4.191 -0.0913  0.6235  1.2977
21844SOL     OW66982   8.031   6.617   9.054  0.6506 -0.1500 -0.0129
21844SOL    HW166983   8.022   6.655   8.966  0.0406  1.0014  0.5349
21844SOL    HW266984   8.027   6.522   9.039 -3.2455  0.0048 -0.8656
21845SOL     OW66985   6.104   4.288   3.295  0.1955  0.3346  0.4851
21845SOL    HW166986   6.047   4.213   3.307  1.4369 -0.6971  0.1152
21845SOL    HW266987   6.193   4.252   3.299  0.8276  1.8641  0.8896
21846SOL     OW66988   4.335   1.725   5.728 -0.3594  0.3208 -0.6560
21846SOL    HW166989   4.431   1.716   5.732 -0.4297 -1.4143 -1.8044
21846SOL    HW266990   4.320   1.819   5.738  1.3390  0.4701  1.2652
21847SOL     OW66991   5.624   6.232   3.519 -0.4557  0.3630  0.8368
21847SOL    HW166992   5.665   6.244   3.605  1.8012 -1.3463  0.1118
21847SOL    HW266993   5.530   6.241   3.535 -0.0292  1.3221  3.2268
21848SOL     OW66994   2.789   1.677   1.933 -0.3092 -0.2480 -0.9860
21848SOL    HW166995   2.762   1.612   1.869 -1.6518 -0.2624 -0.4392
21848SOL    HW266996   2.865   1.720   1.894 -1.4540  0.1687 -2.8883
21849SOL     OW66997   1.330   6.738   5.774  0.0270 -0.0236 -0.0927
21849SOL    HW166998   1.265   6.681   5.815  0.8196  0.0031  1.2743
21849SOL    HW266999   1.331   6.711   5.682 -0.8364 -1.0421  0.1767
21850SOL     OW67000   1.979   6.365   7.865 -0.5586  0.3618 -0.0331
21850SOL    HW167001   1.969   6.396   7.955 -0.1028 -0.4267  0.2968
21850SOL    HW267002   1.960   6.272   7.869  0.1476  0.1781 -0.6167
21851SOL     OW67003   3.086   5.487   9.115  0.6315 -0.3661 -0.4157
21851SOL    HW167004   3.030   5.536   9.054 -1.8622  1.2767  2.8417
21851SOL    HW267005   3.035   5.410   9.138  0.4235  0.2047  1.2066
21852SOL     OW67006   6.635   3.315   0.927  0.0194  0.1982  0.5029
21852SOL    HW167007   6.582   3.380   0.881 -0.7996  1.5372  3.1210
21852SOL    HW267008   6.606   3.231   0.891 -1.8097  1.0567 -0.1709
21853SOL     OW67009   2.064   7.216   7.481  0.1011 -0.1558 -0.0691
21853SOL    HW167010   2.037   7.146   7.422  0.1754  0.0528 -0.3568
21853SOL    HW267011   2.005   7.209   7.556 -1.2621  0.7478 -0.9959
21854SOL     OW67012   6.866   2.975   4.373 -0.0071  0.1640 -0.2250
21854SOL    HW167013   6.881   2.886   4.341  0.6445  0.0722  0.3145
21854SOL    HW267014   6.883   2.970   4.467 -2.8182  0.2213  0.3739
21855SOL     OW67015   4.614   7.754   4.345  0.1676  0.0345 -0.5686
21855SOL    HW167016   4.617   7.786   4.435 -1.7945  0.2138 -0.5300
21855SOL    HW267017   4.688   7.694   4.338  0.3531  0.0321  1.1575
21856SOL     OW67018   0.082   5.185   5.261 -0.3032 -0.2266  0.5037
21856SOL    HW167019   0.009   5.218   5.209  1.9114  2.9248 -0.8979
21856SOL    HW267020   0.065   5.216   5.350  0.3181  2.5814 -0.2554
21857SOL     OW67021   1.986   5.816   7.099  0.0900  0.2259  0.1560
21857SOL    HW167022   1.910   5.782   7.146 -0.4603 -1.1793 -1.6528
21857SOL    HW267023   1.969   5.910   7.089 -0.3459  0.3285  1.6298
21858SOL     OW67024   1.504   4.165   4.338 -0.5229 -0.0926  0.2386
21858SOL    HW167025   1.475   4.225   4.269 -0.3818  0.8625  0.9859
21858SOL    HW267026   1.423   4.123   4.368 -0.5860 -0.5047 -0.4917
21859SOL     OW67027   0.963   7.545   7.211 -0.2468 -0.1569 -0.0097
21859SOL    HW167028   1.037   7.600   7.187 -0.4453 -0.1211 -0.5514
21859SOL    HW267029   0.886   7.597   7.189 -0.4588  0.2540  1.5533
21860SOL     OW67030   2.516   4.510   1.430 -0.4329 -0.3192 -0.2802
21860SOL    HW167031   2.425   4.522   1.459 -0.8274  0.0966 -1.5881
21860SOL    HW267032   2.516   4.424   1.389  0.4870 -1.5750  2.1705
21861SOL     OW67033   7.873   5.993   1.600  0.4348  0.0272 -0.1637
21861SOL    HW167034   7.944   5.930   1.615  0.1050 -0.6846 -1.4765
21861SOL    HW267035   7.858   5.991   1.506 -0.8086  0.7513 -0.0085
21862SOL     OW67036   3.461   8.679   1.138  0.1062  0.1031 -0.1143
21862SOL    HW167037   3.550   8.670   1.172 -0.8838 -1.5656  2.3750
21862SOL    HW267038   3.438   8.770   1.156  1.8842  1.1464 -2.6072
21863SOL     OW67039   7.394   1.084   2.028  0.2671 -0.0935 -0.5629
21863SOL    HW167040   7.349   1.151   2.080  0.2070  0.3686 -1.2011
21863SOL    HW267041   7.329   1.015   2.015  0.5930 -0.7069  0.8517
21864SOL     OW67042   0.543   0.389   0.631  0.7475  0.2282  1.0442
21864SOL    HW167043   0.552   0.477   0.667 -1.0840  0.3799  1.2342
21864SOL    HW267044   0.537   0.332   0.707 -0.3532  0.2258  0.9703
21865SOL     OW67045   7.387   4.426   8.124  0.0791 -0.2717  0.2186
21865SOL    HW167046   7.461   4.400   8.069  0.4798  0.7798  0.2218
21865SOL    HW267047   7.401   4.380   8.207  1.9779  1.5256  1.0111
21866SOL     OW67048   4.141   2.444   2.396  0.4991  0.5865  0.1294
21866SOL    HW167049   4.187   2.528   2.382  0.7876  0.1542 -1.9137
21866SOL    HW267050   4.212   2.380   2.405  0.2775  0.5120  1.4223
21867SOL     OW67051   4.260   4.354   1.504  0.2060 -0.1036 -0.1586
21867SOL    HW167052   4.180   4.303   1.490 -0.5678  0.8780  0.4800
21867SOL    HW267053   4.233   4.424   1.565  1.6286  0.0557  0.3317
21868SOL     OW67054   4.833   0.665   8.797  0.4070 -0.1219  0.8893
21868SOL    HW167055   4.818   0.626   8.883  0.7963  0.6699  1.3292
21868SOL    HW267056   4.747   0.666   8.756  0.0638  0.2793  1.6044
21869SOL     OW67057   1.515   6.839   1.918  0.5327 -1.1877 -0.2743
21869SOL    HW167058   1.446   6.816   1.857  0.4759  0.0859 -0.7228
21869SOL    HW267059   1.561   6.912   1.877  1.0603 -0.8857  0.7951
21870SOL     OW67060   8.407   0.603   3.700 -0.0777 -0.4058  0.1160
21870SOL    HW167061   8.460   0.549   3.642  1.1921  0.6083  0.3050
21870SOL    HW267062   8.414   0.561   3.786  1.3540  0.3350  0.3811
21871SOL     OW67063   0.093   1.634   3.069  0.2634 -0.2299  0.1754
21871SOL    HW167064   0.070   1.713   3.118 -1.1885 -0.8898  0.6195
21871SOL    HW267065   0.184   1.647   3.043  0.2903  1.2342  0.9109
21872SOL     OW67066   2.509   1.533   6.994  0.4365 -0.1270 -0.4854
21872SOL    HW167067   2.536   1.481   6.919 -0.7973 -0.7807 -0.5008
21872SOL    HW267068   2.571   1.508   7.064  1.4830  0.3644 -1.2060
21873SOL     OW67069   3.483   6.721   2.917 -0.3604 -0.6621 -0.5882
21873SOL    HW167070   3.545   6.772   2.969 -1.0107  1.0652 -1.4473
21873SOL    HW267071   3.417   6.692   2.980  1.6091 -3.2395  0.5171
21874SOL     OW67072   0.400   2.058   1.854  0.2172 -0.6343 -0.3340
21874SOL    HW167073   0.488   2.027   1.833  0.1990 -1.0026  0.1101
21874SOL    HW267074   0.411   2.150   1.875  0.9467 -1.2631  2.3306
21875SOL     OW67075   8.783   3.014   3.393 -0.2681  0.0358  0.0716
21875SOL    HW167076   8.725   3.080   3.430 -1.3583 -0.4752 -0.6859
21875SOL    HW267077   8.847   2.997   3.462 -0.5971  1.1096  0.6612
21876SOL     OW67078   4.632   2.451   6.576 -0.2652 -0.0102 -0.2130
21876SOL    HW167079   4.592   2.375   6.533 -1.1616  0.5156 -0.3360
21876SOL    HW267080   4.692   2.486   6.510 -0.5019 -0.1079 -0.4871
21877SOL     OW67081   2.722   4.837   0.697  0.0013  0.4900 -0.2623
21877SOL    HW167082   2.770   4.896   0.755  0.4637  1.4237 -1.5386
21877SOL    HW267083   2.682   4.772   0.755 -0.3659  1.9467  1.1818
21878SOL     OW67084   5.490   4.315   8.685  0.0835 -0.7285 -0.6457
21878SOL    HW167085   5.566   4.340   8.633  1.0892 -0.7490  0.7376
21878SOL    HW267086   5.487   4.220   8.679  0.1888 -0.7289 -0.6874
21879SOL     OW67087   2.251   4.373   4.467  0.1424  0.5004 -0.0090
21879SOL    HW167088   2.230   4.287   4.430  0.8841  0.2176  0.1894
21879SOL    HW267089   2.166   4.412   4.487 -0.2140 -0.9612  1.6304
21880SOL     OW67090   8.843   5.741   7.429 -0.5752 -0.1009 -0.1509
21880SOL    HW167091   8.807   5.677   7.490  0.3702 -3.1520 -2.5467
21880SOL    HW267092   8.778   5.748   7.359 -0.9674  2.1731  0.3554
21881SOL     OW67093   2.759   1.603   3.498 -0.2878 -0.1800 -0.1718
21881SOL    HW167094   2.739   1.527   3.443  0.3774 -0.5233  0.0477
21881SOL    HW267095   2.763   1.677   3.436 -0.7015 -0.3576 -0.4167
21882SOL     OW67096   4.758   8.604   5.632 -0.4622  0.4244 -0.7659
21882SOL    HW167097   4.726   8.671   5.572  0.2003  2.0364  0.5921
21882SOL    HW267098   4.853   8.617   5.634 -0.3939 -0.1327 -0.0051
21883SOL     OW67099   3.807   0.097   0.981 -0.5637 -0.9125  0.2386
21883SOL    HW167100   3.872   0.126   0.916  0.9189 -1.4367  1.4288
21883SOL    HW267101   3.723   0.124   0.944  0.3585  0.3004 -1.1006
21884SOL     OW67102   3.828   0.045   4.349  0.0285 -0.1677  0.0762
21884SOL    HW167103   3.836   0.127   4.397 -1.6275 -0.0842  0.2532
21884SOL    HW267104   3.907   0.041   4.296 -1.0136  2.9232 -1.9945
21885SOL     OW67105   3.625   7.626   3.363 -0.2650  0.6526 -0.0220
21885SOL    HW167106   3.553   7.600   3.305 -0.0715  0.3299 -0.1244
21885SOL    HW267107   3.701   7.632   3.305  0.0334 -0.1503  0.2738
21886SOL     OW67108   9.147   8.614   1.666  0.0799  0.4538  0.1301
21886SOL    HW167109   9.145   8.672   1.590 -2.4419  1.5826  0.9572
21886SOL    HW267110   9.128   8.671   1.741 -1.1722 -1.1890  1.1496
21887SOL     OW67111   4.345   6.753   0.758 -0.4800  0.4274  0.2805
21887SOL    HW167112   4.348   6.807   0.679 -1.3665 -0.1309 -0.1621
21887SOL    HW267113   4.306   6.670   0.729  0.6560 -0.3903  0.9795
21888SOL     OW67114   1.386   0.078   5.790 -0.2828 -0.3902 -0.3981
21888SOL    HW167115   1.329   0.082   5.714 -1.4355 -0.1572  0.4427
21888SOL    HW267116   1.473   0.058   5.755 -0.8949 -0.8436 -1.7096
21889SOL     OW67117   4.250   1.603   2.958  0.0185 -0.1198 -0.7805
21889SOL    HW167118   4.205   1.534   3.007 -1.2367  1.3381  0.2115
21889SOL    HW267119   4.254   1.677   3.019 -1.0259  1.5448 -2.6219
21890SOL     OW67120   4.985   1.875   8.420  0.7218 -0.5946  0.4407
21890SOL    HW167121   5.012   1.786   8.398  1.1258 -0.4309  0.2497
21890SOL    HW267122   5.012   1.886   8.511  0.2360 -0.8286  0.6163
21891SOL     OW67123   7.336   3.475   1.303 -0.3219 -0.6157  0.4654
21891SOL    HW167124   7.335   3.526   1.384 -0.5664  0.0014  0.0767
21891SOL    HW267125   7.244   3.459   1.284 -0.3771  0.9740 -0.7635
21892SOL     OW67126   6.242   1.922   6.395  1.0711 -0.0606 -0.6667
21892SOL    HW167127   6.170   1.909   6.457  0.5664  2.0744 -0.7228
21892SOL    HW267128   6.212   1.879   6.315 -0.3758  1.1783 -0.8274
21893SOL     OW67129   0.824   1.716   5.774  0.2833  0.0808  0.0900
21893SOL    HW167130   0.754   1.743   5.834 -0.0770  0.7342 -0.6164
21893SOL    HW267131   0.896   1.691   5.832 -0.8724 -1.6298  0.8665
21894SOL     OW67132   1.593   4.600   5.848 -0.1508  0.2170  0.2334
21894SOL    HW167133   1.567   4.657   5.921  0.5840 -0.1245  0.7793
21894SOL    HW267134   1.574   4.651   5.769 -0.3352  0.8633  0.6859
21895SOL     OW67135   2.520   8.723   4.805  0.0542 -0.1287  0.2980
21895SOL    HW167136   2.589   8.664   4.777  1.2054  0.7662  1.1548
21895SOL    HW267137   2.486   8.761   4.724  0.6764 -0.4614 -0.1262
21896SOL     OW67138   4.965   0.295   5.321 -0.1083  0.3463 -0.5488
21896SOL    HW167139   5.010   0.256   5.396  1.5181 -1.4129 -2.2845
21896SOL    HW267140   5.019   0.371   5.298 -1.0914  1.3980  0.5274
21897SOL     OW67141   0.436   2.758   5.491 -0.3930 -0.1817  0.5283
21897SOL    HW167142   0.434   2.712   5.407 -2.6866 -1.9523  1.4579
21897SOL    HW267143   0.344   2.761   5.519  0.0489  2.2464  2.0118
21898SOL     OW67144   5.040   8.379   3.483 -0.0744 -0.7691  0.4788
21898SOL    HW167145   4.958   8.366   3.532 -0.2743  0.0018  0.3693
21898SOL    HW267146   5.022   8.455   3.427  0.2061 -1.5315 -0.6703
21899SOL     OW67147   0.587   7.301   6.989 -0.3310  0.1143  0.1252
21899SOL    HW167148   0.620   7.377   7.037 -0.8565  0.6324 -0.3130
21899SOL    HW267149   0.500   7.285   7.027 -1.2358  1.2318 -1.3714
21900SOL     OW67150   5.339   2.199   5.879 -0.2924  0.3367 -0.1243
21900SOL    HW167151   5.261   2.159   5.917  0.4930  0.8972  2.3091
21900SOL    HW267152   5.408   2.180   5.942  0.4226  4.2231  0.5359
21901SOL     OW67153   7.361   3.606   2.859 -0.5360  0.2745  0.3661
21901SOL    HW167154   7.308   3.664   2.913 -0.3625  0.5154  0.2788
21901SOL    HW267155   7.352   3.641   2.770 -2.7621 -1.4879 -0.2093
21902SOL     OW67156   9.189   4.517   4.771 -0.3073  0.2963  0.1516
21902SOL    HW167157   9.242   4.592   4.744 -0.3583  0.1224 -0.4333
21902SOL    HW267158   9.169   4.534   4.863  0.9807  0.2411  0.4568
21903SOL     OW67159   8.154   3.029   7.858  0.2085 -0.0804 -0.6272
21903SOL    HW167160   8.212   3.074   7.920 -0.0284 -0.4489 -0.1229
21903SOL    HW267161   8.209   3.011   7.782  0.4216  0.6650 -0.6598
21904SOL     OW67162   3.513   0.564   0.190 -0.3730 -0.6295  0.3030
21904SOL    HW167163   3.505   0.481   0.236 -2.0476 -1.8056 -1.9019
21904SOL    HW267164   3.427   0.604   0.197  0.3067  0.7629  1.0075
21905SOL     OW67165   5.331   2.064   8.788 -0.2588 -0.7491  0.2663
21905SOL    HW167166   5.291   2.148   8.812 -0.7187 -0.7626 -0.4299
21905SOL    HW267167   5.270   1.998   8.821 -0.4039 -0.7898 -0.0900
21906SOL     OW67168   2.121   7.315   4.076  0.0359  0.1288  0.4404
21906SOL    HW167169   2.092   7.370   4.003  1.5756  2.0152  1.1590
21906SOL    HW267170   2.217   7.322   4.074  0.1945 -1.2595  1.5589
21907SOL     OW67171   1.678   2.839   4.825 -0.2106  0.1431 -0.3166
21907SOL    HW167172   1.660   2.746   4.811 -2.1136  0.1305  1.6550
21907SOL    HW267173   1.628   2.883   4.757  1.7852 -0.2339 -2.1392
21908SOL     OW67174   8.783   7.598   0.440 -0.1972 -0.2443  0.7507
21908SOL    HW167175   8.835   7.675   0.461  0.7493 -0.8283  0.6000
21908SOL    HW267176   8.772   7.602   0.345 -0.6310 -0.0010  0.8086
21909SOL     OW67177   6.503   5.789   2.513 -0.5676  0.5234  0.3545
21909SOL    HW167178   6.445   5.741   2.454 -0.2497  0.7321 -0.1354
21909SOL    HW267179   6.587   5.743   2.506  0.4174  2.4876 -1.9269
21910SOL     OW67180   4.154   0.280   7.056  0.7561  0.3724 -0.2700
21910SOL    HW167181   4.151   0.329   6.973  1.2049  0.3921 -0.2741
21910SOL    HW267182   4.068   0.296   7.095  0.6071  0.5154 -0.6457
21911SOL     OW67183   5.139   3.581   5.143 -0.3160 -0.4404  0.1256
21911SOL    HW167184   5.200   3.537   5.202  0.5218 -1.1299 -1.1935
21911SOL    HW267185   5.192   3.604   5.067 -0.8568  2.3615  0.4945
21912SOL     OW67186   6.484   4.869   3.667  0.0293  0.5158 -0.1183
21912SOL    HW167187   6.547   4.800   3.688 -0.6415 -0.1413 -0.2431
21912SOL    HW267188   6.475   4.919   3.748 -1.4797 -1.1588  0.8274
21913SOL     OW67189   3.858   5.286   2.210  0.1188  0.4465  0.1568
21913SOL    HW167190   3.824   5.363   2.166  0.6654  0.4301 -0.3051
21913SOL    HW267191   3.947   5.275   2.176 -0.0616 -0.5740 -0.0420
21914SOL     OW67192   4.801   3.741   4.039 -0.1801  0.0880  0.2575
21914SOL    HW167193   4.841   3.795   3.972 -0.6499  1.2763  0.9111
21914SOL    HW267194   4.780   3.658   3.995  0.3218  0.5297 -0.8152
21915SOL     OW67195   5.949   7.678   6.103 -0.3541  0.4300 -0.4341
21915SOL    HW167196   6.025   7.620   6.098  0.4778  1.4560 -0.0884
21915SOL    HW267197   5.947   7.707   6.195 -1.9612 -0.5985 -0.1025
21916SOL     OW67198   8.401   8.058   1.084 -0.1556 -0.5546 -0.1970
21916SOL    HW167199   8.355   7.983   1.122  0.0991 -0.8379 -0.4441
21916SOL    HW267200   8.426   8.029   0.996  1.3104 -0.7463  0.2516
21917SOL     OW67201   8.926   7.079   5.314 -0.6229 -0.1108 -0.4118
21917SOL    HW167202   8.942   7.082   5.220 -0.8314  0.2830 -0.4376
21917SOL    HW267203   8.875   7.158   5.332  0.7207  0.6232  0.2740
21918SOL     OW67204   1.695   3.452   0.114 -0.2657  0.7364  0.0065
21918SOL    HW167205   1.781   3.409   0.110 -0.9861 -1.1856  2.2120
21918SOL    HW267206   1.651   3.424   0.034 -0.0126 -1.1756  0.4756
21919SOL     OW67207   5.578   7.719   1.379  0.5361 -0.3386 -0.2537
21919SOL    HW167208   5.646   7.771   1.422  0.6592  0.2458 -1.1318
21919SOL    HW267209   5.526   7.783   1.332 -2.0252 -0.4601  2.1622
21920SOL     OW67210   5.232   3.844   1.116 -0.0541 -0.1186  0.0878
21920SOL    HW167211   5.180   3.910   1.071  1.2941 -0.6782 -2.4592
21920SOL    HW267212   5.245   3.775   1.051  0.8866 -1.6209  1.7813
21921SOL     OW67213   2.223   7.443   6.157  0.0873 -0.3874 -0.6178
21921SOL    HW167214   2.274   7.376   6.111 -0.1133 -0.4587 -0.7342
21921SOL    HW267215   2.137   7.403   6.170  0.0097 -0.2036 -0.5676
21922SOL     OW67216   3.426   3.413   3.771 -0.4370 -0.5918 -0.0171
21922SOL    HW167217   3.445   3.340   3.829 -1.1314 -0.1043  0.8376
21922SOL    HW267218   3.507   3.425   3.720 -0.2040 -1.7223  0.0621
21923SOL     OW67219   9.009   2.686   2.001  0.0335  0.2326  0.3431
21923SOL    HW167220   9.008   2.591   2.013 -1.3353 -0.4283 -3.4855
21923SOL    HW267221   8.917   2.711   2.002  0.3754  1.5748  1.2560
21924SOL     OW67222   2.254   1.534   6.496 -0.1576 -0.3158 -0.0614
21924SOL    HW167223   2.266   1.599   6.565 -1.2541 -1.5857  1.3998
21924SOL    HW267224   2.165   1.551   6.463 -0.7091 -1.4349  0.7820
21925SOL     OW67225   8.839   6.656   6.784  0.1127  0.0958 -0.4743
21925SOL    HW167226   8.759   6.612   6.754 -0.2567 -1.5300  2.5517
21925SOL    HW267227   8.910   6.600   6.752 -0.1309 -0.3172 -0.2917
21926SOL     OW67228   4.101   4.631   3.964  0.3051  0.5148 -0.1462
21926SOL    HW167229   4.057   4.647   3.881 -0.3756  1.0609  0.3026
21926SOL    HW267230   4.157   4.556   3.948 -0.2357  0.2707 -0.9478
21927SOL     OW67231   2.396   5.088   5.080  0.7374 -0.3131  0.0871
21927SOL    HW167232   2.375   5.138   5.159  1.2336  0.2401 -0.1249
21927SOL    HW267233   2.322   5.103   5.022  0.8925  0.2085  0.0162
21928SOL     OW67234   2.279   3.995   1.876 -0.4544  0.5313  0.2438
21928SOL    HW167235   2.233   4.007   1.959 -0.4368 -0.1482  0.3500
21928SOL    HW267236   2.287   3.901   1.865 -2.0805  0.5278 -1.4265
21929SOL     OW67237   1.405   7.828   7.274  0.1316  0.0062  0.0616
21929SOL    HW167238   1.370   7.914   7.251  1.3846  0.0318 -1.9698
21929SOL    HW267239   1.500   7.838   7.268  0.4001 -1.0580  1.6977
21930SOL     OW67240   0.782   6.398   3.422 -0.1205 -0.6800 -0.0624
21930SOL    HW167241   0.762   6.467   3.485  1.3085  0.7679 -1.1327
21930SOL    HW267242   0.852   6.434   3.368  0.1246 -2.6833 -1.1610
21931SOL     OW67243   6.687   0.229   3.910 -0.7124  0.2600 -0.6169
21931SOL    HW167244   6.691   0.286   3.986  0.5249  0.0967 -0.5365
21931SOL    HW267245   6.710   0.286   3.836 -0.9578  0.2019 -0.7394
21932SOL     OW67246   7.139   8.724   7.920 -0.3232  0.8427  0.1222
21932SOL    HW167247   7.172   8.650   7.970 -2.3531  0.8051  1.5696
21932SOL    HW267248   7.143   8.696   7.829 -1.9502 -1.4969  0.6831
21933SOL     OW67249   0.204   1.182   3.829  0.1851  0.0808  0.1460
21933SOL    HW167250   0.204   1.132   3.910 -0.2349 -0.4504 -0.1775
21933SOL    HW267251   0.204   1.116   3.759 -1.4961  0.5004 -0.2860
21934SOL     OW67252   8.090   3.201   8.854 -0.0764  0.0740  1.1474
21934SOL    HW167253   8.062   3.286   8.819  1.0979 -0.9074 -2.7395
21934SOL    HW267254   8.016   3.142   8.835  0.1015 -0.2580  1.4761
21935SOL     OW67255   2.649   3.869   6.798 -0.1158  0.1059  0.1672
21935SOL    HW167256   2.661   3.959   6.767 -1.1842 -0.7958 -3.4278
21935SOL    HW267257   2.559   3.847   6.775 -0.0064 -1.7860  1.2934
21936SOL     OW67258   4.743   1.471   1.778  0.3736  0.3252 -0.7998
21936SOL    HW167259   4.780   1.463   1.866 -2.1786  0.1269  0.3408
21936SOL    HW267260   4.771   1.391   1.733  0.9268 -0.0195  0.1239
21937SOL     OW67261   2.777   2.957   4.406 -0.9721  0.1726 -0.1288
21937SOL    HW167262   2.766   3.023   4.474 -1.6185 -0.4035  0.3423
21937SOL    HW267263   2.866   2.971   4.373 -0.8317  0.7876  0.4847
21938SOL     OW67264   8.692   1.499   3.141 -0.4180 -0.7902  0.0160
21938SOL    HW167265   8.608   1.545   3.134  0.0336  0.1413  0.4342
21938SOL    HW267266   8.707   1.490   3.235  1.3206  1.7820  0.1045
21939SOL     OW67267   7.705   8.509   4.519 -0.2507 -0.1995 -0.5183
21939SOL    HW167268   7.775   8.485   4.458 -1.0738  1.9687 -2.4975
21939SOL    HW267269   7.642   8.438   4.512  1.1822 -1.6178  0.4142
21940SOL     OW67270   6.392   8.953   3.041 -0.0935  0.0681 -0.0742
21940SOL    HW167271   6.323   8.984   2.984  0.6039  0.3299 -0.7938
21940SOL    HW267272   6.412   9.028   3.097 -1.3095 -0.4267  1.0694
21941SOL     OW67273   8.058   9.143   4.086  0.2361  0.1422  0.2762
21941SOL    HW167274   7.975   9.107   4.116  0.1576  0.7084  0.7529
21941SOL    HW267275   8.095   9.188   4.163  0.8501  0.1311 -0.0028
21942SOL     OW67276   4.182   7.654   6.792 -0.4261 -0.8798  0.7349
21942SOL    HW167277   4.244   7.633   6.862 -1.2508 -2.9452  0.9098
21942SOL    HW267278   4.104   7.602   6.812 -2.4062  1.8314  0.6812
21943SOL     OW67279   0.481   3.107   7.740  0.0606  0.0817 -0.2288
21943SOL    HW167280   0.486   3.202   7.735 -1.0062  0.2898  1.7748
21943SOL    HW267281   0.421   3.082   7.670 -1.2383  1.0980  0.4761
21944SOL     OW67282   5.677   5.812   0.355  0.7747 -0.3298  0.1257
21944SOL    HW167283   5.722   5.854   0.281 -0.1606 -0.6004 -0.6211
21944SOL    HW267284   5.747   5.788   0.415  1.6005 -0.4056 -0.8302
21945SOL     OW67285   0.614   5.725   6.796 -0.1335 -0.3809 -0.9157
21945SOL    HW167286   0.651   5.644   6.761  0.8434  0.3186 -1.5470
21945SOL    HW267287   0.683   5.790   6.785  0.0016  0.0545  1.7266
21946SOL     OW67288   4.865   4.864   4.185  0.0088 -0.1090  0.5116
21946SOL    HW167289   4.933   4.848   4.251  1.0098 -0.0428 -0.4680
21946SOL    HW267290   4.914   4.883   4.105 -1.1795 -0.0368 -0.2184
21947SOL     OW67291   0.806   3.868   5.122 -0.2487  0.1895  0.0358
21947SOL    HW167292   0.774   3.841   5.036  0.4092 -0.4445 -0.0245
21947SOL    HW267293   0.834   3.786   5.164  3.0687  0.8090 -0.6545
21948SOL     OW67294   0.499   6.397   9.034  0.6318 -0.1744  0.1971
21948SOL    HW167295   0.496   6.303   9.021  0.7917 -0.4667  2.0911
21948SOL    HW267296   0.458   6.433   8.955 -0.2205 -1.8474 -0.1715
21949SOL     OW67297   6.285   3.048   4.000 -0.1076  0.1071 -0.3146
21949SOL    HW167298   6.230   3.013   4.070  0.0387 -1.7433 -1.0685
21949SOL    HW267299   6.355   3.095   4.045  1.9630 -3.8332  1.0848
21950SOL     OW67300   3.090   2.023   1.995 -0.1266 -0.2526 -0.4262
21950SOL    HW167301   3.178   2.020   2.031  0.1741 -1.3280 -1.2312
21950SOL    HW267302   3.041   1.958   2.046 -0.9414  1.4862  1.1655
21951SOL     OW67303   8.992   6.715   7.934  0.5727 -0.4390 -0.4844
21951SOL    HW167304   8.932   6.651   7.973  2.0272 -0.9374  1.0288
21951SOL    HW267305   8.985   6.792   7.992  0.6444 -0.1180 -0.8970
21952SOL     OW67306   1.934   3.499   1.466 -0.3515 -0.2552 -0.0745
21952SOL    HW167307   1.858   3.447   1.440 -1.3399  0.1202  1.8827
21952SOL    HW267308   1.928   3.579   1.415 -0.7106 -0.6358 -0.6396
21953SOL     OW67309   1.180   2.145   4.597 -0.0106  0.9186 -0.1499
21953SOL    HW167310   1.170   2.104   4.683 -0.3127  1.3897  0.0396
21953SOL    HW267311   1.099   2.194   4.584  0.5873  1.9379 -0.1145
21954SOL     OW67312   0.375   3.154   1.917 -0.1499 -0.8313  0.0051
21954SOL    HW167313   0.418   3.070   1.928  0.2159 -0.5555  0.7911
21954SOL    HW267314   0.433   3.217   1.961 -0.4490 -0.1809 -0.5035
21955SOL     OW67315   3.115   0.876   6.116 -0.3893 -0.2626 -0.2743
21955SOL    HW167316   3.185   0.867   6.051 -0.8083  3.6164 -1.5137
21955SOL    HW267317   3.144   0.949   6.172 -2.0523 -0.6112  1.1206
21956SOL     OW67318   3.650   0.945   2.000  0.0819 -0.3895  0.0342
21956SOL    HW167319   3.675   1.007   2.070 -0.4064  0.4780 -0.5374
21956SOL    HW267320   3.579   0.894   2.038  0.1101 -0.2187  0.3238
21957SOL     OW67321   5.575   5.009   0.666 -0.0149 -0.1341 -0.2735
21957SOL    HW167322   5.582   4.935   0.727  2.0585 -1.1120 -1.5750
21957SOL    HW267323   5.486   5.004   0.632 -0.1315 -1.6289  0.1783
21958SOL     OW67324   6.630   7.478   7.372  0.0982  0.2339  0.2616
21958SOL    HW167325   6.672   7.399   7.406  1.8696  0.8523 -0.3729
21958SOL    HW267326   6.629   7.466   7.278  0.9190  1.1722  0.1065
21959SOL     OW67327   6.549   4.484   0.720 -0.4320 -0.4024 -0.6794
21959SOL    HW167328   6.579   4.404   0.763  0.5843  0.1969 -0.2350
21959SOL    HW267329   6.478   4.456   0.663  0.1404 -1.6766 -0.7919
21960SOL     OW67330   1.103   3.892   4.309  0.3464 -0.4484 -0.6836
21960SOL    HW167331   1.129   3.800   4.316  0.0073 -0.5961 -1.3323
21960SOL    HW267332   1.046   3.895   4.233 -0.6861  0.0731  0.0941
21961SOL     OW67333   2.046   6.358   4.762 -0.2468  0.1321  0.1402
21961SOL    HW167334   2.096   6.391   4.837 -1.2039  0.4288  0.6515
21961SOL    HW267335   2.083   6.270   4.747  2.3235  1.3432 -1.2406
21962SOL     OW67336   5.038   6.578   5.288 -0.5342 -0.2356 -0.4179
21962SOL    HW167337   5.026   6.526   5.368  2.0028  0.2246  0.3483
21962SOL    HW267338   5.023   6.668   5.315  0.0453 -0.1072 -0.5090
21963SOL     OW67339   3.017   6.231   5.089  0.4323 -0.2888  0.0673
21963SOL    HW167340   2.976   6.258   5.171 -0.0810  0.5783 -0.4682
21963SOL    HW267341   3.026   6.312   5.038 -0.4606 -0.9918 -1.2683
21964SOL     OW67342   3.062   8.577   3.436  0.0435 -0.0944 -0.2779
21964SOL    HW167343   3.150   8.578   3.400  0.4209  1.0138  0.6392
21964SOL    HW267344   3.005   8.567   3.360  0.8323  1.7797 -1.1693
21965SOL     OW67345   3.085   0.192   7.659  0.1162 -0.0841 -0.4684
21965SOL    HW167346   3.069   0.285   7.675 -2.1987 -0.6634  1.2082
21965SOL    HW267347   3.044   0.175   7.574 -0.3262  0.2702 -0.3313
21966SOL     OW67348   8.072   4.696   6.913 -0.4655  0.5883  0.5494
21966SOL    HW167349   7.980   4.678   6.891 -0.1975 -0.9542  0.5386
21966SOL    HW267350   8.074   4.789   6.935 -1.6227  1.1475 -1.4708
21967SOL     OW67351   7.471   5.582   2.620 -0.1405  0.2219 -0.1129
21967SOL    HW167352   7.547   5.538   2.582 -0.2780 -1.0528  1.0483
21967SOL    HW267353   7.497   5.603   2.709 -0.5004  1.4810 -0.2826
21968SOL     OW67354   6.395   8.916   2.066  0.0228  0.4121  0.2775
21968SOL    HW167355   6.448   8.880   2.137 -0.5108  0.2557  0.6006
21968SOL    HW267356   6.353   8.993   2.103  1.7111  1.8361 -0.6151
21969SOL     OW67357   4.261   3.659   0.107  0.4192  0.6645  0.2977
21969SOL    HW167358   4.295   3.608   0.180  0.6652 -1.5133 -1.2063
21969SOL    HW267359   4.323   3.731   0.096  2.4074 -0.9974  0.0649
21970SOL     OW67360   4.970   6.076   3.562 -0.6366  0.1863  0.2776
21970SOL    HW167361   5.058   6.049   3.534 -0.8484  0.6936 -0.9505
21970SOL    HW267362   4.962   6.042   3.651  1.3700  1.3648  0.9767
21971SOL     OW67363   5.853   2.336   0.393  0.0522  0.1636  0.2426
21971SOL    HW167364   5.827   2.286   0.315  2.0277  2.0959 -1.8045
21971SOL    HW267365   5.811   2.421   0.383  0.9478  0.6989  0.8794
21972SOL     OW67366   7.362   5.872   2.026  0.4627  0.0689 -0.2357
21972SOL    HW167367   7.357   5.823   2.108 -0.2532  0.4018 -0.0791
21972SOL    HW267368   7.406   5.812   1.965 -0.4805 -0.8026 -0.0747
21973SOL     OW67369   6.089   1.545   2.136  0.3603  0.5396  0.5814
21973SOL    HW167370   6.167   1.489   2.134 -0.4085 -0.5784  0.6121
21973SOL    HW267371   6.025   1.494   2.185 -0.3315  1.5356  0.7447
21974SOL     OW67372   4.637   0.374   6.252  0.0019  0.6268  0.0021
21974SOL    HW167373   4.638   0.468   6.268  0.0356  0.6014  0.1495
21974SOL    HW267374   4.643   0.366   6.157 -0.0025  0.7732 -0.0111
21975SOL     OW67375   8.194   1.157   7.907  0.8999  0.0201 -0.2228
21975SOL    HW167376   8.130   1.096   7.871  1.1654  0.1664 -0.9622
21975SOL    HW267377   8.171   1.242   7.870  1.1185  0.1988  0.0387
21976SOL     OW67378   2.166   6.900   2.717  0.4570 -0.2533  0.1650
21976SOL    HW167379   2.235   6.835   2.715  0.7166  0.0318 -0.4388
21976SOL    HW267380   2.188   6.961   2.646  0.5168  0.7881  1.0552
21977SOL     OW67381   9.200   3.408   6.858 -0.5866 -0.3976 -0.1282
21977SOL    HW167382   9.183   3.402   6.764 -3.2153 -1.9493  0.3684
21977SOL    HW267383   9.212   3.317   6.885  0.9343  0.0926  0.9557
21978SOL     OW67384   2.138   3.989   7.717  0.0734  0.0715 -0.0297
21978SOL    HW167385   2.223   3.983   7.673  0.6472 -1.0301  1.1274
21978SOL    HW267386   2.159   4.023   7.804 -1.0926  2.6750 -0.6804
21979SOL     OW67387   2.411   1.276   3.605 -0.3783  0.1691  0.3652
21979SOL    HW167388   2.416   1.346   3.540  2.7952 -0.8710 -0.6865
21979SOL    HW267389   2.318   1.256   3.611 -1.0723  2.3490 -1.5950
21980SOL     OW67390   9.071   1.799   1.697 -0.0340 -0.8386 -0.3012
21980SOL    HW167391   9.088   1.740   1.771  0.6369 -0.9989 -0.5771
21980SOL    HW267392   9.040   1.880   1.738  0.1141 -1.0046  0.1407
21981SOL     OW67393   4.635   6.421   2.450 -0.0487 -0.2780  0.9522
21981SOL    HW167394   4.614   6.347   2.392  0.8052  1.1820 -1.3654
21981SOL    HW267395   4.729   6.432   2.442 -0.2540  1.5130  0.6408
21982SOL     OW67396   3.107   8.479   8.367 -0.2277  0.1948  0.2125
21982SOL    HW167397   3.033   8.463   8.309 -0.4604  0.8110  0.3344
21982SOL    HW267398   3.068   8.493   8.453  0.0338  0.4768  0.2880
21983SOL     OW67399   8.058   0.453   5.402  0.6270 -0.1515  0.4221
21983SOL    HW167400   7.971   0.465   5.363  0.2517  2.1717  1.7834
21983SOL    HW267401   8.113   0.519   5.359  0.8036  0.7775  1.9982
21984SOL     OW67402   2.041   3.039   2.030 -0.2659 -0.0485  0.0506
21984SOL    HW167403   2.003   3.126   2.019 -2.0393 -0.9529 -1.5232
21984SOL    HW267404   2.130   3.048   1.994 -0.8541  0.8317 -1.2993
21985SOL     OW67405   2.687   8.317   2.133 -0.2262  0.0050  0.5874
21985SOL    HW167406   2.611   8.366   2.100 -0.3520 -0.8447 -0.4528
21985SOL    HW267407   2.745   8.309   2.057 -0.4535 -1.8898  0.5457
21986SOL     OW67408   3.286   2.573   0.163  0.1233 -0.2949 -0.1083
21986SOL    HW167409   3.238   2.558   0.082  0.9253  0.9103 -0.8355
21986SOL    HW267410   3.309   2.485   0.195 -0.1726 -0.7761 -1.2034
21987SOL     OW67411   8.638   7.508   6.606 -0.3049  0.1675  0.0543
21987SOL    HW167412   8.584   7.444   6.653 -1.2658  0.2425 -0.9064
21987SOL    HW267413   8.695   7.455   6.551 -0.3088  0.1149  0.1005
21988SOL     OW67414   4.277   5.623   1.468 -0.2480  0.1987  0.1193
21988SOL    HW167415   4.316   5.549   1.515 -1.7114 -1.7839 -1.6131
21988SOL    HW267416   4.311   5.616   1.379  0.0429  2.0252  0.0358
21989SOL     OW67417   0.108   6.493   5.449  0.2291 -0.8005 -0.2277
21989SOL    HW167418   0.107   6.435   5.373 -2.2440 -1.4236  0.2079
21989SOL    HW267419   0.053   6.449   5.514 -0.4779  1.3154  0.6864
21990SOL     OW67420   7.178   1.144   8.704  0.4841 -0.1144 -0.4896
21990SOL    HW167421   7.243   1.115   8.768 -1.5310  2.4968  3.1073
21990SOL    HW267422   7.228   1.196   8.641  2.2693 -0.7586  0.3200
21991SOL     OW67423   3.486   2.566   8.213  0.0813  0.4300  0.3201
21991SOL    HW167424   3.471   2.563   8.118  1.2616  1.0973  0.0959
21991SOL    HW267425   3.425   2.633   8.245 -1.7682 -1.1674  0.3695
21992SOL     OW67426   0.091   2.052   2.202  0.4499 -0.4265  0.5317
21992SOL    HW167427   0.055   1.999   2.131  0.3899 -0.2519  0.4306
21992SOL    HW267428   0.186   2.041   2.195  0.5596  0.9872 -0.6929
21993SOL     OW67429   7.093   3.869   3.314  0.6282 -0.2308  0.1240
21993SOL    HW167430   7.015   3.814   3.313  2.0331 -2.4090  1.3648
21993SOL    HW267431   7.062   3.955   3.342 -1.2572 -1.1636  1.0647
21994SOL     OW67432   6.176   0.585   3.113  0.0084 -0.0846  1.0837
21994SOL    HW167433   6.190   0.675   3.143 -0.2918  0.4705 -0.3749
21994SOL    HW267434   6.232   0.532   3.170 -1.0565  0.8070  3.0899
21995SOL     OW67435   4.975   1.305   7.580 -0.5994  0.5597  0.2879
21995SOL    HW167436   4.925   1.224   7.587 -0.8366  0.7058  0.2815
21995SOL    HW267437   4.936   1.363   7.645 -1.8707  1.4239 -1.1790
21996SOL     OW67438   4.400   3.043   7.352 -0.3870 -0.5762 -0.0565
21996SOL    HW167439   4.381   3.136   7.361 -1.9123 -0.9445  0.9766
21996SOL    HW267440   4.356   3.016   7.271  0.6553 -0.2747 -0.7379
21997SOL     OW67441   6.859   9.022   2.891 -0.0385  0.0800  0.0179
21997SOL    HW167442   6.917   8.988   2.824 -1.2196 -0.1380 -0.9151
21997SOL    HW267443   6.770   9.009   2.857 -0.6559  0.4322  1.3856
21998SOL     OW67444   3.863   5.442   6.831  0.0965  0.1618 -0.5289
21998SOL    HW167445   3.881   5.536   6.832  2.0831 -0.1822 -0.5115
21998SOL    HW267446   3.937   5.404   6.785 -0.1664 -1.5009  0.3523
21999SOL     OW67447   0.385   1.516   5.516  0.5196 -0.1272 -0.5889
21999SOL    HW167448   0.476   1.544   5.511  0.3742  0.3405 -0.6946
21999SOL    HW267449   0.368   1.504   5.609  0.0693  1.9293 -0.3676
22000SOL     OW67450   6.169   0.599   1.401 -0.0283  0.3544  0.3225
22000SOL    HW167451   6.251   0.638   1.369  0.6872 -1.3124  0.0065
22000SOL    HW267452   6.192   0.565   1.488 -0.4945  0.1980  0.3826
22001SOL     OW67453   4.930   2.385   8.439 -0.1721  0.0225 -0.0422
22001SOL    HW167454   4.847   2.431   8.446  0.2497  1.4112 -2.9574
22001SOL    HW267455   4.908   2.303   8.395 -0.3608 -1.0127  1.8615
22002SOL     OW67456   5.132   5.560   0.464  0.7214  0.4867 -0.1073
22002SOL    HW167457   5.040   5.534   0.471  0.3105  1.3760 -1.6349
22002SOL    HW267458   5.180   5.479   0.450  0.0766  0.0905 -0.0238
22003SOL     OW67459   2.865   9.122   7.374 -0.6276 -0.1090 -0.6782
22003SOL    HW167460   2.815   9.079   7.443  0.7730 -0.6820  0.0091
22003SOL    HW267461   2.805   9.188   7.339 -0.9832  1.0868  1.9329
22004SOL     OW67462   7.545   3.641   1.192  0.8839 -0.2455 -0.0807
22004SOL    HW167463   7.514   3.679   1.110  2.7584 -0.3234 -0.8858
22004SOL    HW267464   7.480   3.576   1.215  0.0200  0.1925 -1.1961
22005SOL     OW67465   4.562   0.721   2.742  0.1463  0.1513 -0.7004
22005SOL    HW167466   4.491   0.777   2.772  1.2799  1.4861 -0.3868
22005SOL    HW267467   4.540   0.701   2.651 -1.0244 -0.1393 -0.3672
22006SOL     OW67468   3.997   1.034   5.759 -0.5926  0.3242  0.6202
22006SOL    HW167469   3.968   0.961   5.814 -0.3811 -0.1175  0.1579
22006SOL    HW267470   4.072   1.072   5.805 -0.9923  0.5530  1.0960
22007SOL     OW67471   1.426   2.905   7.983 -0.0815  0.1379 -0.6099
22007SOL    HW167472   1.451   2.896   8.075 -1.8276 -0.3217 -0.1444
22007SOL    HW267473   1.450   2.821   7.943 -1.1394 -0.4307 -0.0917
22008SOL     OW67474   4.749   2.414   1.511  0.6209  0.0428 -0.3275
22008SOL    HW167475   4.730   2.424   1.604  0.5369 -2.2187 -0.0445
22008SOL    HW267476   4.817   2.479   1.493 -0.8081  1.9409  0.7927
22009SOL     OW67477   6.527   7.990   5.093 -0.1121  0.1415  0.0960
22009SOL    HW167478   6.500   8.075   5.058 -1.9756  0.3633  1.8751
22009SOL    HW267479   6.479   7.926   5.041  0.5171  0.2148 -0.5879
22010SOL     OW67480   5.068   3.521   0.424  0.3011 -0.1748  0.2497
22010SOL    HW167481   5.160   3.505   0.448  0.6122 -2.6962 -2.1819
22010SOL    HW267482   5.073   3.557   0.335 -1.0722  1.5707  0.8189
22011SOL     OW67483   7.361   2.628   7.010  0.1982  0.5973  0.4075
22011SOL    HW167484   7.312   2.565   7.063  0.3486 -1.0403 -1.2942
22011SOL    HW267485   7.449   2.591   7.005  0.1963  0.7193 -0.9115
22012SOL     OW67486   8.852   8.348   9.198  0.3978 -0.4526 -0.4834
22012SOL    HW167487   8.926   8.388   9.244 -0.7974 -0.1353  1.2558
22012SOL    HW267488   8.874   8.357   9.105  1.9807  0.6860 -0.0432
22013SOL     OW67489   8.140   8.420   8.675 -0.0869 -0.1275 -0.2617
22013SOL    HW167490   8.129   8.486   8.607 -0.6498 -3.4244 -3.6672
22013SOL    HW267491   8.212   8.365   8.645 -1.4968 -2.7520  0.7908
22014SOL     OW67492   1.152   1.892   8.823  0.4986  0.3858  0.3777
22014SOL    HW167493   1.108   1.966   8.865  0.3556 -0.5570  1.9770
22014SOL    HW267494   1.211   1.858   8.890  1.8266  0.0883 -0.8987
22015SOL     OW67495   3.375   2.038   0.487 -0.5522  0.0370 -0.7169
22015SOL    HW167496   3.336   1.980   0.421 -0.8481 -0.2452 -0.3025
22015SOL    HW267497   3.458   1.996   0.509 -0.4399  0.1465 -0.9254
22016SOL     OW67498   5.848   5.923   0.163 -0.3410  0.1585  0.2063
22016SOL    HW167499   5.824   5.888   0.077 -2.0931  1.2734  0.1832
22016SOL    HW267500   5.928   5.973   0.147  0.0218 -0.6413 -0.5237
22017SOL     OW67501   2.787   1.050   6.043 -0.2082  0.2682 -0.5145
22017SOL    HW167502   2.857   1.022   5.985  1.1585 -0.0510  1.1817
22017SOL    HW267503   2.799   1.144   6.052  0.6830  0.0764  0.5530
22018SOL     OW67504   4.417   6.897   2.409 -0.2548 -0.3922 -0.3284
22018SOL    HW167505   4.458   6.811   2.420  0.6408 -0.0922 -1.1201
22018SOL    HW267506   4.331   6.888   2.450 -0.0380 -1.5541 -0.0797
22019SOL     OW67507   8.074   4.063   1.837 -0.2568 -0.6608  0.4694
22019SOL    HW167508   8.028   4.033   1.759 -1.7659  1.6458  0.3683
22019SOL    HW267509   8.147   4.115   1.803  0.3262 -1.3665  0.6237
22020SOL     OW67510   2.151   5.105   0.341 -0.1545  0.0540 -0.1494
22020SOL    HW167511   2.162   5.119   0.435  0.2233 -2.6954  0.2903
22020SOL    HW267512   2.089   5.173   0.314 -0.6149  0.6372  2.1560
22021SOL     OW67513   8.424   6.597   0.811 -0.0709  0.1814 -0.3939
22021SOL    HW167514   8.396   6.680   0.772  0.9708  0.3903 -0.7291
22021SOL    HW267515   8.506   6.617   0.856  0.5357 -0.7914 -1.0183
22022SOL     OW67516   7.097   3.094   5.181 -0.7222 -0.2743 -0.0218
22022SOL    HW167517   7.043   3.140   5.116 -0.6524 -0.0098  0.1074
22022SOL    HW267518   7.073   3.002   5.170  0.0366 -0.3558 -1.1268
22023SOL     OW67519   5.222   1.128   4.706 -0.0845  0.2820  0.5451
22023SOL    HW167520   5.302   1.181   4.699  0.3628 -0.0023  2.6741
22023SOL    HW267521   5.161   1.167   4.644  1.8548  0.1854 -1.5165
22024SOL     OW67522   3.983   5.532   3.917 -0.8034 -0.7651  0.2055
22024SOL    HW167523   3.929   5.577   3.852 -0.5472  1.4751  1.4394
22024SOL    HW267524   4.051   5.489   3.865  0.9027  2.9906 -1.0671
22025SOL     OW67525   0.228   0.251   9.032  0.0772  0.5520  0.2422
22025SOL    HW167526   0.242   0.203   8.950 -2.0913  0.6667 -0.2502
22025SOL    HW267527   0.282   0.330   9.022 -0.7740  0.9636 -1.4543
22026SOL     OW67528   2.429   0.481   0.186  0.0691  0.0832  0.3204
22026SOL    HW167529   2.476   0.401   0.165  0.5805 -0.8855  4.3488
22026SOL    HW267530   2.483   0.552   0.151  0.4932 -1.2020 -1.7810
22027SOL     OW67531   2.249   7.918   2.303 -0.1876  0.3791  0.0250
22027SOL    HW167532   2.287   7.883   2.222  0.6572 -0.2324  0.6703
22027SOL    HW267533   2.322   7.921   2.364 -0.7478  1.1574  0.6721
22028SOL     OW67534   1.566   3.161   7.466  0.3622  0.1144 -0.0514
22028SOL    HW167535   1.571   3.206   7.550 -0.8740  1.6001 -0.6934
22028SOL    HW267536   1.608   3.222   7.404  0.2385 -0.4259 -0.6801
22029SOL     OW67537   3.214   3.674   4.044  0.1400 -0.3754  0.4320
22029SOL    HW167538   3.129   3.707   4.018 -0.4410 -1.0176  1.4420
22029SOL    HW267539   3.202   3.579   4.052  1.3719 -0.7059 -0.9434
22030SOL     OW67540   7.832   0.232   1.239 -0.0692 -0.1450 -0.3074
22030SOL    HW167541   7.836   0.166   1.169  0.1469  1.0542 -1.4675
22030SOL    HW267542   7.763   0.291   1.211  0.3175  0.5908  0.2804
22031SOL     OW67543   0.144   2.534   7.070 -0.2003  0.0439 -0.0981
22031SOL    HW167544   0.200   2.605   7.103  1.2524  0.0804 -2.3818
22031SOL    HW267545   0.198   2.455   7.078  0.1154  0.0249 -2.0322
22032SOL     OW67546   5.747   6.372   1.788  0.6327  0.8415 -0.5049
22032SOL    HW167547   5.703   6.294   1.753  0.2616 -0.2353  2.1198
22032SOL    HW267548   5.701   6.390   1.870  1.3074  3.3276 -0.6105
22033SOL     OW67549   7.386   2.663   1.499  0.6327  0.2759 -0.0518
22033SOL    HW167550   7.328   2.691   1.569  1.4588 -0.7537  1.0913
22033SOL    HW267551   7.364   2.571   1.485  0.3704  0.5102 -1.2720
22034SOL     OW67552   6.815   2.459   5.768  0.4949 -0.2196 -0.6126
22034SOL    HW167553   6.767   2.385   5.730  1.9511 -1.0082 -1.0035
22034SOL    HW267554   6.878   2.484   5.700  0.2200  1.1962 -0.3687
22035SOL     OW67555   6.171   4.877   8.610 -0.0549 -0.1369  0.1573
22035SOL    HW167556   6.260   4.879   8.647 -0.5071 -2.2163  1.5343
22035SOL    HW267557   6.114   4.872   8.687 -1.3895  0.9140 -0.7196
22036SOL     OW67558   5.199   0.713   0.110 -0.3670 -0.0163  0.0328
22036SOL    HW167559   5.159   0.780   0.167  1.1872  1.5710 -0.6581
22036SOL    HW267560   5.253   0.661   0.169  0.0086  0.6406  0.2844
22037SOL     OW67561   4.417   7.171   1.278  0.2429 -0.3603 -0.1628
22037SOL    HW167562   4.364   7.200   1.352  0.7102 -0.3108  0.1574
22037SOL    HW267563   4.473   7.246   1.257 -0.1842 -0.2265 -0.8431
22038SOL     OW67564   0.695   6.014   1.149  0.1851  0.4229 -0.3989
22038SOL    HW167565   0.649   6.046   1.227 -1.0650 -0.2449 -0.8338
22038SOL    HW267566   0.640   5.944   1.116  0.4193  1.0219 -2.1879
22039SOL     OW67567   3.464   7.074   6.715  0.2122  0.2850 -0.0949
22039SOL    HW167568   3.378   7.108   6.693 -0.0000  1.2439  2.0221
22039SOL    HW267569   3.524   7.120   6.656 -0.6828 -0.6997 -1.8859
22040SOL     OW67570   8.727   5.542   7.574  0.0660 -0.3765 -0.3466
22040SOL    HW167571   8.781   5.465   7.593  0.8583 -0.4065 -2.4772
22040SOL    HW267572   8.653   5.508   7.524  0.4924  0.2226 -1.4254
22041SOL     OW67573   5.468   0.258   6.030  0.5429 -0.5002  0.4451
22041SOL    HW167574   5.435   0.171   6.008  0.3351 -0.1786 -0.5416
22041SOL    HW267575   5.432   0.316   5.963 -0.7136  0.6523  2.0255
22042SOL     OW67576   2.584   8.670   9.242 -0.1777 -0.3554 -0.0326
22042SOL    HW167577   2.651   8.703   9.182  0.1825 -1.1435 -0.0697
22042SOL    HW267578   2.604   8.577   9.251 -0.1852 -0.2312  1.3672
22043SOL     OW67579   5.647   8.971   7.451  0.0089 -0.5030  0.3833
22043SOL    HW167580   5.681   8.954   7.363  0.1992 -0.6655  0.4876
22043SOL    HW267581   5.722   8.957   7.509 -0.2468 -0.9061  0.6205
22044SOL     OW67582   7.705   5.530   0.782  0.2401 -0.1536  0.0672
22044SOL    HW167583   7.729   5.534   0.874  0.4299 -2.3297  0.1714
22044SOL    HW267584   7.659   5.612   0.765 -1.2217 -0.3806  2.5094
22045SOL     OW67585   1.795   7.180   3.614 -0.2644 -0.0873  0.1893
22045SOL    HW167586   1.704   7.166   3.639  0.1796 -1.6851  0.9681
22045SOL    HW267587   1.817   7.104   3.561  0.3532  0.7603 -0.8066
22046SOL     OW67588   3.971   2.233   2.294  0.0173  0.0486 -0.6451
22046SOL    HW167589   4.023   2.312   2.309 -0.0394  0.4569 -2.3708
22046SOL    HW267590   3.913   2.227   2.370  0.4129  1.3470 -0.2109
22047SOL     OW67591   2.060   5.706   6.177  0.8884  0.1318 -0.5916
22047SOL    HW167592   2.126   5.714   6.109  3.1665 -0.9203  1.3363
22047SOL    HW267593   2.091   5.762   6.248 -1.5552  1.4386 -0.4431
22048SOL     OW67594   5.852   1.494   7.766  0.0624  0.2786  0.0964
22048SOL    HW167595   5.844   1.588   7.754 -0.0368  0.3675  0.8254
22048SOL    HW267596   5.771   1.457   7.731 -0.4464  0.5742  0.9245
22049SOL     OW67597   5.021   3.621   4.458  0.1504 -0.0559 -0.6337
22049SOL    HW167598   4.968   3.588   4.531  0.4009 -0.0820 -0.4611
22049SOL    HW267599   4.958   3.663   4.400 -0.1096 -0.4054 -0.6099
22050SOL     OW67600   3.612   0.378   6.399 -0.3483  0.0945 -0.1421
22050SOL    HW167601   3.561   0.454   6.426 -2.0032 -1.6607  2.1238
22050SOL    HW267602   3.551   0.327   6.346  0.1886 -0.4406 -0.2511
22051SOL     OW67603   8.338   3.397   4.962  0.0834  0.6572 -0.0756
22051SOL    HW167604   8.305   3.446   4.886 -0.5819  2.5660  1.3575
22051SOL    HW267605   8.267   3.402   5.026  1.6836  1.6442  1.7367
22052SOL     OW67606   4.955   7.018   7.810 -0.8471 -0.3298  0.2874
22052SOL    HW167607   5.018   6.964   7.858  1.3813  0.7701 -1.1947
22052SOL    HW267608   4.910   7.069   7.877  2.8188  1.8902  1.3683
22053SOL     OW67609   1.142   1.130   5.372 -0.4077  0.3055 -0.2495
22053SOL    HW167610   1.053   1.150   5.401 -0.5865 -0.5482 -0.1929
22053SOL    HW267611   1.141   1.149   5.278 -0.4491  0.9548 -0.1244
22054SOL     OW67612   7.364   2.870   6.790  0.1645  0.1780  0.1383
22054SOL    HW167613   7.363   2.782   6.829  0.6022  0.2118  0.2257
22054SOL    HW267614   7.419   2.922   6.848  0.3904  0.3637 -0.2393
22055SOL     OW67615   4.699   0.152   5.776  0.2194 -0.6628  0.3023
22055SOL    HW167616   4.635   0.121   5.840  0.1110  0.3484  0.6913
22055SOL    HW267617   4.647   0.165   5.696  0.2637 -1.4427  0.1350
22056SOL     OW67618   1.067   0.915   4.237 -0.7136 -0.0899  0.0768
22056SOL    HW167619   1.042   0.953   4.321 -0.0752 -1.8323  1.0978
22056SOL    HW267620   0.990   0.929   4.181 -1.5690  0.1456  1.2769
22057SOL     OW67621   4.003   1.683   2.805  0.0071 -0.3881  0.0542
22057SOL    HW167622   3.970   1.762   2.848  1.0628 -1.0034  2.1210
22057SOL    HW267623   4.084   1.662   2.852  1.0215 -1.3857 -1.9900
22058SOL     OW67624   3.258   8.539   7.256 -0.2710 -0.2324  0.0276
22058SOL    HW167625   3.174   8.558   7.213 -1.0474 -3.0226  0.1580
22058SOL    HW267626   3.235   8.528   7.348  0.3914 -0.2731  0.1917
22059SOL     OW67627   7.625   1.022   7.655  0.2109 -0.2361 -0.4875
22059SOL    HW167628   7.566   1.021   7.730  0.4019 -0.0324 -0.3308
22059SOL    HW267629   7.610   1.107   7.614  0.5348 -0.0995 -0.3305
22060SOL     OW67630   7.901   1.327   7.488  0.8130 -0.1519 -0.5040
22060SOL    HW167631   7.822   1.374   7.461 -1.0242 -1.4715  2.1594
22060SOL    HW267632   7.915   1.262   7.419  0.0659  0.5998 -1.3980
22061SOL     OW67633   8.063   5.142   1.397  0.4514  0.3983 -0.5071
22061SOL    HW167634   8.000   5.212   1.417  1.4461  0.8928  1.1176
22061SOL    HW267635   8.025   5.064   1.437  1.0038  0.7734  0.8125
22062SOL     OW67636   5.406   2.372   4.851  0.3999 -0.2196 -0.9088
22062SOL    HW167637   5.398   2.463   4.880  0.0626 -0.1758 -1.1369
22062SOL    HW267638   5.495   2.365   4.816  0.6849 -0.1757 -0.2043
22063SOL     OW67639   2.981   3.706   1.784  0.1798 -0.4553  0.7771
22063SOL    HW167640   3.014   3.757   1.859 -1.4800  1.1589  0.4811
22063SOL    HW267641   3.015   3.752   1.707 -2.2113  0.9618  0.4790
22064SOL     OW67642   5.164   6.945   1.259 -0.2348  0.5047 -0.0868
22064SOL    HW167643   5.103   6.985   1.321  0.4471  1.2005  0.1449
22064SOL    HW267644   5.111   6.881   1.211 -0.8354  0.1664  1.0064
22065SOL     OW67645   4.737   4.998   9.252 -0.0153  0.5165 -0.1308
22065SOL    HW167646   4.815   5.051   9.235  0.5088  0.1728  1.1138
22065SOL    HW267647   4.664   5.058   9.239  0.4906  1.0865 -0.3905
22066SOL     OW67648   4.324   8.018   5.357  0.0536  0.0155 -0.1255
22066SOL    HW167649   4.400   7.964   5.337 -0.0538 -0.0903 -0.2498
22066SOL    HW267650   4.273   8.018   5.276  0.0053  0.2229 -0.0960
22067SOL     OW67651   8.646   8.983   6.145 -0.0909 -0.1281 -0.2122
22067SOL    HW167652   8.644   8.888   6.145 -0.8222 -0.1225 -0.7600
22067SOL    HW267653   8.564   9.009   6.102 -0.1887  0.7502  0.4612
22068SOL     OW67654   0.198   3.769   3.852 -0.1208  0.1389 -0.2344
22068SOL    HW167655   0.289   3.742   3.847 -0.3383 -0.3676 -1.9922
22068SOL    HW267656   0.162   3.719   3.925  0.8999  0.0462  0.2208
22069SOL     OW67657   2.302   2.690   2.014  0.6078 -0.0221 -0.0443
22069SOL    HW167658   2.380   2.715   2.064  0.2354  1.5881 -0.2407
22069SOL    HW267659   2.284   2.765   1.958 -1.5596 -0.0245  0.5665
22070SOL     OW67660   3.656   2.967   4.516  0.4055  0.9506 -0.1914
22070SOL    HW167661   3.619   2.994   4.600  1.7753 -0.1238  0.7888
22070SOL    HW267662   3.749   2.951   4.534  0.3870 -0.9608 -1.5000
22071SOL     OW67663   7.682   3.813   7.819  0.0982  0.1341 -0.4092
22071SOL    HW167664   7.678   3.746   7.887 -1.3061  1.9040  1.3963
22071SOL    HW267665   7.590   3.832   7.798  0.4914 -0.2896 -2.7856
22072SOL     OW67666   7.461   7.295   7.352  0.0519 -0.0944  0.3358
22072SOL    HW167667   7.428   7.338   7.431 -0.2524 -0.8253  0.6131
22072SOL    HW267668   7.552   7.276   7.371 -0.5702 -2.2574  1.3992
22073SOL     OW67669   0.682   8.102   6.372 -0.2234 -0.0167  0.3235
22073SOL    HW167670   0.674   8.122   6.279  1.1984 -0.4952  0.0736
22073SOL    HW267671   0.747   8.164   6.405  0.9598 -1.2967  0.4827
22074SOL     OW67672   5.794   2.754   2.348 -0.1509 -0.4450 -0.0700
22074SOL    HW167673   5.822   2.677   2.398 -0.4603 -1.0382 -0.7829
22074SOL    HW267674   5.864   2.768   2.284 -1.2076 -1.7018 -1.6082
22075SOL     OW67675   0.064   3.975   0.769  0.0844 -0.2004 -0.2116
22075SOL    HW167676   0.029   3.887   0.753 -0.3793  0.1208 -1.0308
22075SOL    HW267677   0.003   4.033   0.722  0.0645  0.6006  0.7783
22076SOL     OW67678   5.503   0.810   1.429 -0.1155 -0.0938 -0.5314
22076SOL    HW167679   5.577   0.801   1.489  0.9961 -0.8390 -1.9456
22076SOL    HW267680   5.427   0.781   1.480  0.6843 -0.0695  0.7110
22077SOL     OW67681   7.569   0.460   0.152  0.2518  0.1137 -0.3845
22077SOL    HW167682   7.575   0.554   0.167 -2.2797  0.1328  1.1638
22077SOL    HW267683   7.530   0.452   0.065 -0.2628  0.5341 -0.1950
22078SOL     OW67684   4.541   5.438   3.960  0.3031 -0.6272  0.7110
22078SOL    HW167685   4.543   5.478   4.047 -0.7125 -0.9333  0.8874
22078SOL    HW267686   4.601   5.363   3.967 -0.6514 -1.3546  1.5245
22079SOL     OW67687   7.441   6.062   6.695  0.1204 -0.0032  0.5500
22079SOL    HW167688   7.441   6.058   6.790 -1.5568  0.8648  0.6255
22079SOL    HW267689   7.520   6.015   6.669  1.0159  0.3859  2.3856
22080SOL     OW67690   6.374   8.227   6.969  0.1547 -0.5475 -0.2610
22080SOL    HW167691   6.445   8.268   6.919  0.1000  0.4202  0.4150
22080SOL    HW267692   6.296   8.241   6.915 -0.1903  1.9140  0.7425
22081SOL     OW67693   7.996   3.976   4.224  0.8726  0.5822  0.1361
22081SOL    HW167694   8.041   3.942   4.301 -0.4099  0.8275  1.0450
22081SOL    HW267695   7.911   3.932   4.224  0.9168  0.4312 -1.2773
22082SOL     OW67696   3.689   2.209   3.802 -0.2272 -0.1803 -0.2159
22082SOL    HW167697   3.616   2.265   3.776  0.3585  1.2931  1.1910
22082SOL    HW267698   3.724   2.249   3.881  2.0364 -0.9174 -0.7717
22083SOL     OW67699   7.329   6.481   0.909 -0.3454  0.8900 -0.2935
22083SOL    HW167700   7.297   6.546   0.847 -0.8575 -0.9980 -2.0965
22083SOL    HW267701   7.423   6.499   0.917  0.0944  0.1928 -2.9603
22084SOL     OW67702   6.011   8.706   6.863  0.0512 -0.4584  0.0655
22084SOL    HW167703   5.937   8.762   6.889  0.0756  0.0528 -0.9152
22084SOL    HW267704   6.070   8.765   6.816 -0.5009 -1.5334 -2.0990
22085SOL     OW67705   2.944   0.506   1.200 -0.0753  0.1561 -0.0475
22085SOL    HW167706   3.026   0.522   1.246 -1.0611  0.1174  1.8083
22085SOL    HW267707   2.915   0.421   1.231  0.3805 -1.0208 -2.6024
22086SOL     OW67708   9.199   4.748   6.483 -0.2290 -0.2057  0.0269
22086SOL    HW167709   9.245   4.683   6.429  0.1616  0.0410  0.0592
22086SOL    HW267710   9.162   4.697   6.555  0.3481 -0.3523  0.2277
22087SOL     OW67711   5.640   3.757   7.131  0.0479  0.3887  0.6657
22087SOL    HW167712   5.680   3.810   7.063 -0.3667 -0.2346 -0.0847
22087SOL    HW267713   5.691   3.776   7.210  2.3377 -0.9346 -0.4044
22088SOL     OW67714   2.985   0.747   2.552 -0.1630 -0.1022  0.3849
22088SOL    HW167715   2.902   0.748   2.504  1.1717 -0.4314 -2.0713
22088SOL    HW267716   3.021   0.834   2.539 -0.4402  0.3140  2.1444
22089SOL     OW67717   9.179   9.099   3.984  0.1246 -0.0723  0.3379
22089SOL    HW167718   9.238   9.101   3.909 -1.2592  0.0356 -0.7850
22089SOL    HW267719   9.141   9.187   3.986  0.0715 -0.1094  1.1091
22090SOL     OW67720   0.998   2.865   4.291  0.3445  0.2723 -0.0687
22090SOL    HW167721   1.060   2.938   4.303  0.0734  0.5994 -0.6147
22090SOL    HW267722   1.036   2.793   4.341  1.1281  0.4938 -0.3296
22091SOL     OW67723   8.642   0.720   1.852  0.5781  0.4211  0.6814
22091SOL    HW167724   8.694   0.641   1.868 -1.4161 -1.2979 -0.7982
22091SOL    HW267725   8.561   0.706   1.900 -0.4442  0.8164 -0.8650
22092SOL     OW67726   3.591   1.678   4.551 -0.0802 -0.6395  0.6784
22092SOL    HW167727   3.626   1.622   4.620  0.2484  0.0933  1.1202
22092SOL    HW267728   3.662   1.684   4.487  1.6940  2.7075  2.6327
22093SOL     OW67729   6.847   2.213   4.750 -0.3881  0.2655 -0.1626
22093SOL    HW167730   6.863   2.305   4.769 -0.7452  0.5603 -1.2678
22093SOL    HW267731   6.836   2.209   4.655 -0.4791 -0.8988 -0.1175
22094SOL     OW67732   2.034   4.317   0.068 -0.0770 -0.6977  0.1293
22094SOL    HW167733   1.959   4.258   0.068  0.1347 -0.9709  0.0493
22094SOL    HW267734   2.082   4.295   0.148 -0.3356 -0.1914  0.4307
22095SOL     OW67735   7.114   4.093   0.953  0.0260 -0.0704  0.4643
22095SOL    HW167736   7.105   4.027   0.885  0.2538  0.1441  0.2236
22095SOL    HW267737   7.197   4.137   0.933 -0.1806  0.3654  0.5549
22096SOL     OW67738   6.106   2.315   4.028  0.3900 -0.1279  0.7332
22096SOL    HW167739   6.175   2.281   4.084  2.3078  2.0268 -0.1490
22096SOL    HW267740   6.137   2.402   4.001 -1.1610 -0.3796 -2.3387
22097SOL     OW67741   1.752   7.825   6.120  0.1550 -0.6290 -0.2673
22097SOL    HW167742   1.664   7.797   6.147  0.3412 -0.4907  0.4898
22097SOL    HW267743   1.787   7.751   6.071 -0.6404 -0.4316 -1.1768
22098SOL     OW67744   2.997   8.215   3.955 -0.6011  0.0135  0.3347
22098SOL    HW167745   2.914   8.192   3.996 -0.6415  0.4044  0.4704
22098SOL    HW267746   3.014   8.143   3.895 -1.6313  0.4942 -0.5708
22099SOL     OW67747   7.595   2.056   9.254  0.0110  0.3311  0.3530
22099SOL    HW167748   7.566   2.090   9.339 -1.7657 -0.6148  0.1689
22099SOL    HW267749   7.642   2.130   9.214  0.0154  1.1139  1.7292
22100SOL     OW67750   0.534   2.647   4.569  0.9010  0.4825  0.8913
22100SOL    HW167751   0.459   2.695   4.535  0.8002  0.2368  0.7687
22100SOL    HW267752   0.600   2.653   4.500  0.8081  0.2516  0.7829
22101SOL     OW67753   8.402   1.971   6.342 -0.1993  0.0294  0.4523
22101SOL    HW167754   8.448   1.887   6.346 -0.8181 -0.5590 -2.4388
22101SOL    HW267755   8.472   2.036   6.335  0.2605 -0.3623  1.2998
22102SOL     OW67756   0.342   9.206   6.365  0.0965 -0.5954  0.3516
22102SOL    HW167757   0.385   9.162   6.292 -0.3580 -0.9294  0.2810
22102SOL    HW267758   0.412   9.218   6.430  0.6746  0.3996 -0.4308
22103SOL     OW67759   6.061   1.695   8.569  0.2304  0.9891  0.8758
22103SOL    HW167760   5.973   1.728   8.589 -1.2964 -0.8861 -2.0690
22103SOL    HW267761   6.091   1.749   8.496 -0.7517 -1.4624 -1.5181
22104SOL     OW67762   6.208   0.050   0.400  0.2826 -0.1658  0.0675
22104SOL    HW167763   6.246   0.112   0.462  1.4210 -0.8735  0.0992
22104SOL    HW267764   6.254   0.066   0.318 -1.7637  1.3159 -0.8853
22105SOL     OW67765   3.125   9.082   3.433  0.3299  0.3255  0.2681
22105SOL    HW167766   3.115   9.037   3.517 -2.7700  0.1320 -0.0779
22105SOL    HW267767   3.130   9.012   3.368 -0.2760  0.4690  0.0624
22106SOL     OW67768   8.603   6.532   5.497 -0.1016 -0.1896  0.7375
22106SOL    HW167769   8.685   6.568   5.529 -0.4291  0.7000  0.5887
22106SOL    HW267770   8.542   6.605   5.497 -0.6924 -0.6613  0.1261
22107SOL     OW67771   8.416   5.840   7.563  0.1358  0.5523 -0.0268
22107SOL    HW167772   8.496   5.829   7.615 -0.3862 -2.0969  0.3277
22107SOL    HW267773   8.346   5.847   7.628 -0.1984  0.2611 -0.3526
22108SOL     OW67774   1.696   8.215   4.938  0.2208  0.3240 -0.0398
22108SOL    HW167775   1.606   8.233   4.910 -0.0523  0.4213  0.8793
22108SOL    HW267776   1.743   8.199   4.856 -0.9720 -1.2801 -0.4650
22109SOL     OW67777   3.875   2.098   1.416 -0.2819  0.4879  0.1778
22109SOL    HW167778   3.810   2.160   1.448  1.0277  0.9753  2.1027
22109SOL    HW267779   3.947   2.104   1.479  0.5765 -1.8428 -0.4626
22110SOL     OW67780   4.408   8.400   7.568  0.4355  0.4368 -0.7422
22110SOL    HW167781   4.377   8.324   7.518  1.1623  0.7131 -1.6500
22110SOL    HW267782   4.436   8.363   7.652 -1.5725  0.0781 -0.1733
22111SOL     OW67783   5.937   0.493   4.007 -0.0194 -0.3188  0.1215
22111SOL    HW167784   5.989   0.446   3.941 -2.0531  0.8598 -2.5040
22111SOL    HW267785   5.867   0.432   4.031 -0.4614 -0.0102 -0.3787
22112SOL     OW67786   4.626   4.038   3.062 -0.4928 -0.1179  0.4891
22112SOL    HW167787   4.664   3.963   3.108 -1.4195 -0.4377  0.7581
22112SOL    HW267788   4.538   4.009   3.037  0.1013 -0.1226 -1.8836
22113SOL     OW67789   7.034   4.376   2.417 -0.1572  0.1628  0.2899
22113SOL    HW167790   7.037   4.282   2.434 -0.2612  0.1198  0.0808
22113SOL    HW267791   6.972   4.384   2.344  1.3872  0.1835 -1.0659
22114SOL     OW67792   3.576   7.566   7.084  0.6238  0.2417  0.6815
22114SOL    HW167793   3.501   7.513   7.055 -0.3917  2.2643 -0.6198
22114SOL    HW267794   3.652   7.509   7.071 -0.3480 -0.6852 -1.3237
22115SOL     OW67795   1.701   2.034   8.938 -0.2909  0.6285  0.1094
22115SOL    HW167796   1.694   2.014   9.031 -0.7802 -0.8655 -0.2282
22115SOL    HW267797   1.794   2.030   8.919 -0.2431  0.3608  0.4041
22116SOL     OW67798   8.898   5.465   6.680  0.4959 -0.4821 -0.6910
22116SOL    HW167799   8.863   5.392   6.629  0.9638 -0.2365 -1.3764
22116SOL    HW267800   8.821   5.502   6.723  0.2527 -1.3623 -0.3501
22117SOL     OW67801   8.071   4.833   2.697 -0.7835 -0.8673 -0.0607
22117SOL    HW167802   8.126   4.758   2.721  1.4943  0.4481 -0.8425
22117SOL    HW267803   8.072   4.834   2.601  3.0818  2.6148 -0.2346
22118SOL     OW67804   1.215   4.508   6.732  0.3152 -0.0480 -0.4831
22118SOL    HW167805   1.173   4.535   6.650 -1.4260  0.8509  0.6390
22118SOL    HW267806   1.145   4.509   6.796  1.2933 -2.3208  0.7296
22119SOL     OW67807   0.734   7.530   5.803 -0.3192  0.3644 -0.6889
22119SOL    HW167808   0.695   7.609   5.840 -1.2351 -0.8481  1.1161
22119SOL    HW267809   0.663   7.490   5.753  0.0754  0.5340 -1.4075
22120SOL     OW67810   8.530   7.332   5.025  0.1838  0.2035  0.1162
22120SOL    HW167811   8.563   7.270   4.960 -0.5101  0.9654 -0.9985
22120SOL    HW267812   8.573   7.415   5.003 -1.7251  1.0103 -0.8317
22121SOL     OW67813   1.289   2.745   6.441 -0.6873 -0.1359 -0.1955
22121SOL    HW167814   1.284   2.691   6.521 -1.0895 -1.2050 -0.9189
22121SOL    HW267815   1.343   2.693   6.381 -0.3009  0.7078 -0.5950
22122SOL     OW67816   8.359   5.648   8.306  0.2054  0.3134 -0.4125
22122SOL    HW167817   8.280   5.594   8.307  1.1665 -1.3379  2.8688
22122SOL    HW267818   8.429   5.587   8.280  0.9529  0.5323  0.9479
22123SOL     OW67819   3.230   3.699   4.384  0.5296 -0.0913  0.4006
22123SOL    HW167820   3.150   3.650   4.401 -0.5757  0.4460 -2.7062
22123SOL    HW267821   3.294   3.632   4.359  0.1742 -0.2668 -0.0360
22124SOL     OW67822   0.558   6.769   6.779  0.1932 -0.3424 -0.6240
22124SOL    HW167823   0.567   6.804   6.868 -0.8823 -0.1809 -0.5637
22124SOL    HW267824   0.539   6.676   6.792  0.2523 -0.3627 -0.6884
22125SOL     OW67825   8.662   3.739   7.081  0.1629  0.0272  0.2178
22125SOL    HW167826   8.703   3.661   7.118 -1.3636 -1.1133 -0.3993
22125SOL    HW267827   8.696   3.744   6.992  1.1822  0.7884  0.6301
22126SOL     OW67828   4.619   6.617   1.257 -0.0642  0.1030 -0.3505
22126SOL    HW167829   4.633   6.692   1.200 -0.5384  0.5257  0.0731
22126SOL    HW267830   4.590   6.655   1.340  2.6588 -0.3595  0.9175
22127SOL     OW67831   0.580   1.588   6.777 -0.2483 -0.0647  0.4828
22127SOL    HW167832   0.517   1.660   6.778 -1.2843 -0.9216  2.4540
22127SOL    HW267833   0.526   1.509   6.773  0.7759 -0.7897  0.6050
22128SOL     OW67834   6.794   7.893   7.983  0.2089 -0.2461  0.5812
22128SOL    HW167835   6.872   7.928   8.027  0.2817 -0.1930  0.4091
22128SOL    HW267836   6.723   7.951   8.011  0.0346 -0.9186  1.5808
22129SOL     OW67837   4.759   3.573   3.507 -0.0713  0.2232 -0.3577
22129SOL    HW167838   4.790   3.618   3.429  0.4466 -0.8510 -0.7995
22129SOL    HW267839   4.822   3.502   3.521 -0.9833 -0.5230  0.1501
22130SOL     OW67840   2.726   7.209   8.319  0.0238  0.4256 -0.2626
22130SOL    HW167841   2.790   7.141   8.340  0.9946  1.4868  0.2924
22130SOL    HW267842   2.680   7.175   8.242 -0.8436 -1.7195  1.1002
22131SOL     OW67843   3.187   1.869   2.308 -0.5714  0.9316 -0.1023
22131SOL    HW167844   3.258   1.860   2.245 -1.6201 -0.7815 -1.1398
22131SOL    HW267845   3.178   1.963   2.321  2.0129  1.2143  0.2765
22132SOL     OW67846   3.852   7.479   1.070 -0.2703  0.7482 -0.2064
22132SOL    HW167847   3.862   7.436   0.985  1.6548  0.6086  0.0537
22132SOL    HW267848   3.918   7.438   1.125 -0.6106  1.7699  0.9945
22133SOL     OW67849   3.581   4.302   7.874  0.0560  0.1854  0.4352
22133SOL    HW167850   3.641   4.236   7.908  0.0207  0.3310  0.7836
22133SOL    HW267851   3.636   4.379   7.858  0.1941 -0.0787 -0.4565
22134SOL     OW67852   1.515   3.439   4.648  0.1087  0.0830  0.2326
22134SOL    HW167853   1.546   3.437   4.557 -1.0804 -1.8547 -0.2049
22134SOL    HW267854   1.430   3.483   4.644  1.0740  2.1211  0.8412
22135SOL     OW67855   2.128   5.969   2.622  0.0558 -0.5961 -0.5754
22135SOL    HW167856   2.215   6.006   2.636  0.3025 -1.9641  2.1522
22135SOL    HW267857   2.145   5.877   2.603 -0.7746 -1.1545  1.1895
22136SOL     OW67858   5.056   0.226   8.713  0.2324 -0.0026 -0.2270
22136SOL    HW167859   5.045   0.293   8.780 -2.3199 -0.8945  0.3402
22136SOL    HW267860   5.011   0.261   8.636 -0.8744 -0.9023 -0.0120
22137SOL     OW67861   5.612   5.374   6.405  0.6054 -0.7099 -0.4481
22137SOL    HW167862   5.676   5.395   6.473  1.9157  0.2544 -1.8887
22137SOL    HW267863   5.656   5.309   6.350 -0.5639 -1.7397 -0.2061
22138SOL     OW67864   8.688   4.143   1.002  0.4274 -0.2369 -0.3048
22138SOL    HW167865   8.724   4.227   1.030  0.7848 -0.1194 -1.0915
22138SOL    HW267866   8.640   4.163   0.921  0.0777 -0.7001 -0.2195
22139SOL     OW67867   7.806   5.153   7.386 -0.6302 -0.0814 -0.2534
22139SOL    HW167868   7.867   5.182   7.453 -0.1556 -0.0626 -0.6837
22139SOL    HW267869   7.740   5.102   7.433 -0.1624 -0.2803  0.1926
22140SOL     OW67870   4.475   1.071   8.808  0.3349  0.5439  0.2463
22140SOL    HW167871   4.496   1.116   8.726  0.8507 -0.2180 -0.0536
22140SOL    HW267872   4.381   1.085   8.819  0.4580  1.5865  0.1091
22141SOL     OW67873   0.838   0.793   2.655 -0.0837 -0.6565 -0.5005
22141SOL    HW167874   0.803   0.711   2.622 -1.8548 -0.2513  0.2386
22141SOL    HW267875   0.821   0.791   2.749 -1.4217  1.0830 -0.6430
22142SOL     OW67876   3.626   2.701   4.703  0.2895  0.6735 -0.1253
22142SOL    HW167877   3.634   2.611   4.671  1.9257  0.2360  1.3564
22142SOL    HW267878   3.612   2.753   4.624  1.2132 -0.6824 -1.2328
22143SOL     OW67879   6.802   4.436   2.290 -0.0961  0.4150  0.2011
22143SOL    HW167880   6.714   4.427   2.327 -0.5565  2.0900 -0.3602
22143SOL    HW267881   6.802   4.524   2.252  1.4219 -0.0228 -0.8937
22144SOL     OW67882   3.084   3.410   0.948 -0.0375  0.1913 -0.4286
22144SOL    HW167883   3.140   3.470   0.998  1.7413 -0.3847 -1.6505
22144SOL    HW267884   3.078   3.332   1.002  0.3166  0.2670 -0.2791
22145SOL     OW67885   8.176   1.011   4.315 -0.2736 -0.3293 -0.7773
22145SOL    HW167886   8.268   1.016   4.288 -0.3169  0.8787 -0.7818
22145SOL    HW267887   8.148   1.103   4.320 -0.9066 -0.5810  1.2252
22146SOL     OW67888   5.117   3.236   8.914 -0.2734 -0.1812 -0.5632
22146SOL    HW167889   5.113   3.160   8.856  1.8133 -0.1923 -0.7837
22146SOL    HW267890   5.069   3.304   8.867 -2.1659 -1.2976 -0.3665
22147SOL     OW67891   7.679   6.007   3.747 -0.2996  0.5730 -0.5417
22147SOL    HW167892   7.598   5.957   3.750  0.6950 -1.0875  0.0912
22147SOL    HW267893   7.735   5.966   3.813  0.9138  1.9359 -0.6730
22148SOL     OW67894   4.501   5.049   9.047 -0.2138 -0.0425  0.1342
22148SOL    HW167895   4.426   5.098   9.015  0.8423  2.0531  0.7145
22148SOL    HW267896   4.569   5.115   9.062  2.2850 -1.9714 -1.7362
22149SOL     OW67897   7.080   7.416   4.499 -0.3984  0.1617 -0.5313
22149SOL    HW167898   7.052   7.475   4.569  1.0285  0.1244  0.1071
22149SOL    HW267899   7.172   7.398   4.518 -0.3134 -0.8302 -1.7403
22150SOL     OW67900   5.067   5.921   0.959 -0.1535  0.1148 -0.1841
22150SOL    HW167901   5.023   5.836   0.972  0.2533 -0.0177  0.3448
22150SOL    HW267902   4.999   5.985   0.979 -0.6745 -0.0713 -1.2784
22151SOL     OW67903   3.751   7.887   7.588  0.0694  1.1740  0.0812
22151SOL    HW167904   3.728   7.796   7.571 -0.6868  1.6386 -1.5935
22151SOL    HW267905   3.684   7.918   7.650  0.0756  0.7189  0.3175
22152SOL     OW67906   8.599   2.993   4.407 -0.5273 -0.7081  0.1489
22152SOL    HW167907   8.514   2.973   4.446 -0.1296  1.6476  2.5084
22152SOL    HW267908   8.616   3.084   4.432  1.3050 -0.0405 -2.9331
22153SOL     OW67909   7.793   4.493   3.721 -0.5941  0.3773 -0.1935
22153SOL    HW167910   7.847   4.425   3.761 -2.7974 -2.2278 -1.3305
22153SOL    HW267911   7.842   4.520   3.643  1.0332  1.3370  1.1007
22154SOL     OW67912   1.528   4.533   2.686  0.0666  0.2290 -0.1050
22154SOL    HW167913   1.551   4.492   2.770  1.0464  0.2567 -0.3480
22154SOL    HW267914   1.568   4.620   2.690  1.4957 -0.3404 -1.2225
22155SOL     OW67915   2.877   1.717   7.379  0.3157  0.1181 -0.0094
22155SOL    HW167916   2.927   1.747   7.455 -0.6558  1.7839  0.0173
22155SOL    HW267917   2.898   1.781   7.310  0.2378 -0.6789 -0.7931
22156SOL     OW67918   2.534   4.473   2.644 -0.1887  0.2160 -0.1501
22156SOL    HW167919   2.589   4.408   2.689 -0.7292  0.3741  0.7674
22156SOL    HW267920   2.448   4.432   2.640 -0.7324  1.1633  1.1381
22157SOL     OW67921   5.205   0.882   2.295 -0.4373 -0.5920  0.0208
22157SOL    HW167922   5.158   0.939   2.233 -0.7703 -0.8147  0.0629
22157SOL    HW267923   5.168   0.905   2.380 -1.0133 -1.2903 -0.0296
22158SOL     OW67924   6.218   6.256   5.809 -0.0049 -0.1948  0.5946
22158SOL    HW167925   6.287   6.209   5.855  0.1954 -2.0980 -1.4776
22158SOL    HW267926   6.143   6.253   5.869 -0.3264 -4.2085  0.2494
22159SOL     OW67927   0.805   8.670   6.736  1.1874  0.1901 -0.9287
22159SOL    HW167928   0.732   8.700   6.790  1.4917  0.2688 -0.5554
22159SOL    HW267929   0.789   8.711   6.650  1.2686  0.9387 -0.5976
22160SOL     OW67930   5.145   2.788   4.479  0.0629 -0.0812  0.0476
22160SOL    HW167931   5.195   2.720   4.525  0.4891  0.3829  0.2793
22160SOL    HW267932   5.201   2.865   4.483 -1.5102  1.0742  2.1743
22161SOL     OW67933   1.547   7.866   3.694  0.8716  0.2601  0.6873
22161SOL    HW167934   1.592   7.948   3.715  0.3389  0.4600  1.0453
22161SOL    HW267935   1.516   7.832   3.778 -2.2829  1.6433  0.2189
22162SOL     OW67936   2.039   6.580   2.665  0.0691  0.2411  0.2362
22162SOL    HW167937   2.041   6.486   2.648 -0.5195  0.5264 -1.5754
22162SOL    HW267938   2.131   6.604   2.678  0.5775 -0.1341 -2.1875
22163SOL     OW67939   7.414   0.774   0.400 -0.2251  0.1751 -0.0700
22163SOL    HW167940   7.322   0.774   0.427 -0.0740 -0.6083  0.4431
22163SOL    HW267941   7.411   0.794   0.306 -0.8459  1.2423  0.1595
22164SOL     OW67942   1.729   5.763   0.172  0.7097 -0.0546  0.0431
22164SOL    HW167943   1.656   5.738   0.115  0.4974 -0.1489  0.3587
22164SOL    HW267944   1.722   5.859   0.178  1.8775  0.1873 -1.6513
22165SOL     OW67945   3.948   1.949   3.812 -0.6788 -0.2212  0.5989
22165SOL    HW167946   3.949   1.999   3.730  2.7491 -1.3994 -0.2398
22165SOL    HW267947   3.998   2.003   3.873  0.7595 -1.3355  0.4679
22166SOL     OW67948   7.958   1.940   2.354  0.4636  0.1169 -0.4063
22166SOL    HW167949   7.967   1.960   2.261 -0.8608  0.9929 -0.3712
22166SOL    HW267950   8.034   1.980   2.395  0.6807  0.3457 -1.0245
22167SOL     OW67951   8.306   6.682   8.577 -0.4045  0.2936 -0.5886
22167SOL    HW167952   8.257   6.693   8.495 -1.4323 -0.6359 -0.1255
22167SOL    HW267953   8.240   6.655   8.641  0.4869  0.4205  0.4084
22168SOL     OW67954   5.565   5.911   5.371 -0.9615  0.0042  0.1826
22168SOL    HW167955   5.552   5.823   5.335 -0.9052 -0.0160  0.2128
22168SOL    HW267956   5.591   5.896   5.462 -0.5223  0.0394  0.0640
22169SOL     OW67957   7.624   7.547   8.975 -0.1788  0.1022  0.1224
22169SOL    HW167958   7.682   7.600   9.030  0.9869 -1.1597  0.1692
22169SOL    HW267959   7.627   7.589   8.889  1.8027 -0.5902 -0.2005
22170SOL     OW67960   4.239   0.772   5.766  0.4108 -0.2976 -0.1937
22170SOL    HW167961   4.174   0.704   5.786  0.5126 -0.4257 -0.3078
22170SOL    HW267962   4.213   0.805   5.680  0.4984 -0.3490 -0.2393
22171SOL     OW67963   2.628   6.995   5.997  0.0312  0.2445 -0.1039
22171SOL    HW167964   2.538   7.009   5.968 -0.0226  0.9832  0.3956
22171SOL    HW267965   2.643   6.901   5.983 -0.9838  0.0099  0.2584
22172SOL     OW67966   2.294   6.920   5.162 -0.2916  0.0544 -0.0190
22172SOL    HW167967   2.219   6.889   5.113 -0.3328  0.5674 -0.2836
22172SOL    HW267968   2.360   6.851   5.151 -0.1346  0.3792 -1.1847
22173SOL     OW67969   6.609   8.963   8.300 -0.2058  0.8179 -0.4284
22173SOL    HW167970   6.531   8.908   8.299  0.4795 -0.3027  1.6019
22173SOL    HW267971   6.602   9.013   8.381  1.4596  0.2108  0.1368
22174SOL     OW67972   1.623   0.911   1.831  0.3136 -0.1607 -0.1276
22174SOL    HW167973   1.627   0.821   1.800  2.1138 -0.2048  0.1196
22174SOL    HW267974   1.582   0.905   1.917 -0.0809 -0.6741 -0.3473
22175SOL     OW67975   5.131   2.592   2.812  0.8970  0.1753 -0.1935
22175SOL    HW167976   5.183   2.520   2.776  0.6746  0.3610 -0.9040
22175SOL    HW267977   5.098   2.558   2.895 -0.7710 -1.2753 -1.3743
22176SOL     OW67978   7.871   2.481   2.977 -0.1497  0.5340 -0.5567
22176SOL    HW167979   7.936   2.415   3.001 -0.5981  0.5501  0.7750
22176SOL    HW267980   7.788   2.446   3.007 -0.2522  2.1723  1.2860
22177SOL     OW67981   1.785   7.468   5.611  0.0349 -0.0859  0.3093
22177SOL    HW167982   1.751   7.454   5.522  1.4182  0.9473 -0.4342
22177SOL    HW267983   1.775   7.384   5.654 -0.2981 -0.7267 -0.9624
22178SOL     OW67984   1.470   8.965   2.155  0.2489 -0.3894  0.4688
22178SOL    HW167985   1.431   9.006   2.232 -1.9970 -0.4770 -0.5662
22178SOL    HW267986   1.470   9.033   2.088 -2.3672 -1.5823 -0.8872
22179SOL     OW67987   3.877   6.619   7.744 -0.4027  0.0848 -0.1687
22179SOL    HW167988   3.863   6.567   7.823  0.8735  0.8089  0.5636
22179SOL    HW267989   3.791   6.623   7.703 -1.3270  0.4966  1.6857
22180SOL     OW67990   7.246   5.666   3.840  0.2118 -0.2230 -0.2479
22180SOL    HW167991   7.239   5.621   3.756  0.1332 -2.3434  0.8253
22180SOL    HW267992   7.158   5.662   3.877  0.5198 -0.4442  0.4775
22181SOL     OW67993   3.031   6.370   4.416  0.1545  0.2750 -0.2227
22181SOL    HW167994   2.980   6.290   4.405  2.4806 -1.1620 -1.4010
22181SOL    HW267995   3.099   6.347   4.479  0.4844  1.5160 -0.0987
22182SOL     OW67996   1.484   6.643   2.329  0.0560 -0.6012 -0.0931
22182SOL    HW167997   1.559   6.604   2.284  1.6569 -0.0658  1.9274
22182SOL    HW267998   1.466   6.582   2.401 -0.8662 -0.2500 -0.0110
22183SOL     OW67999   0.107   1.703   1.476  0.2285 -0.2292 -0.1761
22183SOL    HW168000   0.178   1.727   1.416  0.3228  1.4835  0.5470
22183SOL    HW268001   0.030   1.746   1.439  0.3317  1.0396  1.0059
22184SOL     OW68002   7.956   6.663   5.171  0.5782  0.3863  0.6712
22184SOL    HW168003   8.005   6.616   5.104 -0.0152  1.4840 -0.5876
22184SOL    HW268004   7.893   6.599   5.205  1.1770 -0.3050  0.4808
22185SOL     OW68005   7.509   8.546   7.404  0.6319 -0.2781 -0.4970
22185SOL    HW168006   7.448   8.619   7.419 -0.7918 -0.7648 -3.3140
22185SOL    HW268007   7.474   8.474   7.456  0.0372  0.0776 -0.3953
22186SOL     OW68008   8.482   3.220   2.021 -0.7797  0.2056 -0.5486
22186SOL    HW168009   8.554   3.191   2.077 -0.5009 -1.5359 -1.7375
22186SOL    HW268010   8.414   3.249   2.083  0.4698  0.7417  0.6089
22187SOL     OW68011   2.241   7.437   8.092  0.3646 -0.1278  0.0324
22187SOL    HW168012   2.334   7.459   8.082  0.7511 -1.6955  0.0179
22187SOL    HW268013   2.231   7.413   8.184 -0.1964  0.7166  0.2061
22188SOL     OW68014   3.289   0.822   5.873 -0.1720  0.3369 -0.4773
22188SOL    HW168015   3.236   0.747   5.846  1.3396 -1.0375  0.2068
22188SOL    HW268016   3.363   0.823   5.812  0.0352  1.0392 -0.2313
22189SOL     OW68017   1.270   1.090   1.794 -0.1617 -0.7378  0.7140
22189SOL    HW168018   1.253   0.997   1.809 -1.8618 -0.4847  0.5003
22189SOL    HW268019   1.252   1.104   1.701 -0.8901 -0.0182  0.9457
22190SOL     OW68020   8.555   2.323   2.114 -0.2750 -0.1628 -0.5486
22190SOL    HW168021   8.524   2.405   2.075 -0.1534  0.8572  1.3872
22190SOL    HW268022   8.611   2.285   2.047 -1.5923  0.5085 -2.1207
22191SOL     OW68023   4.635   2.009   3.573 -0.4192  0.4557 -0.5593
22191SOL    HW168024   4.708   1.954   3.601 -2.0345 -0.7754  1.6168
22191SOL    HW268025   4.641   2.087   3.629 -1.3951 -0.2126  0.5412
22192SOL     OW68026   4.521   2.223   6.873  0.4159 -0.2117  0.2663
22192SOL    HW168027   4.435   2.227   6.830  0.5635 -0.1296 -0.0204
22192SOL    HW268028   4.566   2.150   6.830  0.8631  0.3717 -0.2772
22193SOL     OW68029   5.878   6.764   4.600 -0.0434  0.0588  0.2384
22193SOL    HW168030   5.787   6.786   4.618  0.1285 -0.0609  1.3142
22193SOL    HW268031   5.927   6.797   4.676  0.6122 -1.1889  0.4015
22194SOL     OW68032   8.804   4.036   0.401  0.7898  0.0583  0.8490
22194SOL    HW168033   8.722   4.060   0.358  0.1400 -1.9657  0.8623
22194SOL    HW268034   8.800   4.080   0.486 -1.1351 -1.3682  1.5757
22195SOL     OW68035   3.839   5.938   3.944  0.1623 -0.1786 -0.5196
22195SOL    HW168036   3.788   6.014   3.919  0.3596  0.1483  0.0540
22195SOL    HW268037   3.927   5.972   3.961 -0.0004 -0.3374  0.7679
22196SOL     OW68038   9.197   5.368   3.875  0.0430  0.2809  0.5038
22196SOL    HW168039   9.126   5.322   3.830  1.0169  0.1291 -0.9442
22196SOL    HW268040   9.277   5.326   3.843  0.8319  1.1099  1.3221
22197SOL     OW68041   3.961   5.312   0.415  0.1665  0.0495  0.1736
22197SOL    HW168042   3.970   5.279   0.326  0.2505  1.5738 -0.4025
22197SOL    HW268043   3.889   5.375   0.411  0.8336  0.8946  0.9416
22198SOL     OW68044   6.378   4.681   7.149  0.6652 -0.3202 -0.0504
22198SOL    HW168045   6.387   4.661   7.242  0.0190 -0.6391 -0.0532
22198SOL    HW268046   6.287   4.659   7.128  0.0969  1.8744 -0.2331
22199SOL     OW68047   0.641   4.850   9.257 -0.1301  0.0445  0.4087
22199SOL    HW168048   0.666   4.789   9.188 -2.2980 -0.8124  0.3269
22199SOL    HW268049   0.675   4.809   9.337 -0.5283 -0.6737  0.2190
22200SOL     OW68050   0.101   5.951   7.435  0.0166  0.1062 -0.0465
22200SOL    HW168051   0.190   5.916   7.430  0.4701  1.2435 -0.0461
22200SOL    HW268052   0.047   5.884   7.393  0.9147 -0.4270 -0.3782
22201SOL     OW68053   3.699   2.612   6.369 -0.1312 -0.2993  0.1889
22201SOL    HW168054   3.649   2.537   6.400 -2.9172  0.8385 -1.1770
22201SOL    HW268055   3.675   2.683   6.428  1.2711 -0.1078  0.5514
22202SOL     OW68056   4.645   3.832   6.287 -0.0014 -0.0800  0.3068
22202SOL    HW168057   4.576   3.806   6.348  0.7974  1.3103  1.8992
22202SOL    HW268058   4.598   3.859   6.208 -1.1149 -1.2868  0.5129
22203SOL     OW68059   1.093   7.008   8.359 -0.4265 -0.0089  0.0568
22203SOL    HW168060   1.008   7.017   8.404 -1.4548 -1.5490 -1.4305
22203SOL    HW268061   1.119   6.917   8.375  0.2279  0.0379 -0.6703
22204SOL     OW68062   5.373   2.778   6.959 -0.1086 -0.1614 -0.2152
22204SOL    HW168063   5.313   2.757   7.030  0.0749 -0.2787 -0.0970
22204SOL    HW268064   5.444   2.714   6.967  0.3118  0.3255 -0.0198
22205SOL     OW68065   7.495   3.256   2.151 -0.0645 -0.7318 -0.2114
22205SOL    HW168066   7.526   3.246   2.240 -0.3848 -1.5216 -0.1866
22205SOL    HW268067   7.409   3.298   2.160 -0.7760 -2.1669 -0.0457
22206SOL     OW68068   6.720   5.368   3.541  0.4547  0.0163 -0.2258
22206SOL    HW168069   6.663   5.310   3.590 -0.6201  1.8658  0.8259
22206SOL    HW268070   6.675   5.381   3.458 -0.0206  0.4421  0.0926
22207SOL     OW68071   3.127   6.907   6.082 -0.3517 -0.3310  0.2434
22207SOL    HW168072   3.208   6.855   6.083  0.4847  0.8818  2.6793
22207SOL    HW268073   3.059   6.846   6.112  0.0463 -0.7996  0.2111
22208SOL     OW68074   0.635   4.287   5.330  0.2585 -0.0289  0.0519
22208SOL    HW168075   0.587   4.205   5.313 -0.7088  0.7570 -1.1785
22208SOL    HW268076   0.721   4.258   5.361 -0.3579 -1.4954  0.4895
22209SOL     OW68077   0.907   0.785   6.692 -0.4072 -0.1645  0.8833
22209SOL    HW168078   0.914   0.729   6.614 -2.2703 -0.5209  0.9148
22209SOL    HW268079   0.938   0.870   6.663 -2.4026  0.1043 -0.7424
22210SOL     OW68080   2.671   5.837   1.292  0.0701 -0.1788  0.2968
22210SOL    HW168081   2.620   5.836   1.211 -1.2803 -1.7445  1.1075
22210SOL    HW268082   2.756   5.800   1.268 -0.4031 -0.8521 -0.3575
22211SOL     OW68083   8.144   8.530   0.109  0.1288 -0.4714 -0.5171
22211SOL    HW168084   8.203   8.583   0.162 -0.8709  0.2619 -0.0983
22211SOL    HW268085   8.180   8.442   0.113 -0.2014 -0.5733  1.8773
22212SOL     OW68086   7.130   6.037   4.738 -0.6223 -0.1367  0.1082
22212SOL    HW168087   7.117   5.962   4.796  2.4419 -0.2397  0.8390
22212SOL    HW268088   7.156   5.999   4.654 -1.2343  0.0823 -0.1847
22213SOL     OW68089   6.729   8.473   8.300 -0.0492 -0.4319 -0.2398
22213SOL    HW168090   6.777   8.520   8.368 -1.2764  1.3763 -0.5445
22213SOL    HW268091   6.645   8.450   8.340 -0.1320 -0.8464 -0.6340
22214SOL     OW68092   6.398   8.870   2.642  0.2377  0.3955  0.0012
22214SOL    HW168093   6.344   8.872   2.563  0.0318 -0.9452  0.0736
22214SOL    HW268094   6.387   8.781   2.675  0.9462  0.7041  1.1075
22215SOL     OW68095   7.296   2.396   2.605  0.0462  0.7521 -0.5725
22215SOL    HW168096   7.298   2.305   2.576  1.7432  0.7681 -0.5582
22215SOL    HW268097   7.256   2.444   2.532 -0.9692  0.0138 -0.5287
22216SOL     OW68098   1.188   3.757   5.197 -0.4706 -0.1808 -0.2400
22216SOL    HW168099   1.270   3.714   5.224 -0.2346  0.2668 -0.2404
22216SOL    HW268100   1.151   3.791   5.278 -0.6083 -0.2909 -0.2553
22217SOL     OW68101   3.420   7.009   2.897 -0.0439  0.3544  0.9090
22217SOL    HW168102   3.413   6.918   2.868 -1.0011  0.7315 -0.1294
22217SOL    HW268103   3.447   7.057   2.818  0.5468  0.9712  1.4650
22218SOL     OW68104   1.028   0.844   0.514 -0.3560 -0.0502  0.2303
22218SOL    HW168105   1.122   0.822   0.514 -0.5411 -0.8846 -0.2563
22218SOL    HW268106   1.021   0.916   0.452  0.0937  0.6220  0.9502
22219SOL     OW68107   3.455   8.046   4.921  0.2424 -0.3869  0.1024
22219SOL    HW168108   3.475   7.965   4.967 -1.2838 -0.9448 -0.1436
22219SOL    HW268109   3.410   8.018   4.842 -1.3160  0.7053  0.5481
22220SOL     OW68110   5.107   8.521   8.761 -0.7320 -0.5277  0.1426
22220SOL    HW168111   5.052   8.537   8.684 -0.0544  0.8227 -0.0795
22220SOL    HW268112   5.195   8.548   8.734 -0.5371  0.2733  1.4838
22221SOL     OW68113   5.246   0.475   8.034  0.0081  0.6742 -0.2110
22221SOL    HW168114   5.275   0.457   7.945 -2.6810 -2.5931 -0.6368
22221SOL    HW268115   5.151   0.468   8.029 -0.1635 -2.6075  3.3344
22222SOL     OW68116   6.677   5.095   2.703 -0.1325  0.1220  0.2605
22222SOL    HW168117   6.596   5.144   2.714 -0.6166 -0.8189  0.9746
22222SOL    HW268118   6.651   5.003   2.705  0.7767 -0.1880 -0.9282
22223SOL     OW68119   4.067   6.041   1.097 -0.0760 -0.0254  0.4926
22223SOL    HW168120   4.125   6.100   1.049 -2.0027  1.1751 -0.4751
22223SOL    HW268121   4.124   5.969   1.124  1.9877  1.4000  0.1996
22224SOL     OW68122   6.825   4.696   2.200  0.1111 -0.3481  0.4425
22224SOL    HW168123   6.731   4.709   2.215  0.2859  3.0153 -0.7381
22224SOL    HW268124   6.867   4.734   2.277  0.5722 -0.7516  0.3977
22225SOL     OW68125   3.314   2.404   5.839  0.2825  0.0233  0.2101
22225SOL    HW168126   3.256   2.331   5.860  0.8581  0.0242  1.9663
22225SOL    HW268127   3.401   2.363   5.831  0.3776  0.3174 -0.2830
22226SOL     OW68128   5.082   1.794   7.206 -0.2359  0.4693  0.3263
22226SOL    HW168129   5.089   1.834   7.293 -0.3293 -0.3275  0.7087
22226SOL    HW268130   5.165   1.747   7.195 -0.3529  0.3130  0.1090
22227SOL     OW68131   0.332   6.403   5.052 -0.6495  0.0828  0.0649
22227SOL    HW168132   0.302   6.472   5.111 -1.9327 -0.6682  0.3402
22227SOL    HW268133   0.400   6.357   5.103 -1.2566 -0.1302  0.7044
22228SOL     OW68134   2.439   3.385   5.570 -0.0972  0.2252  0.5654
22228SOL    HW168135   2.494   3.362   5.645 -0.5901  2.7472  1.8142
22228SOL    HW268136   2.389   3.306   5.552  1.9522 -1.2860  1.1308
22229SOL     OW68137   0.429   5.600   1.574 -0.3451  0.1515 -0.6453
22229SOL    HW168138   0.396   5.538   1.509  0.0679 -1.1395  0.3321
22229SOL    HW268139   0.357   5.608   1.638 -0.3980  0.6784 -0.7735
22230SOL     OW68140   5.997   4.647   5.395  1.0619  0.1780  0.4317
22230SOL    HW168141   5.933   4.619   5.330  0.7129  2.2516 -0.1853
22230SOL    HW268142   6.076   4.597   5.375  0.7491  0.2867 -1.1653
22231SOL     OW68143   5.977   6.097   8.540  0.0962 -0.4970 -0.0430
22231SOL    HW168144   5.917   6.106   8.467  0.6338 -2.2487 -0.7427
22231SOL    HW268145   5.965   6.178   8.591 -2.5189 -0.5977 -0.3679
22232SOL     OW68146   5.157   8.130   0.429  0.0278 -0.9017 -0.3238
22232SOL    HW168147   5.183   8.056   0.485  1.5824 -0.5096 -0.4949
22232SOL    HW268148   5.138   8.090   0.344  0.6629 -1.1350 -0.3589
22233SOL     OW68149   1.687   4.375   2.114  0.0643  0.5514  1.0366
22233SOL    HW168150   1.620   4.442   2.099  0.4196  0.5858 -0.4788
22233SOL    HW268151   1.677   4.314   2.041  0.1185 -0.7762  2.0890
22234SOL     OW68152   1.583   7.351   4.737 -0.1941 -0.3215 -0.2472
22234SOL    HW168153   1.557   7.273   4.689 -0.5382 -0.5409  0.2847
22234SOL    HW268154   1.583   7.323   4.829  1.0222 -0.0849 -0.1464
22235SOL     OW68155   8.791   9.252   3.540  0.6509  0.6604  0.0187
22235SOL    HW168156   8.760   9.242   3.450  1.2899 -0.4948 -0.0942
22235SOL    HW268157   8.875   9.296   3.533  1.2860 -0.5214 -0.0709
22236SOL     OW68158   6.421   1.627   5.354 -0.8026 -0.4429 -0.6175
22236SOL    HW168159   6.428   1.719   5.380 -1.0806 -0.6094  0.0728
22236SOL    HW268160   6.352   1.626   5.287 -1.7354 -0.3243  0.3218
22237SOL     OW68161   7.977   3.149   6.442  0.8067  0.9180 -0.0465
22237SOL    HW168162   7.995   3.062   6.478  0.2303  1.2015  0.9834
22237SOL    HW268163   7.929   3.132   6.361  0.8335  0.2741  0.0641
22238SOL     OW68164   3.778   6.084   5.309 -0.2221 -0.1899  0.2615
22238SOL    HW168165   3.869   6.105   5.290  0.2141 -2.0584  0.1128
22238SOL    HW268166   3.782   6.017   5.377 -1.5240  0.1442  0.7112
22239SOL     OW68167   3.501   7.303   9.036 -0.0744 -0.3375  0.2974
22239SOL    HW168168   3.525   7.359   8.962 -0.4756 -0.0426  0.3857
22239SOL    HW268169   3.580   7.253   9.055 -0.0976 -0.7236 -0.5986
22240SOL     OW68170   7.128   5.689   6.531  0.4114 -0.2835  0.6053
22240SOL    HW168171   7.047   5.657   6.572  0.6886 -0.6380  0.8795
22240SOL    HW268172   7.197   5.636   6.570  1.0297  1.3776  1.9064
22241SOL     OW68173   1.491   4.095   7.658 -0.0053 -0.0094  0.4023
22241SOL    HW168174   1.559   4.047   7.611  0.8811  2.0342 -0.5042
22241SOL    HW268175   1.412   4.080   7.605  0.5713  0.6969 -0.6937
22242SOL     OW68176   1.166   3.246   3.015  0.1008  0.5636  0.0735
22242SOL    HW168177   1.217   3.328   3.013 -1.1240  1.4086  1.3056
22242SOL    HW268178   1.094   3.262   2.954 -0.5699  0.7176  0.8963
22243SOL     OW68179   3.041   3.707   5.257  0.1772  0.5439  0.0844
22243SOL    HW168180   2.952   3.672   5.260  0.9056 -1.3910  0.7188
22243SOL    HW268181   3.069   3.709   5.349  1.0106  0.5133 -0.1636
22244SOL     OW68182   8.386   3.576   0.128 -0.3802 -0.0393 -0.4155
22244SOL    HW168183   8.426   3.496   0.162  0.1171  0.5398  0.4026
22244SOL    HW268184   8.460   3.633   0.109 -0.7555  0.5500 -0.1455
22245SOL     OW68185   0.254   5.113   0.626 -0.1229  0.0941  0.3686
22245SOL    HW168186   0.258   5.115   0.530  1.2796 -1.2632  0.3629
22245SOL    HW268187   0.205   5.033   0.646  0.2336 -0.0199  0.7966
22246SOL     OW68188   6.552   1.451   2.183  0.6515 -0.2732 -0.2578
22246SOL    HW168189   6.631   1.488   2.146  1.7276 -2.3031 -0.1463
22246SOL    HW268190   6.569   1.448   2.278 -0.5749  1.4843  0.0599
22247SOL     OW68191   7.604   7.231   2.709 -0.5279 -0.5196  0.2972
22247SOL    HW168192   7.584   7.189   2.625 -1.8842  0.6379 -0.0118
22247SOL    HW268193   7.642   7.315   2.684 -0.6140 -0.3171  0.8372
22248SOL     OW68194   4.938   0.385   1.183  0.0431 -0.6729  0.5911
22248SOL    HW168195   4.845   0.367   1.169  0.3856 -1.0231 -1.5808
22248SOL    HW268196   4.957   0.345   1.268 -1.5793 -1.4087  0.6563
22249SOL     OW68197   6.991   6.666   4.356 -0.4848  0.3415  0.1466
22249SOL    HW168198   6.926   6.651   4.425 -2.3416 -0.5558 -1.6709
22249SOL    HW268199   6.993   6.761   4.345 -1.7757  0.3788  0.0337
22250SOL     OW68200   6.576   6.253   5.460 -0.1628  0.0362  0.1184
22250SOL    HW168201   6.540   6.171   5.495 -0.4425  0.1821  0.1824
22250SOL    HW268202   6.650   6.273   5.517  0.5958 -0.7503 -0.5797
22251SOL     OW68203   5.895   5.076   4.824 -0.6720  0.2615 -0.3218
22251SOL    HW168204   5.918   5.161   4.859 -3.8828  1.5539 -1.0283
22251SOL    HW268205   5.865   5.094   4.734 -1.9240 -1.4772 -0.3140
22252SOL     OW68206   8.045   6.784   9.270  0.7700  0.6520  0.3393
22252SOL    HW168207   8.047   6.722   9.196 -1.8351  0.9633 -0.1047
22252SOL    HW268208   8.010   6.865   9.232 -0.8908  0.7438  1.9151
22253SOL     OW68209   7.833   1.779   4.267  0.2022  0.2601 -0.6743
22253SOL    HW168210   7.744   1.812   4.266  0.2410  0.5035  1.1745
22253SOL    HW268211   7.826   1.690   4.300  0.6008  0.1163 -0.9622
22254SOL     OW68212   3.502   8.830   0.640  0.5600 -0.2401  0.0910
22254SOL    HW168213   3.454   8.747   0.652  0.8562 -0.4633 -0.2710
22254SOL    HW268214   3.572   8.826   0.705  0.4530 -0.1807  0.2117
22255SOL     OW68215   8.597   1.550   3.736  0.5079  0.2140 -0.0091
22255SOL    HW168216   8.683   1.528   3.700 -0.7684  0.4852 -3.6175
22255SOL    HW268217   8.545   1.471   3.724 -0.4748  0.9217 -0.5978
22256SOL     OW68218   5.114   6.597   5.045  0.3152  0.1519  0.3004
22256SOL    HW168219   5.054   6.545   4.991  0.3402 -1.5893  1.8652
22256SOL    HW268220   5.081   6.587   5.134  2.4761 -0.2554  1.1109
22257SOL     OW68221   8.398   4.886   1.018  0.1071 -0.6611  0.2057
22257SOL    HW168222   8.403   4.791   1.031  2.1785 -0.4417  1.3074
22257SOL    HW268223   8.343   4.917   1.090 -1.3394 -1.0565 -0.6650
22258SOL     OW68224   0.456   8.610   6.557 -0.1696 -0.0625  0.2748
22258SOL    HW168225   0.542   8.568   6.545 -0.5582 -1.0106  0.7617
22258SOL    HW268226   0.462   8.689   6.504  1.0771 -0.0175  0.4345
22259SOL     OW68227   4.773   5.835   1.813 -0.2122  0.2373 -0.2673
22259SOL    HW168228   4.862   5.814   1.842 -0.5885 -1.3233 -0.1324
22259SOL    HW268229   4.752   5.918   1.856  1.2241  0.6945 -0.4213
22260SOL     OW68230   6.301   9.203   5.902 -0.1947  0.1286  0.1621
22260SOL    HW168231   6.378   9.160   5.865 -0.4144 -0.7175  0.6562
22260SOL    HW268232   6.255   9.134   5.950 -0.9840  0.7392  0.3193
22261SOL     OW68233   0.102   6.864   4.167 -0.3105 -0.2538 -0.2915
22261SOL    HW168234   0.117   6.784   4.217 -2.6669  0.9565  2.6774
22261SOL    HW268235   0.180   6.917   4.181 -0.0052 -0.8306  0.2166
22262SOL     OW68236   0.275   6.508   1.278  0.0681 -0.0332 -0.0497
22262SOL    HW168237   0.263   6.566   1.353  0.0776 -1.2230  0.8814
22262SOL    HW268238   0.349   6.452   1.302 -0.0009 -0.5101 -0.9031
22263SOL     OW68239   8.534   3.954   8.614 -0.3312 -0.5592  0.2255
22263SOL    HW168240   8.464   4.018   8.631  0.7788  0.8610 -0.3184
22263SOL    HW268241   8.499   3.900   8.542 -1.4289 -0.8179  0.9244
22264SOL     OW68242   2.154   4.426   4.064  0.0808  0.2250  0.1531
22264SOL    HW168243   2.114   4.452   3.981  0.0183 -0.3896 -0.0155
22264SOL    HW268244   2.221   4.362   4.040 -0.0881 -0.1213  0.5947
22265SOL     OW68245   1.534   6.196   9.208 -0.0319 -0.0754  0.1245
22265SOL    HW168246   1.613   6.159   9.169  0.5177  0.2558  0.9027
22265SOL    HW268247   1.556   6.210   9.300 -0.6006  1.1262  0.0965
22266SOL     OW68248   0.286   2.362   8.761 -0.5316 -0.0006 -0.1117
22266SOL    HW168249   0.246   2.427   8.703 -0.1759 -0.8165 -1.3211
22266SOL    HW268250   0.378   2.361   8.736 -0.2149  0.1319  0.9799
22267SOL     OW68251   5.628   4.798   1.562  0.0601 -0.3534  0.0074
22267SOL    HW168252   5.673   4.715   1.547  0.9803  0.2115 -0.4264
22267SOL    HW268253   5.600   4.826   1.475  0.6437  0.2767  0.0125
22268SOL     OW68254   5.340   4.608   4.026  0.6819 -0.1256 -0.0516
22268SOL    HW168255   5.433   4.594   4.007  1.5538  0.6121  3.0474
22268SOL    HW268256   5.326   4.701   4.006  1.2998  0.3690  1.6349
22269SOL     OW68257   6.861   7.202   8.940  0.0257 -0.2633  0.1666
22269SOL    HW168258   6.915   7.259   8.994  1.7531 -1.3175 -0.3649
22269SOL    HW268259   6.857   7.246   8.855  2.0544 -1.2371 -0.4996
22270SOL     OW68260   7.650   2.021   1.380 -0.1195  0.2464  0.6829
22270SOL    HW168261   7.676   2.076   1.454  0.9287 -0.9807  1.2817
22270SOL    HW268262   7.706   2.049   1.308  0.3925 -0.0029  0.9778
22271SOL     OW68263   0.140   4.016   4.274 -0.5965 -0.4849 -0.2130
22271SOL    HW168264   0.202   3.984   4.209  0.1046 -0.5539  0.4749
22271SOL    HW268265   0.078   4.069   4.224 -0.6537 -1.3456 -1.0828
22272SOL     OW68266   4.671   6.505   5.507 -0.1373  0.0186  0.4762
22272SOL    HW168267   4.628   6.567   5.448 -0.9188  1.1400  2.1609
22272SOL    HW268268   4.638   6.527   5.594  1.4330 -1.1879  1.4354
22273SOL     OW68269   3.836   4.149   2.869 -0.0500 -0.1153 -0.1831
22273SOL    HW168270   3.798   4.152   2.957  0.5944  2.1736  0.0918
22273SOL    HW268271   3.834   4.057   2.845 -3.4640 -0.4498  0.8116
22274SOL     OW68272   3.157   8.950   9.203 -0.2890 -0.0337 -0.0781
22274SOL    HW168273   3.191   8.863   9.223  1.4636  0.3354 -1.1986
22274SOL    HW268274   3.190   8.969   9.116 -0.9377  1.6097  0.0013
22275SOL     OW68275   4.431   9.219   9.158 -0.0622  0.4787  0.8567
22275SOL    HW168276   4.344   9.211   9.197  0.5663 -0.7387  2.0846
22275SOL    HW268277   4.487   9.247   9.230  0.7125  0.4830  0.2641
22276SOL     OW68278   5.441   3.759   3.292  0.2241 -0.1853  0.0033
22276SOL    HW168279   5.525   3.716   3.305  0.5154  0.5247  0.5313
22276SOL    HW268280   5.415   3.790   3.379  0.9491  2.3623 -0.6101
22277SOL     OW68281   8.941   5.235   1.291 -0.0813  0.0703  0.4755
22277SOL    HW168282   9.025   5.273   1.268 -0.3938  0.2691 -0.3812
22277SOL    HW268283   8.929   5.164   1.227 -1.0257  0.7067 -0.0781
22278SOL     OW68284   6.230   1.133   8.900 -0.0216 -0.0615 -0.0205
22278SOL    HW168285   6.277   1.085   8.832  1.0480 -1.9118  1.9159
22278SOL    HW268286   6.241   1.080   8.979 -0.8178  2.2268  1.7287
22279SOL     OW68287   4.369   8.022   4.627 -0.4197  0.9793 -0.1858
22279SOL    HW168288   4.377   8.051   4.536  0.3400 -0.4291 -0.5985
22279SOL    HW268289   4.459   8.011   4.656 -0.6717 -0.0882  0.2178
22280SOL     OW68290   7.425   1.299   5.510  0.3119  0.7997  0.3840
22280SOL    HW168291   7.440   1.234   5.441  2.5185  1.6107  0.0137
22280SOL    HW268292   7.441   1.252   5.591 -0.3909  0.3252  0.2582
22281SOL     OW68293   2.246   8.334   4.792 -0.0628 -0.0570 -0.2511
22281SOL    HW168294   2.257   8.428   4.781 -0.5960 -0.1047 -1.4434
22281SOL    HW268295   2.275   8.316   4.881 -1.3734  1.4700  0.5523
22282SOL     OW68296   1.830   6.834   0.542 -0.2282  0.1492 -0.4183
22282SOL    HW168297   1.847   6.928   0.540 -0.9740  0.3492  1.1451
22282SOL    HW268298   1.871   6.803   0.623 -0.4069 -0.7769 -0.6670
22283SOL     OW68299   3.330   6.669   3.546 -0.7180 -0.2498 -0.5899
22283SOL    HW168300   3.419   6.636   3.533 -1.1888 -1.5705 -0.5265
22283SOL    HW268301   3.338   6.732   3.618  0.2366  0.0283 -0.9158
22284SOL     OW68302   2.699   7.965   3.707  0.1262 -0.1607  0.0276
22284SOL    HW168303   2.736   7.896   3.763  0.8627  0.8087  0.7608
22284SOL    HW268304   2.715   8.046   3.754 -0.6683  0.5423 -0.8615
22285SOL     OW68305   6.661   3.661   8.079  0.4892  0.1279 -0.3927
22285SOL    HW168306   6.571   3.689   8.099 -0.2903 -2.9947  1.0218
22285SOL    HW268307   6.659   3.643   7.985 -0.3380  0.1803 -0.3979
22286SOL     OW68308   4.202   8.097   9.195  0.3478 -0.9472  0.1741
22286SOL    HW168309   4.233   8.039   9.125  0.3458  0.6713 -1.2378
22286SOL    HW268310   4.234   8.184   9.170 -1.1681 -0.0265  1.2523
22287SOL     OW68311   9.228   0.009   8.277  0.8528  0.2294 -0.7585
22287SOL    HW168312   9.218   0.074   8.347 -0.1362 -1.8719  1.1667
22287SOL    HW268313   9.317  -0.025   8.290  0.6136 -0.2700 -0.4062
22288SOL     OW68314   4.129   9.235   7.384 -0.0725 -0.0964  0.0003
22288SOL    HW168315   4.188   9.242   7.309  0.5174  1.3389  0.5668
22288SOL    HW268316   4.097   9.325   7.398 -0.5900 -0.4351  1.1356
22289SOL     OW68317   3.053   5.070   5.578 -0.0144 -0.6870 -0.4177
22289SOL    HW168318   3.039   5.004   5.645  0.1218  1.1108  1.4734
22289SOL    HW268319   2.968   5.078   5.535 -0.4667 -0.9680  0.3994
22290SOL     OW68320   1.709   5.763   3.476  0.0909 -0.4520  1.0080
22290SOL    HW168321   1.747   5.720   3.399  0.0992  0.4170  0.5130
22290SOL    HW268322   1.669   5.692   3.526 -0.6784 -0.9151 -0.2341
22291SOL     OW68323   3.009   4.378   5.010 -0.4125  0.1634 -0.0872
22291SOL    HW168324   3.046   4.344   5.092  0.2847  1.2663  0.0750
22291SOL    HW268325   2.962   4.457   5.036  1.0173  1.3216 -0.9414
22292SOL     OW68326   0.581   7.005   1.954 -0.1027  0.0010  0.2286
22292SOL    HW168327   0.656   6.976   1.902 -0.2952 -0.2118  0.0686
22292SOL    HW268328   0.612   7.001   2.044 -0.6619 -2.4610  0.3890
22293SOL     OW68329   5.761   3.169   0.989 -0.0284  0.3231  0.1347
22293SOL    HW168330   5.815   3.100   1.027 -0.6865 -0.1310  0.2695
22293SOL    HW268331   5.818   3.245   0.986  0.9875 -0.4429 -0.8453
22294SOL     OW68332   1.637   5.324   4.802  0.2376 -0.6670 -0.3543
22294SOL    HW168333   1.617   5.269   4.726 -2.1619  0.1948 -0.4296
22294SOL    HW268334   1.659   5.262   4.871 -3.1428 -1.8885 -0.2163
22295SOL     OW68335   6.913   6.134   3.760  0.2809 -0.0906  0.4601
22295SOL    HW168336   6.896   6.041   3.773  0.1744  0.1115  1.9565
22295SOL    HW268337   6.985   6.154   3.821  0.6415  0.6961 -0.2077
22296SOL     OW68338   2.572   6.749   8.611 -0.5462 -0.5500  0.1518
22296SOL    HW168339   2.597   6.783   8.696  1.1483  1.3197 -1.0099
22296SOL    HW268340   2.510   6.813   8.576 -1.2014 -1.2802 -0.0447
22297SOL     OW68341   8.292   2.500   1.672  0.6337 -0.3536 -0.0457
22297SOL    HW168342   8.285   2.551   1.753  1.0790 -1.3958  0.6726
22297SOL    HW268343   8.376   2.527   1.634  0.1651  0.5431 -0.4498
22298SOL     OW68344   5.191   0.700   4.103 -0.3420 -0.5404  0.2242
22298SOL    HW168345   5.144   0.641   4.044  1.0767  0.3921 -1.9721
22298SOL    HW268346   5.182   0.786   4.064 -0.0313  0.2714  1.8608
22299SOL     OW68347   5.583   3.053   0.808 -0.0261  0.0285 -0.4308
22299SOL    HW168348   5.613   3.098   0.729 -0.6078  0.5214 -0.3805
22299SOL    HW268349   5.639   3.086   0.878  0.1144  0.0254 -0.5423
22300SOL     OW68350   6.453   8.690   7.456 -0.0767  0.2430  1.2569
22300SOL    HW168351   6.435   8.691   7.550 -1.2594  2.9341  1.1018
22300SOL    HW268352   6.386   8.747   7.418 -1.2184 -2.6405 -1.6034
22301SOL     OW68353   7.131   7.286   3.448  0.5707  0.0122  0.2847
22301SOL    HW168354   7.142   7.355   3.514  1.5060  1.2440 -1.0819
22301SOL    HW268355   7.036   7.277   3.439  0.4268  0.0506  1.5344
22302SOL     OW68356   7.846   4.488   6.801 -0.2706  0.0191  0.4111
22302SOL    HW168357   7.752   4.503   6.804 -0.8770 -1.9835 -3.0707
22302SOL    HW268358   7.864   4.429   6.874 -1.5379  0.8550  1.4461
22303SOL     OW68359   3.341   1.593   8.121 -0.5482  0.0564 -0.1122
22303SOL    HW168360   3.336   1.568   8.213  1.3102  0.7125  0.2267
22303SOL    HW268361   3.368   1.513   8.076  0.1451  0.1085  0.1846
22304SOL     OW68362   4.935   6.828   0.063 -0.1982 -0.8116 -0.0029
22304SOL    HW168363   4.967   6.850  -0.024 -1.5225  0.2086 -0.2556
22304SOL    HW268364   4.994   6.758   0.093  0.2826 -1.1819 -1.7000
22305SOL     OW68365   7.057   2.095   3.747  0.1247  0.1775 -0.0702
22305SOL    HW168366   7.126   2.115   3.810 -0.4537  1.6109  0.1619
22305SOL    HW268367   6.979   2.136   3.784 -0.2952  0.7783 -1.5426
22306SOL     OW68368   2.193   6.754   4.199  0.0210 -0.3701 -0.4705
22306SOL    HW168369   2.255   6.748   4.272  1.2210  0.6393 -1.3709
22306SOL    HW268370   2.247   6.780   4.124 -1.8286  2.9622 -0.7899
22307SOL     OW68371   5.290   6.133   3.070 -0.1495 -0.7219 -0.5421
22307SOL    HW168372   5.287   6.154   3.163 -1.0390  1.7594 -1.0615
22307SOL    HW268373   5.200   6.141   3.040  0.4307  0.8717 -2.0343
22308SOL     OW68374   7.766   3.367   8.762  0.7825  0.1108  0.8610
22308SOL    HW168375   7.788   3.281   8.798  0.0711 -0.6279 -0.3774
22308SOL    HW268376   7.705   3.405   8.825  0.8662 -0.4209  1.2678
22309SOL     OW68377   1.546   5.525   0.396 -0.3566  0.6027 -0.1554
22309SOL    HW168378   1.628   5.540   0.442 -0.6360  1.7791 -0.0033
22309SOL    HW268379   1.541   5.430   0.384  2.0944  0.6265 -2.1089
22310SOL     OW68380   1.731   4.264   9.083 -0.1937  0.1994 -0.0316
22310SOL    HW168381   1.723   4.322   9.159 -1.0891  2.0930 -1.5107
22310SOL    HW268382   1.688   4.183   9.110  1.0999  0.1335  2.0902
22311SOL     OW68383   3.868   8.010   0.416 -0.6223  0.1566  0.4439
22311SOL    HW168384   3.828   7.962   0.489 -0.5139 -0.2780  0.2227
22311SOL    HW268385   3.799   8.014   0.349 -0.5943  0.2089  0.4180
22312SOL     OW68386   0.686   6.938   0.215  0.2655 -0.2416  0.3325
22312SOL    HW168387   0.777   6.968   0.212 -0.2256  1.2056 -1.7515
22312SOL    HW268388   0.687   6.854   0.169  0.7488 -0.9529  1.5801
22313SOL     OW68389   8.538   0.478   6.016 -0.2402  0.3111 -0.0877
22313SOL    HW168390   8.506   0.410   5.956 -0.2659  0.1827  0.0707
22313SOL    HW268391   8.458   0.516   6.054 -0.2079 -1.0570  1.4848
22314SOL     OW68392   2.090   1.552   6.767  0.0899 -0.2109 -1.0971
22314SOL    HW168393   2.000   1.544   6.735 -0.5626 -0.5143  0.6669
22314SOL    HW268394   2.101   1.646   6.784  0.2619 -0.1182 -1.7001
22315SOL     OW68395   1.854   5.941   0.464 -0.2140 -0.0068 -0.1990
22315SOL    HW168396   1.839   5.960   0.371 -0.0914  0.6685 -0.0899
22315SOL    HW268397   1.873   5.848   0.467 -1.0078 -0.1910 -0.7576
22316SOL     OW68398   1.962   2.621   3.301 -0.6751  0.2137  0.0515
22316SOL    HW168399   1.924   2.676   3.233  0.0169  0.5814 -0.0427
22316SOL    HW268400   1.922   2.653   3.382  0.6447  1.7290  0.1569
22317SOL     OW68401   0.530   7.245   5.361 -0.0522  0.0412 -0.2928
22317SOL    HW168402   0.486   7.245   5.445  2.6635  1.0488  1.2641
22317SOL    HW268403   0.558   7.155   5.347 -0.2897 -0.0805  0.0285
22318SOL     OW68404   4.386   1.746   2.533 -0.6285  0.4840  0.2479
22318SOL    HW168405   4.449   1.811   2.565 -0.8589  0.3726  0.9366
22318SOL    HW268406   4.424   1.715   2.450  1.8702 -1.8765  2.1140
22319SOL     OW68407   4.791   1.380   4.242 -0.3661  0.2135  0.3471
22319SOL    HW168408   4.712   1.430   4.258 -0.5066  0.4832 -1.0552
22319SOL    HW268409   4.849   1.441   4.196  0.3611 -0.2104  0.6808
22320SOL     OW68410   1.319   3.851   0.685 -0.2936 -0.0491 -0.4298
22320SOL    HW168411   1.330   3.782   0.751  0.0416  0.9847  0.6227
22320SOL    HW268412   1.231   3.886   0.702 -0.5129 -0.2935 -1.0437
22321SOL     OW68413   3.457   1.583   8.978 -0.3542  0.1011  0.6805
22321SOL    HW168414   3.423   1.496   8.997 -0.2308 -0.1087 -0.0304
22321SOL    HW268415   3.455   1.629   9.062  0.5154 -0.9107  1.2832
22322SOL     OW68416   3.200   7.162   0.894 -0.4557 -0.0199 -0.1768
22322SOL    HW168417   3.170   7.219   0.824  0.3504 -1.0425 -1.3967
22322SOL    HW268418   3.229   7.221   0.963  0.6775  1.0638 -1.5307
22323SOL     OW68419   2.137   8.706   8.433 -0.4968  0.2667  0.4821
22323SOL    HW168420   2.202   8.758   8.386 -1.5608  0.7406 -0.5036
22323SOL    HW268421   2.106   8.764   8.502 -0.0739  0.1243  0.8015
22324SOL     OW68422   4.266   5.087   3.248 -0.3918  0.5458 -0.2220
22324SOL    HW168423   4.322   5.047   3.182 -0.2471  0.7584 -0.2308
22324SOL    HW268424   4.248   5.017   3.310  0.2030  0.5764 -0.0113
22325SOL     OW68425   5.962   1.961   8.544  0.3811  0.3052  0.2388
22325SOL    HW168426   5.900   1.913   8.598  0.4397  0.3410  0.3393
22325SOL    HW268427   6.038   1.973   8.601  0.7575 -0.3514 -0.1133
22326SOL     OW68428   5.039   7.598   8.490  0.9744  0.1598  0.1319
22326SOL    HW168429   4.980   7.626   8.421  1.3432 -0.3614 -0.4014
22326SOL    HW268430   5.116   7.653   8.480  1.6362 -0.8917 -0.8206
22327SOL     OW68431   1.426   5.064   3.902 -0.0095  0.4383 -0.0269
22327SOL    HW168432   1.488   5.014   3.850  0.5047  2.4901 -1.4892
22327SOL    HW268433   1.416   5.012   3.983  2.4724 -0.6716 -0.3290
22328SOL     OW68434   7.528   7.005   7.412  0.1059 -0.9329  0.1533
22328SOL    HW168435   7.622   7.015   7.426  0.3481 -1.4630 -0.9981
22328SOL    HW268436   7.521   6.942   7.340 -1.1189 -0.4092 -0.2119
22329SOL     OW68437   0.108   8.003   0.036  0.0055  0.4009 -0.1879
22329SOL    HW168438   0.189   7.954   0.024 -0.9317 -1.1293 -0.4723
22329SOL    HW268439   0.096   8.051  -0.046 -0.0546 -0.4126 -0.6617
22330SOL     OW68440   8.951   2.801   8.729  0.7315  0.3889  0.2710
22330SOL    HW168441   9.045   2.815   8.715  0.8796  0.5487  1.3031
22330SOL    HW268442   8.917   2.889   8.745  0.7086  0.1729  1.5060
22331SOL     OW68443   6.277   1.282   4.252 -0.0305 -0.9164  0.8992
22331SOL    HW168444   6.222   1.238   4.317  0.3768 -2.3251  0.3335
22331SOL    HW268445   6.344   1.217   4.229 -1.7860 -1.6355 -3.0144
22332SOL     OW68446   5.320   6.969   6.363  0.7559 -0.0264 -0.1867
22332SOL    HW168447   5.346   6.885   6.324 -0.5784 -0.8656  0.6244
22332SOL    HW268448   5.369   6.973   6.445 -0.7113 -1.0709  0.7988
22333SOL     OW68449   8.694   6.601   0.589 -0.4657 -0.0460  0.0743
22333SOL    HW168450   8.703   6.630   0.498  0.1778  2.1189  0.7616
22333SOL    HW268451   8.753   6.658   0.638 -1.0591 -0.9295  1.9013
22334SOL     OW68452   1.622   8.452   9.048  0.3259 -0.9165  0.1248
22334SOL    HW168453   1.587   8.407   8.970 -1.1929  1.7157 -0.8608
22334SOL    HW268454   1.683   8.516   9.013  1.8194 -1.5843  1.4083
22335SOL     OW68455   8.150   7.840   1.502 -0.1841  0.4866 -0.0314
22335SOL    HW168456   8.186   7.790   1.576  1.1943  2.0251  0.3962
22335SOL    HW268457   8.131   7.773   1.436  0.9792 -0.6971  0.7609
22336SOL     OW68458   0.842   7.486   6.664 -0.5558 -0.3044 -0.2427
22336SOL    HW168459   0.891   7.435   6.728 -2.2503 -0.5523  0.8970
22336SOL    HW268460   0.802   7.420   6.607 -1.0728 -0.1690 -0.0342
22337SOL     OW68461   4.224   4.685   6.909 -0.0086 -0.2010  0.0704
22337SOL    HW168462   4.285   4.614   6.891  0.9291  0.0854  1.9479
22337SOL    HW268463   4.180   4.700   6.825  1.4014 -1.4339 -0.9407
22338SOL     OW68464   6.512   2.463   7.639 -0.1459 -0.0860 -0.1286
22338SOL    HW168465   6.551   2.376   7.651  0.1261  0.0486 -0.0437
22338SOL    HW268466   6.540   2.513   7.716 -2.8894 -0.8476  1.5000
22339SOL     OW68467   0.820   6.312   6.837 -0.6605  0.0432 -0.5558
22339SOL    HW168468   0.824   6.394   6.886 -0.3417 -0.4747  0.3057
22339SOL    HW268469   0.803   6.339   6.747  0.0244  1.0930 -0.3935
22340SOL     OW68470   8.810   2.167   5.253  0.0761  0.1386 -0.2199
22340SOL    HW168471   8.736   2.177   5.193 -0.2613  0.5985  0.2633
22340SOL    HW268472   8.886   2.157   5.196 -0.1888  0.9731 -0.7299
22341SOL     OW68473   2.386   5.351   0.477 -0.2498 -0.1746  0.0663
22341SOL    HW168474   2.357   5.395   0.398  0.0779  1.1728  0.6606
22341SOL    HW268475   2.331   5.273   0.484 -3.3063  1.8841  0.7601
22342SOL     OW68476   2.342   8.281   3.122  0.3559 -0.2350  0.2405
22342SOL    HW168477   2.395   8.309   3.197  0.5891  1.9754 -0.6651
22342SOL    HW268478   2.405   8.267   3.051 -0.0228 -0.4098 -0.0701
22343SOL     OW68479   2.860   3.054   8.349 -0.2203  0.3880  0.1283
22343SOL    HW168480   2.951   3.051   8.378 -0.7059 -2.3289  1.7242
22343SOL    HW268481   2.860   3.005   8.267  0.1978  3.2777 -1.7583
22344SOL     OW68482   3.182   3.284   3.748 -0.1991 -0.3098  0.6521
22344SOL    HW168483   3.183   3.189   3.764  0.0763 -0.3328  0.5007
22344SOL    HW268484   3.274   3.307   3.738  0.1908  0.6213  4.5875
22345SOL     OW68485   2.639   7.500   2.966  0.0636 -0.7407  0.4785
22345SOL    HW168486   2.648   7.419   3.017  0.9873 -1.3124 -0.5445
22345SOL    HW268487   2.600   7.472   2.884 -2.2305  0.3011  1.1245
22346SOL     OW68488   8.798   2.178   9.085  0.2429 -0.0722  0.3386
22346SOL    HW168489   8.834   2.097   9.047  1.3381  0.4554  0.2267
22346SOL    HW268490   8.784   2.157   9.178  1.6312 -0.0432  0.5680
22347SOL     OW68491   5.915   8.082   2.855  0.1286 -0.5749 -0.4744
22347SOL    HW168492   5.898   7.991   2.882 -0.0616 -0.6617 -0.8835
22347SOL    HW268493   5.876   8.089   2.768 -0.0900 -0.0217 -0.3325
22348SOL     OW68494   8.895   4.614   0.772  0.0419  0.3535  0.0294
22348SOL    HW168495   8.828   4.570   0.720  1.0496 -1.7718  0.3879
22348SOL    HW268496   8.966   4.632   0.710 -0.1478  1.0098 -0.0037
22349SOL     OW68497   3.157   0.191   4.402 -0.0643 -0.0976 -0.1623
22349SOL    HW168498   3.116   0.228   4.323 -0.3406 -1.0884 -0.4950
22349SOL    HW268499   3.136   0.098   4.398 -0.2175 -0.1386  1.1770
22350SOL     OW68500   8.644   1.086   6.803 -0.1824  0.6404 -0.1225
22350SOL    HW168501   8.712   1.121   6.861  0.6650  0.3002 -0.8691
22350SOL    HW268502   8.689   1.074   6.719 -1.4264  1.3307 -0.9215
22351SOL     OW68503   1.106   6.116   2.447  0.0033  0.0833  0.0863
22351SOL    HW168504   1.022   6.084   2.414  0.1434  0.0623 -0.2579
22351SOL    HW268505   1.152   6.038   2.475  0.3496 -0.0300 -0.7640
22352SOL     OW68506   0.190   3.556   5.678 -0.1554  0.3939  0.1718
22352SOL    HW168507   0.279   3.580   5.650 -0.2265 -0.7441 -1.1398
22352SOL    HW268508   0.203   3.510   5.761  0.7150 -1.3130 -0.8384
22353SOL     OW68509   0.773   4.061   5.895 -0.6896 -0.0761 -0.3008
22353SOL    HW168510   0.778   4.110   5.812 -2.2826  0.6701 -0.0021
22353SOL    HW268511   0.724   4.118   5.953 -0.1856 -0.8932  0.9598
22354SOL     OW68512   8.816   8.509   1.729 -0.0174  0.1206 -0.2432
22354SOL    HW168513   8.821   8.419   1.760 -0.5812  0.4256  0.7881
22354SOL    HW268514   8.803   8.561   1.808  0.3721  1.1191 -0.8152
22355SOL     OW68515   4.194   4.267   4.472  0.2107 -0.5487 -0.4475
22355SOL    HW168516   4.273   4.230   4.432 -0.2667 -2.0124 -0.0984
22355SOL    HW268517   4.123   4.210   4.443 -0.6679  0.5108 -0.4210
22356SOL     OW68518   6.844   1.580   1.501  0.5102 -0.0055 -0.4512
22356SOL    HW168519   6.849   1.675   1.488 -2.4603  0.5636  1.4019
22356SOL    HW268520   6.833   1.544   1.413  0.7546  1.4722 -1.1168
22357SOL     OW68521   4.401   8.589   2.349  0.3421 -1.0674  0.2492
22357SOL    HW168522   4.379   8.679   2.326 -1.4321 -1.2102  1.2324
22357SOL    HW268523   4.495   8.592   2.370  0.4884  0.3700 -0.4789
22358SOL     OW68524   4.494   7.720   3.103 -0.5670 -0.2807 -0.2363
22358SOL    HW168525   4.509   7.642   3.051 -0.8392 -0.8394  0.5086
22358SOL    HW268526   4.434   7.692   3.172  2.8783 -0.6209  2.8658
22359SOL     OW68527   0.873   3.168   1.795  0.9986 -0.4098  0.3353
22359SOL    HW168528   0.879   3.191   1.703  1.1068  0.9057  0.6535
22359SOL    HW268529   0.960   3.132   1.816  1.2455  0.0358  0.1078
22360SOL     OW68530   8.829   6.841   5.839 -0.0673  0.0585 -0.0181
22360SOL    HW168531   8.910   6.891   5.831  0.1003 -0.2709 -0.4048
22360SOL    HW268532   8.823   6.819   5.932  0.0188  0.5290  0.0967
22361SOL     OW68533   1.542   7.296   5.018  0.3302  0.2940  0.3818
22361SOL    HW168534   1.531   7.221   5.078 -2.3695 -0.6541 -1.1039
22361SOL    HW268535   1.480   7.361   5.052  0.3726  0.5904 -0.1203
22362SOL     OW68536   6.551   8.348   8.469 -0.0680 -0.7135 -0.0934
22362SOL    HW168537   6.502   8.284   8.416 -1.5782 -1.0260  1.5749
22362SOL    HW268538   6.636   8.307   8.483 -0.4506 -1.6493 -0.3822
22363SOL     OW68539   6.897   5.723   5.072  0.2041  0.0351 -0.6167
22363SOL    HW168540   6.956   5.771   5.130  1.5830 -2.2521 -0.0010
22363SOL    HW268541   6.894   5.635   5.108 -1.9755 -0.4892 -1.8769
22364SOL     OW68542   1.150   6.951   7.358 -0.0215  0.3870 -0.5152
22364SOL    HW168543   1.147   6.856   7.368  1.2236  0.5274  2.7315
22364SOL    HW268544   1.225   6.967   7.301  0.5416 -0.5692 -0.0649
22365SOL     OW68545   8.638   2.573   6.995  0.4415  0.0561  0.0663
22365SOL    HW168546   8.662   2.652   6.946  0.3055 -0.7639 -1.3733
22365SOL    HW268547   8.715   2.517   6.991  0.4947  0.0450  0.9756
22366SOL     OW68548   2.011   9.100   7.550 -0.0040  0.2606 -0.4558
22366SOL    HW168549   1.928   9.148   7.555 -0.7513 -0.9863 -0.4173
22366SOL    HW268550   2.027   9.071   7.640  0.4144  0.3943 -0.4870
22367SOL     OW68551   4.811   8.665   6.037  0.1608  0.0166  0.1985
22367SOL    HW168552   4.822   8.753   6.001  0.5250  0.3847  1.1746
22367SOL    HW268553   4.786   8.679   6.128 -1.3716 -0.8845 -0.0495
22368SOL     OW68554   6.614   3.121   4.316 -0.0047 -0.3657 -0.0334
22368SOL    HW168555   6.677   3.052   4.335  0.8836  0.4265 -0.0385
22368SOL    HW268556   6.646   3.161   4.235  0.1126  0.7581  0.5500
22369SOL     OW68557   4.881   0.729   6.658  0.3259  0.2735  0.0107
22369SOL    HW168558   4.849   0.640   6.642  2.7367 -0.4526 -1.2490
22369SOL    HW268559   4.905   0.730   6.751 -0.7698  0.0070  0.3119
22370SOL     OW68560   1.578   6.227   0.188  0.1229  0.1148 -0.7836
22370SOL    HW168561   1.640   6.270   0.247  0.4845  1.3767 -2.0033
22370SOL    HW268562   1.496   6.224   0.237  0.8773 -0.6569  0.4814
22371SOL     OW68563   9.245   3.742   1.347 -0.1483  0.6771  0.5269
22371SOL    HW168564   9.208   3.660   1.314 -1.4883  1.0045  1.1552
22371SOL    HW268565   9.333   3.718   1.378  0.5876  0.0677 -1.8143
22372SOL     OW68566   0.815   5.778   2.558 -0.6793 -0.3804  0.1144
22372SOL    HW168567   0.849   5.770   2.469  1.4826  1.0545  0.7499
22372SOL    HW268568   0.741   5.838   2.550  0.2186  0.6571 -0.5562
22373SOL     OW68569   1.465   8.679   1.680  0.5233  0.2311 -0.2289
22373SOL    HW168570   1.530   8.670   1.750  0.0844 -2.7913 -0.0933
22373SOL    HW268571   1.430   8.768   1.691  0.9471  0.1176  2.9659
22374SOL     OW68572   1.338   6.758   2.116  0.2757 -0.0439  0.0416
22374SOL    HW168573   1.391   6.736   2.193  0.3732  0.3986  0.1053
22374SOL    HW268574   1.399   6.805   2.058  0.4710 -1.2057 -0.7385
22375SOL     OW68575   8.127   1.030   2.280 -0.2170 -0.1238  0.2022
22375SOL    HW168576   8.038   0.995   2.286  0.1448 -1.3100 -0.9144
22375SOL    HW268577   8.179   0.971   2.334  0.0392  0.0313  0.1235
22376SOL     OW68578   5.837   4.074   4.103 -0.1033  0.2551  0.4249
22376SOL    HW168579   5.922   4.103   4.134 -0.7730  1.3637  1.3143
22376SOL    HW268580   5.794   4.037   4.181 -1.0746  1.2980  0.4047
22377SOL     OW68581   7.128   7.582   8.848 -0.3169 -0.0950 -0.5048
22377SOL    HW168582   7.109   7.506   8.903  1.3209  1.6771  2.8826
22377SOL    HW268583   7.207   7.558   8.799 -0.9242 -1.2137 -0.9529
22378SOL     OW68584   8.958   2.806   0.370 -0.7726 -0.3086  0.3999
22378SOL    HW168585   9.044   2.805   0.326 -1.2300 -0.8500 -0.5154
22378SOL    HW268586   8.968   2.870   0.440  0.5993 -0.8525  0.7541
22379SOL     OW68587   5.594   5.430   4.463  0.0191 -0.4407  0.4926
22379SOL    HW168588   5.643   5.364   4.415  1.2043  0.1019  0.9200
22379SOL    HW268589   5.596   5.508   4.406  0.2667 -0.2051  0.8194
22380SOL     OW68590   6.685   3.675   2.106  0.3297 -0.5275 -0.2095
22380SOL    HW168591   6.681   3.766   2.135  0.1396 -0.9213  1.0703
22380SOL    HW268592   6.597   3.642   2.118  0.5372 -1.0512 -0.1055
22381SOL     OW68593   0.948   0.320   1.718 -0.4586 -0.2712  0.7731
22381SOL    HW168594   0.890   0.255   1.677 -0.9135 -0.3099  1.4645
22381SOL    HW268595   1.021   0.329   1.656 -0.3486 -1.4972  0.7018
22382SOL     OW68596   5.563   0.127   3.100 -0.5337 -0.2004  0.4415
22382SOL    HW168597   5.639   0.076   3.127 -0.2686  0.4193  0.8840
22382SOL    HW268598   5.523   0.156   3.182 -1.3692 -0.6872  0.2213
22383SOL     OW68599   6.574   0.526   5.400 -0.1662 -0.5152 -0.0055
22383SOL    HW168600   6.648   0.476   5.436 -1.1173 -1.8219  0.2188
22383SOL    HW268601   6.569   0.604   5.455  1.0535 -0.3931 -0.0397
22384SOL     OW68602   4.327   8.769   0.950  0.0766  0.2428 -0.0822
22384SOL    HW168603   4.246   8.807   0.984 -0.1813  1.1666 -1.6699
22384SOL    HW268604   4.379   8.844   0.922  1.6852 -0.3100  1.2626
22385SOL     OW68605   8.891   4.684   4.287  0.2897 -0.3506 -0.2515
22385SOL    HW168606   8.815   4.740   4.305  0.5549  0.3873 -1.2804
22385SOL    HW268607   8.855   4.596   4.279 -0.2941 -0.1716  0.3585
22386SOL     OW68608   5.400   9.007   2.830 -0.1893 -0.6836 -0.4101
22386SOL    HW168609   5.446   9.038   2.908 -1.4492  1.2020 -0.3578
22386SOL    HW268610   5.469   8.996   2.764  0.5917 -0.0249  0.2836
22387SOL     OW68611   3.722   6.665   4.262 -0.5630 -0.5177 -0.4470
22387SOL    HW168612   3.762   6.708   4.337  0.8285 -3.7233  0.8479
22387SOL    HW268613   3.795   6.643   4.205 -1.5385  1.2789 -2.5088
22388SOL     OW68614   2.256   7.553   5.007 -0.0396  0.8762  0.3776
22388SOL    HW168615   2.334   7.499   5.000 -0.0709  0.2908  3.4291
22388SOL    HW268616   2.187   7.499   4.968  0.6712  0.5641 -0.4992
22389SOL     OW68617   5.980   3.469   4.307  0.5155  0.1399 -0.2523
22389SOL    HW168618   6.019   3.507   4.386 -0.0740  1.2144 -0.4679
22389SOL    HW268619   5.905   3.525   4.287  1.6698  0.9997 -2.6004
22390SOL     OW68620   5.334   9.241   0.716 -0.3249  0.3116  0.4265
22390SOL    HW168621   5.245   9.242   0.680 -0.1891 -1.5338 -0.0814
22390SOL    HW268622   5.390   9.245   0.638 -0.0257 -3.0516  0.3082
22391SOL     OW68623   0.716   2.941   1.016 -0.2570  0.6062 -0.0591
22391SOL    HW168624   0.732   2.848   1.000  0.9144  0.9059 -0.7365
22391SOL    HW268625   0.656   2.942   1.091 -1.6340 -0.7270 -1.0797
22392SOL     OW68626   5.610   7.116   3.872 -0.0778  0.1128  0.0869
22392SOL    HW168627   5.535   7.173   3.894  0.3336  0.7177 -0.0589
22392SOL    HW268628   5.666   7.120   3.950  0.5898  0.9612 -0.4160
22393SOL     OW68629   4.283   0.258   2.580 -0.1690 -0.1931  0.0545
22393SOL    HW168630   4.246   0.345   2.563  0.7894  0.5136  1.4089
22393SOL    HW268631   4.217   0.214   2.633 -0.1529  0.1465  0.3619
22394SOL     OW68632   8.428   2.910   5.364 -0.2363 -0.1576 -0.2144
22394SOL    HW168633   8.411   2.870   5.279 -1.7198  0.8995 -0.4503
22394SOL    HW268634   8.473   2.992   5.344  0.3528 -0.3940  0.1007
22395SOL     OW68635   4.743   7.615   1.939  0.5495  0.0974 -0.5262
22395SOL    HW168636   4.685   7.545   1.970  0.8797 -0.0442 -0.2205
22395SOL    HW268637   4.831   7.580   1.951  0.7332  0.7533  0.0879
22396SOL     OW68638   6.573   5.567   8.291  0.3297  0.7418 -0.2661
22396SOL    HW168639   6.618   5.617   8.360  2.8459 -0.1880 -1.1234
22396SOL    HW268640   6.637   5.501   8.263 -2.1081 -1.6878 -0.5975
22397SOL     OW68641   0.268   4.066   3.777  0.4412 -0.2763 -0.3933
22397SOL    HW168642   0.281   3.983   3.732 -0.6304  0.8756 -3.0046
22397SOL    HW268643   0.173   4.070   3.791  0.4568  0.6417 -0.5360
22398SOL     OW68644   4.845   1.064   7.665  0.1113  0.6569 -0.4589
22398SOL    HW168645   4.826   1.140   7.721  1.3557  0.2443  0.5574
22398SOL    HW268646   4.865   0.993   7.726 -4.6459 -1.7022 -1.1395
22399SOL     OW68647   3.167   9.166   4.118 -0.5909 -0.3404 -0.0664
22399SOL    HW168648   3.179   9.071   4.124 -0.2781 -0.3179 -0.3009
22399SOL    HW268649   3.210   9.201   4.197 -0.6426 -0.3877 -0.0170
22400SOL     OW68650   5.114   1.988   6.845 -0.5298 -0.0313 -0.0269
22400SOL    HW168651   5.052   1.941   6.901  0.2564 -1.3370 -0.2228
22400SOL    HW268652   5.194   1.991   6.897 -0.6355  1.3524  0.0883
22401SOL     OW68653   2.057   0.584   2.764  0.3504  0.5778 -0.3946
22401SOL    HW168654   2.053   0.669   2.809 -1.6733  0.8382 -0.9749
22401SOL    HW268655   2.099   0.526   2.828 -1.9591  1.0530  1.7157
22402SOL     OW68656   7.549   7.890   0.211 -0.2458  0.1089 -0.6893
22402SOL    HW168657   7.457   7.877   0.187 -0.3045  1.0615 -1.0290
22402SOL    HW268658   7.546   7.950   0.286  0.1271  1.0792 -1.4261
22403SOL     OW68659   4.178   5.687   6.618  0.0667  0.2862  0.1863
22403SOL    HW168660   4.165   5.776   6.585  0.9408 -0.0372 -1.1303
22403SOL    HW268661   4.256   5.656   6.572  1.0669 -0.4102  2.2486
22404SOL     OW68662   3.761   6.269   8.955 -0.3016 -0.1940  0.2428
22404SOL    HW168663   3.843   6.315   8.974 -1.4554  2.2575 -0.2522
22404SOL    HW268664   3.761   6.259   8.860 -1.5155  1.9032 -0.0386
22405SOL     OW68665   4.828   8.169   1.789  0.7112 -0.5443 -0.1608
22405SOL    HW168666   4.888   8.240   1.764 -0.2858 -0.2819 -2.0421
22405SOL    HW268667   4.880   8.090   1.781  1.8490 -0.0904  1.9811
22406SOL     OW68668   9.069   3.262   4.638  0.2705  0.5150  0.2618
22406SOL    HW168669   9.122   3.183   4.644  1.6627  1.1966 -1.7743
22406SOL    HW268670   9.042   3.266   4.546 -1.6966  1.2450  0.8127
22407SOL     OW68671   6.754   6.632   8.940 -0.3871  0.0902  0.1484
22407SOL    HW168672   6.677   6.678   8.974 -1.1613 -0.8605 -0.2580
22407SOL    HW268673   6.826   6.694   8.950 -0.9511  0.5486  1.7324
22408SOL     OW68674   8.861   3.133   7.393 -0.5990 -0.6911  0.2198
22408SOL    HW168675   8.870   3.145   7.299 -2.8208 -2.6832 -0.3762
22408SOL    HW268676   8.950   3.123   7.425  0.1792 -0.8205 -1.8293
22409SOL     OW68677   3.324   8.184   1.727  0.0626 -0.0970  0.1580
22409SOL    HW168678   3.324   8.099   1.683  0.8822 -0.3041  0.5431
22409SOL    HW268679   3.250   8.179   1.788  0.3456 -0.6858  0.4601
22410SOL     OW68680   0.174   0.298   4.280 -0.6070 -0.3478 -0.2804
22410SOL    HW168681   0.133   0.220   4.319 -0.4387 -0.1157  0.3753
22410SOL    HW268682   0.174   0.363   4.351  0.0021 -0.0216 -0.5732
22411SOL     OW68683   4.776   4.982   1.977 -0.2461 -0.6992  0.7765
22411SOL    HW168684   4.835   5.037   2.027 -1.8316  0.5965  1.3183
22411SOL    HW268685   4.819   4.896   1.974  1.3294  0.0265  1.6679
22412SOL     OW68686   6.536   6.986   3.802 -0.5442  0.0031  0.3900
22412SOL    HW168687   6.577   7.007   3.886 -0.4720  0.4776  0.2421
22412SOL    HW268688   6.535   6.891   3.798  0.4743 -0.0178  0.4310
22413SOL     OW68689   7.030   2.400   4.996 -0.3035  0.1657  0.2434
22413SOL    HW168690   6.969   2.473   4.988  0.1598  0.3546 -2.1391
22413SOL    HW268691   7.112   2.440   5.024 -0.2072  0.5037 -0.4972
22414SOL     OW68692   0.950   7.921   7.888  0.1143 -0.0613  0.0223
22414SOL    HW168693   0.971   7.955   7.801 -0.1205 -0.8205 -0.3448
22414SOL    HW268694   0.976   7.828   7.884  0.8051  0.0683  1.0060
22415SOL     OW68695   6.421   0.642   9.176 -0.1061 -0.0942 -0.2381
22415SOL    HW168696   6.354   0.709   9.168  0.0590  0.2221  0.8563
22415SOL    HW268697   6.454   0.630   9.088  0.0513  1.4558 -0.4116
22416SOL     OW68698   8.059   4.225   4.879  0.3331 -0.1000  0.3794
22416SOL    HW168699   8.147   4.215   4.915  0.5430  1.1289  0.2615
22416SOL    HW268700   8.009   4.153   4.917  1.0635 -0.0366  1.4989
22417SOL     OW68701   8.776   0.128   6.049 -0.2261 -0.8294 -0.2850
22417SOL    HW168702   8.839   0.134   5.978  0.2766  0.8489  0.2649
22417SOL    HW268703   8.692   0.153   6.008 -0.4048 -2.2209 -0.8143
22418SOL     OW68704   8.605   5.783   7.769  0.1346  0.1400 -0.3709
22418SOL    HW168705   8.625   5.780   7.863  0.0603 -1.2741 -0.3852
22418SOL    HW268706   8.666   5.721   7.730 -0.9588 -0.5418 -1.0399
22419SOL     OW68707   7.269   3.385   2.174  0.7406 -0.2622  0.3364
22419SOL    HW168708   7.183   3.350   2.149  0.8961 -0.6564  0.3478
22419SOL    HW268709   7.266   3.476   2.146  0.1651 -0.1591  0.7047
22420SOL     OW68710   0.923   4.977   1.084  0.1256 -0.0610  0.3303
22420SOL    HW168711   0.858   5.047   1.076 -0.0622 -0.2933 -0.2550
22420SOL    HW268712   0.872   4.897   1.089  0.3550 -0.2413 -0.0832
22421SOL     OW68713   2.484   3.822   7.280  0.1896 -0.7204 -0.4384
22421SOL    HW168714   2.557   3.833   7.341 -0.6465  0.0127  0.4623
22421SOL    HW268715   2.498   3.888   7.213 -0.1819  0.1438  0.3035
22422SOL     OW68716   1.796   2.960   6.195 -0.0219 -1.0799 -0.3390
22422SOL    HW168717   1.822   2.885   6.250  0.2478 -2.3494 -2.0928
22422SOL    HW268718   1.780   3.031   6.257  0.3983 -2.3903  1.3562
22423SOL     OW68719   9.021   3.054   1.108 -0.3392 -0.0142 -0.1513
22423SOL    HW168720   8.930   3.083   1.106 -0.0253  0.9665 -0.5644
22423SOL    HW268721   9.037   3.035   1.201 -0.9241 -0.0751 -0.0567
22424SOL     OW68722   3.375   2.408   0.825  0.1237  0.3496 -0.4540
22424SOL    HW168723   3.442   2.424   0.891  0.3126  2.9387 -1.1745
22424SOL    HW268724   3.305   2.470   0.846 -0.5968 -0.0280 -1.6293
22425SOL     OW68725   2.600   5.500   9.067 -0.4238  0.3423  0.3757
22425SOL    HW168726   2.667   5.529   9.006  0.2310 -1.0721  0.4026
22425SOL    HW268727   2.521   5.546   9.038  0.4834  1.9100  0.2547
22426SOL     OW68728   4.481   4.659   1.699 -0.2939 -0.2668  0.6380
22426SOL    HW168729   4.493   4.585   1.759  0.5068  1.4623  2.7292
22426SOL    HW268730   4.482   4.619   1.612  1.7786 -2.5458  1.5833
22427SOL     OW68731   8.822   4.740   0.434 -0.0882 -0.0254  0.0186
22427SOL    HW168732   8.914   4.724   0.453  0.2379  0.6965 -0.8577
22427SOL    HW268733   8.774   4.687   0.498  0.9242  0.6411  1.3695
22428SOL     OW68734   1.608   1.328   1.056  0.6325 -0.0382 -0.3442
22428SOL    HW168735   1.561   1.287   0.983  1.9549 -0.5628 -0.9296
22428SOL    HW268736   1.597   1.422   1.043 -1.3484 -0.1347  0.2875
22429SOL     OW68737   2.102   2.388   2.198  0.1436 -0.3079  0.9999
22429SOL    HW168738   2.062   2.472   2.178 -0.9449 -0.6967  1.4561
22429SOL    HW268739   2.144   2.402   2.283  1.9377  0.3967  0.0578
22430SOL     OW68740   1.287   3.265   3.573  0.2115 -0.7891  0.0341
22430SOL    HW168741   1.317   3.289   3.485  1.4506  0.8631  0.8398
22430SOL    HW268742   1.195   3.291   3.575  0.8260  1.6807 -0.0127
22431SOL     OW68743   8.134   7.904   7.314 -0.2421 -0.5887 -0.2845
22431SOL    HW168744   8.121   7.997   7.334 -0.6397 -1.1684  2.6943
22431SOL    HW268745   8.219   7.900   7.271 -1.0472  1.2831 -2.2357
22432SOL     OW68746   6.248   0.429   6.606  0.3231  0.0075 -0.2269
22432SOL    HW168747   6.194   0.487   6.553  0.6972  2.3733  1.7950
22432SOL    HW268748   6.336   0.465   6.599  0.4636  0.0822  1.5437
22433SOL     OW68749   5.612   2.517   7.485  0.1836 -0.2643  0.1458
22433SOL    HW168750   5.624   2.550   7.396  2.2192 -0.7531  0.1941
22433SOL    HW268751   5.699   2.521   7.524 -0.6514 -0.1481  2.1031
22434SOL     OW68752   7.008   1.819   6.436 -0.1526 -0.6415  0.1003
22434SOL    HW168753   7.045   1.734   6.464  0.7837  0.1298  1.3310
22434SOL    HW268754   6.941   1.838   6.501 -0.6038 -0.5914 -0.3777
22435SOL     OW68755   7.898   8.188   3.082  0.1716 -0.2510 -0.4361
22435SOL    HW168756   7.907   8.127   3.009 -2.5977 -0.8706 -0.3450
22435SOL    HW268757   7.855   8.265   3.043 -1.4902 -0.6585  0.5028
22436SOL     OW68758   6.420   9.227   3.525 -0.0893  0.5226  0.1851
22436SOL    HW168759   6.467   9.234   3.608 -0.6674 -1.8119  0.7993
22436SOL    HW268760   6.476   9.173   3.470 -0.0802  1.3773 -0.6553
22437SOL     OW68761   6.002   0.196   3.204  0.5231  0.4999  0.2805
22437SOL    HW168762   6.006   0.276   3.256  0.6765 -0.4145  1.7195
22437SOL    HW268763   6.090   0.159   3.208  0.4142  0.1566 -0.2390
22438SOL     OW68764   8.722   5.922   2.514 -0.6771 -0.1034 -0.3793
22438SOL    HW168765   8.656   5.948   2.449  1.0004  0.0486 -2.1250
22438SOL    HW268766   8.765   5.846   2.474  2.4685  1.8421 -0.9879
22439SOL     OW68767   4.377   9.098   4.879  0.1909  0.0655 -0.0973
22439SOL    HW168768   4.450   9.044   4.909 -0.1244 -1.0933 -1.2944
22439SOL    HW268769   4.362   9.160   4.950  0.1153 -1.8912  1.6983
22440SOL     OW68770   5.507   0.396   4.089 -0.7075  0.2846  0.2505
22440SOL    HW168771   5.451   0.388   4.012 -1.2158  0.6197  0.5817
22440SOL    HW268772   5.535   0.487   4.089 -0.2180  0.1344  0.1250
22441SOL     OW68773   8.029   4.537   2.635 -0.3267 -0.4050 -0.0877
22441SOL    HW168774   7.964   4.587   2.586 -1.4321 -0.5018  1.2472
22441SOL    HW268775   8.101   4.524   2.572 -1.2050  0.4453 -1.3126
22442SOL     OW68776   9.223   0.015   8.660 -0.3968  0.2087  0.4594
22442SOL    HW168777   9.280   0.064   8.601  0.5589  0.8909  1.9078
22442SOL    HW268778   9.282  -0.040   8.710 -1.0895  0.3120  1.4125
22443SOL     OW68779   0.257   2.459   8.010  0.3522 -0.1416 -0.2155
22443SOL    HW168780   0.296   2.373   8.023  1.1982  0.4396  1.3608
22443SOL    HW268781   0.325   2.510   7.965  1.1345  0.5755  1.6462
22444SOL     OW68782   5.425   8.452   2.852  0.1615 -0.8029 -0.4649
22444SOL    HW168783   5.451   8.507   2.926 -0.1277  1.5908 -2.0425
22444SOL    HW268784   5.334   8.475   2.836  0.1876 -1.3657 -1.4951
22445SOL     OW68785   4.743   6.096   5.678 -0.8428  0.4512  0.1094
22445SOL    HW168786   4.836   6.079   5.697 -0.8221 -0.1219 -0.4856
22445SOL    HW268787   4.708   6.129   5.761  0.1864  1.9213  0.0160
22446SOL     OW68788   1.027   2.383   4.549 -0.4758  0.5014 -0.1036
22446SOL    HW168789   1.013   2.355   4.459 -1.5805 -0.4679  0.3467
22446SOL    HW268790   1.121   2.400   4.554 -0.1757 -0.6878 -1.1019
22447SOL     OW68791   2.370   6.155   5.998  0.1931  0.0224  0.2051
22447SOL    HW168792   2.317   6.077   5.983  0.6672 -0.2094 -0.3074
22447SOL    HW268793   2.380   6.160   6.093  1.4319 -1.4215  0.1962
22448SOL     OW68794   7.301   1.767   0.867  0.7111 -0.5864  0.2527
22448SOL    HW168795   7.336   1.706   0.932  0.9528 -1.9671 -1.1262
22448SOL    HW268796   7.280   1.712   0.791  0.1276  0.9295 -0.7243
22449SOL     OW68797   6.955   2.595   5.545  0.2050  0.3579  0.2767
22449SOL    HW168798   6.918   2.558   5.465 -1.4147  1.3995  0.4881
22449SOL    HW268799   6.961   2.689   5.527 -0.2051  0.6143  1.3644
22450SOL     OW68800   8.506   1.095   1.043  0.6217  0.5389 -0.4454
22450SOL    HW168801   8.430   1.147   1.065 -0.2329 -0.9252  0.2175
22450SOL    HW268802   8.577   1.159   1.032 -0.4392  1.8336  0.0112
22451SOL     OW68803   8.764   8.069   8.749  0.2051  0.2008 -0.1190
22451SOL    HW168804   8.705   8.124   8.698 -0.6954  0.0878  0.7598
22451SOL    HW268805   8.779   8.118   8.830 -0.3172 -0.6531  0.5216
22452SOL     OW68806   4.980   1.093   2.430 -0.8079  0.1650  0.4351
22452SOL    HW168807   4.993   1.098   2.335 -0.3657 -3.6993  0.1249
22452SOL    HW268808   5.057   1.135   2.468 -0.6667  1.1531 -0.8896
22453SOL     OW68809   8.598   4.562   3.321  0.0593  0.6326 -0.3950
22453SOL    HW168810   8.639   4.591   3.403 -0.7881  0.1198  0.2287
22453SOL    HW268811   8.672   4.539   3.264  0.6471 -0.1026  0.6292
22454SOL     OW68812   3.159   1.212   2.293 -0.2727  0.5975  0.1564
22454SOL    HW168813   3.097   1.225   2.364  0.7015  0.2781  1.0855
22454SOL    HW268814   3.129   1.271   2.223 -2.3360 -0.4662  0.0925
22455SOL     OW68815   1.850   0.933   7.270  0.5092 -0.3193 -0.0143
22455SOL    HW168816   1.822   0.846   7.243  1.6011 -0.3096 -1.3083
22455SOL    HW268817   1.779   0.966   7.325 -0.3235 -1.6637 -0.2555
22456SOL     OW68818   7.996   3.369   1.684 -0.4018  0.3334  0.4377
22456SOL    HW168819   7.926   3.331   1.632 -1.5107 -1.2038  2.8858
22456SOL    HW268820   8.067   3.384   1.622 -1.8733 -0.7558 -1.5996
22457SOL     OW68821   5.721   0.821   1.603  0.3877  0.0777  0.2824
22457SOL    HW168822   5.767   0.787   1.679 -1.5977  0.0749  1.5432
22457SOL    HW268823   5.749   0.912   1.596  1.7027 -0.3161  0.0701
22458SOL     OW68824   5.764   8.055   3.864 -0.1816 -0.1344 -0.4809
22458SOL    HW168825   5.845   8.088   3.826 -0.7942  1.0896 -0.8047
22458SOL    HW268826   5.695   8.106   3.820 -1.0140  0.1182  1.0601
22459SOL     OW68827   3.805   4.847   6.583  0.2655  0.4612  0.3326
22459SOL    HW168828   3.811   4.757   6.554 -0.5629 -0.0196  1.5702
22459SOL    HW268829   3.765   4.842   6.670 -4.5595  2.2678 -1.4205
22460SOL     OW68830   8.836   0.425   7.156  0.2105  0.4935 -0.3925
22460SOL    HW168831   8.846   0.480   7.078  0.7827 -0.5826 -1.0952
22460SOL    HW268832   8.846   0.335   7.124  0.6439  0.0403  0.9506
22461SOL     OW68833   1.816   2.391   4.307  0.0663  0.2956  0.3539
22461SOL    HW168834   1.891   2.425   4.258  0.1300 -1.0589 -0.5338
22461SOL    HW268835   1.742   2.445   4.279  0.4074  0.5607 -0.0339
22462SOL     OW68836   8.210   5.821   4.877  0.0075 -0.5116  0.9664
22462SOL    HW168837   8.165   5.740   4.853 -2.7736  0.8003  1.3487
22462SOL    HW268838   8.168   5.849   4.958  2.8738 -0.0794  2.4445
22463SOL     OW68839   8.353   0.783   1.908 -0.4171  0.0536 -0.4409
22463SOL    HW168840   8.349   0.867   1.862  1.3218  0.1202 -0.5328
22463SOL    HW268841   8.392   0.804   1.993 -0.5057 -0.5752 -0.2426
22464SOL     OW68842   2.039   7.952   0.855  0.2278 -0.1768 -0.0439
22464SOL    HW168843   1.959   8.003   0.844  0.3507 -0.5097 -3.5612
22464SOL    HW268844   2.076   7.946   0.767  3.2884 -1.4292  1.2012
22465SOL     OW68845   5.595   7.718   7.740  0.0831 -0.6028 -0.1971
22465SOL    HW168846   5.517   7.687   7.694  0.3983 -1.5926 -0.0734
22465SOL    HW268847   5.563   7.745   7.826 -0.2089 -0.4954 -0.3370
22466SOL     OW68848   6.187   5.080   8.240  0.2143  0.2851 -0.3555
22466SOL    HW168849   6.204   5.093   8.333  1.0665  0.9703 -0.5854
22466SOL    HW268850   6.205   5.165   8.200 -3.1585  0.9254 -0.7866
22467SOL     OW68851   5.794   5.267   2.074 -0.1572  0.4334 -0.3691
22467SOL    HW168852   5.715   5.295   2.120 -0.3759  0.7448 -0.9191
22467SOL    HW268853   5.796   5.322   1.995  2.5732  3.0891  1.3273
22468SOL     OW68854   2.640   4.746   2.592  0.0787  0.1326  0.5606
22468SOL    HW168855   2.627   4.653   2.611 -1.5592  0.3624  0.6683
22468SOL    HW268856   2.571   4.791   2.641  0.6266  1.3830  0.2262
22469SOL     OW68857   2.672   7.108   1.700 -0.2831  0.5676 -0.3344
22469SOL    HW168858   2.719   7.093   1.782 -0.0061 -0.0174 -0.5920
22469SOL    HW268859   2.602   7.043   1.700  1.2406 -1.2310 -1.7033
22470SOL     OW68860   8.294   8.599   1.846  0.3554  0.0937  0.4712
22470SOL    HW168861   8.242   8.560   1.776  0.5500  1.1722 -0.3109
22470SOL    HW268862   8.328   8.525   1.896  0.2395 -0.7052 -0.6116
22471SOL     OW68863   0.309   7.713   5.024  0.1154 -0.0447 -0.3651
22471SOL    HW168864   0.274   7.628   4.997 -0.1812 -0.2018  0.4672
22471SOL    HW268865   0.329   7.701   5.117  0.3219  0.7180 -0.3085
22472SOL     OW68866   1.900   5.369   6.859  0.2208 -0.0815  0.6000
22472SOL    HW168867   1.988   5.365   6.822 -0.4152  2.0497 -1.3639
22472SOL    HW268868   1.887   5.460   6.883 -1.5314 -0.2968  0.6293
22473SOL     OW68869   2.378   6.513   6.834  0.2080  0.0260 -0.0636
22473SOL    HW168870   2.418   6.514   6.748 -0.2538  0.1320 -0.2817
22473SOL    HW268871   2.420   6.440   6.880  0.5905  0.0922 -0.3112
22474SOL     OW68872   1.969   8.870   7.740 -0.0788  0.6427  0.5915
22474SOL    HW168873   2.003   8.781   7.732 -0.2984  0.7221 -1.9723
22474SOL    HW268874   1.883   8.867   7.698  0.3120  2.2564 -0.4003
22475SOL     OW68875   3.101   6.128   8.240 -0.1912  0.4261  0.0475
22475SOL    HW168876   3.161   6.199   8.262 -0.4492  0.8851 -0.6982
22475SOL    HW268877   3.158   6.052   8.225 -0.0177 -0.1117  2.8411
22476SOL     OW68878   8.529   0.801   0.566  0.1557 -0.4775 -0.6869
22476SOL    HW168879   8.486   0.879   0.601  0.1716 -1.4560  1.6994
22476SOL    HW268880   8.510   0.803   0.473  0.5927  2.6506 -0.8329
22477SOL     OW68881   3.885   2.995   4.074  0.2348 -0.0238  0.6558
22477SOL    HW168882   3.915   2.921   4.021 -0.8256 -0.1268  0.1747
22477SOL    HW268883   3.936   2.989   4.154  2.4249  0.5671 -0.6098
22478SOL     OW68884   4.218   4.291   0.205  0.3416 -0.0953 -0.0032
22478SOL    HW168885   4.283   4.347   0.162  0.5296 -1.2179 -1.2473
22478SOL    HW268886   4.230   4.205   0.166 -0.6936 -0.7605  1.0582
22479SOL     OW68887   3.170   4.386   8.482 -0.6165  0.1788 -0.1933
22479SOL    HW168888   3.240   4.356   8.423 -1.1256 -1.6053  0.0485
22479SOL    HW268889   3.196   4.474   8.507  2.1445 -0.8072  0.7558
22480SOL     OW68890   3.485   1.532   8.609  0.0334  0.2957  0.6310
22480SOL    HW168891   3.576   1.560   8.602 -0.3550  1.4005 -0.2723
22480SOL    HW268892   3.490   1.439   8.634  1.3909  0.4032  0.8033
22481SOL     OW68893   0.568   5.393   9.128 -0.6145  0.1629  0.0722
22481SOL    HW168894   0.515   5.316   9.147 -0.1777 -0.2403 -0.3241
22481SOL    HW268895   0.655   5.371   9.160 -0.8020  1.0477  1.2557
22482SOL     OW68896   0.641   0.821   2.101  0.2674  0.0014 -0.6761
22482SOL    HW168897   0.698   0.857   2.033 -0.8398  1.0795 -1.0824
22482SOL    HW268898   0.662   0.871   2.180  2.1594 -1.8290  0.0541
22483SOL     OW68899   5.284   2.767   1.993  0.6592  0.4087  0.7141
22483SOL    HW168900   5.360   2.710   2.001  2.0654  2.1330  0.4484
22483SOL    HW268901   5.269   2.800   2.082  0.4932  0.3735  0.6984
22484SOL     OW68902   1.498   5.672   5.484 -0.3021  0.0203 -0.1666
22484SOL    HW168903   1.574   5.722   5.512 -0.8637  0.3704  0.7646
22484SOL    HW268904   1.441   5.670   5.560  0.0495 -2.7345  0.1173
22485SOL     OW68905   5.948   2.738   7.048  0.6666 -0.3681 -0.4112
22485SOL    HW168906   5.944   2.699   6.960  0.9003 -0.8752 -0.2032
22485SOL    HW268907   6.040   2.728   7.074  1.0986  1.7088 -0.9563
22486SOL     OW68908   6.036   6.992   6.218  0.2597 -0.2361 -0.0782
22486SOL    HW168909   6.023   7.015   6.310  0.3274  0.0846 -0.1462
22486SOL    HW268910   6.088   7.065   6.183 -1.0605  0.4115 -0.7446
22487SOL     OW68911   7.015   8.294   8.309 -0.3689  0.1940  0.1920
22487SOL    HW168912   6.984   8.377   8.274 -1.3002 -0.1902  0.0596
22487SOL    HW268913   6.996   8.230   8.240  1.4234  0.0425 -0.2004
22488SOL     OW68914   4.291   2.303   7.274  0.2316  0.0860 -0.3983
22488SOL    HW168915   4.304   2.275   7.364 -0.9534  0.2761 -0.1456
22488SOL    HW268916   4.379   2.316   7.239  0.6993  0.6105  0.9239
22489SOL     OW68917   6.606   4.167   6.094 -0.2571 -0.3947 -0.5276
22489SOL    HW168918   6.607   4.261   6.081 -4.0515 -0.4626 -2.4744
22489SOL    HW268919   6.669   4.133   6.030  1.3599  0.7021  0.3828
22490SOL     OW68920   9.251   8.405   9.022 -0.3053  0.0263  0.0491
22490SOL    HW168921   9.229   8.498   9.016 -0.3194 -0.0768 -2.6613
22490SOL    HW268922   9.177   8.360   8.982  0.1280 -1.0947  0.4744
22491SOL     OW68923   8.426   0.870   2.149 -0.3824  0.3982 -0.1141
22491SOL    HW168924   8.445   0.963   2.159 -0.0045  0.3225 -0.0970
22491SOL    HW268925   8.453   0.831   2.232 -1.0222  0.3442  0.0748
22492SOL     OW68926   3.373   6.422   2.204  0.7585  0.0388 -0.3283
22492SOL    HW168927   3.286   6.461   2.201 -0.1232 -1.6031  1.6639
22492SOL    HW268928   3.381   6.373   2.122 -1.6341 -2.5218  0.8230
22493SOL     OW68929   2.193   7.809   4.645  0.7984 -0.4835 -1.3281
22493SOL    HW168930   2.242   7.888   4.625  1.4259 -0.9770 -1.7665
22493SOL    HW268931   2.116   7.814   4.589 -0.1274  0.7157 -0.0253
22494SOL     OW68932   3.088   4.446   0.181  0.3522 -0.4438  0.6172
22494SOL    HW168933   3.118   4.360   0.151 -0.1972 -1.2526  2.2720
22494SOL    HW268934   2.993   4.442   0.175  0.3348  0.1801  0.3994
22495SOL     OW68935   3.762   0.634   2.321  0.4346 -1.1582 -0.0490
22495SOL    HW168936   3.798   0.719   2.345  1.9116 -0.9297 -2.6967
22495SOL    HW268937   3.696   0.616   2.387 -1.3179  2.9309 -0.4149
22496SOL     OW68938   7.787   0.973   2.023 -0.5722 -0.0288  0.1296
22496SOL    HW168939   7.744   0.939   1.945  0.9495  0.6217 -1.0577
22496SOL    HW268940   7.876   0.993   1.994 -0.6393  2.4935  1.4171
22497SOL     OW68941   2.270   5.281   8.420  0.1602 -0.0755  0.7422
22497SOL    HW168942   2.221   5.200   8.438 -0.9078  0.3592 -0.1071
22497SOL    HW268943   2.253   5.300   8.328 -0.4924  1.6815  1.1797
22498SOL     OW68944   1.736   3.129   6.933  0.3615  0.2571  0.3344
22498SOL    HW168945   1.717   3.051   6.986 -4.3757  0.4451 -0.6627
22498SOL    HW268946   1.776   3.095   6.853 -2.3229 -1.4108 -0.4168
22499SOL     OW68947   3.305   0.240   4.095  0.2820 -0.4154 -0.5614
22499SOL    HW168948   3.233   0.303   4.104 -0.7160 -1.5458 -0.5103
22499SOL    HW268949   3.284   0.191   4.016 -0.4889 -2.6031  0.9252
22500SOL     OW68950   5.905   2.544   4.162  0.1972  0.4891 -0.7848
22500SOL    HW168951   5.988   2.555   4.207  0.7267 -0.9968 -1.3057
22500SOL    HW268952   5.862   2.629   4.167  1.8568  1.3510 -0.7098
22501SOL     OW68953   1.282   5.653   5.659 -0.0248  0.5019 -0.3028
22501SOL    HW168954   1.228   5.726   5.690  0.4761  0.7291  0.0328
22501SOL    HW268955   1.269   5.584   5.724  1.1943  1.0533  0.5443
22502SOL     OW68956   2.584   5.784   7.766  0.4821  0.0972  0.2029
22502SOL    HW168957   2.631   5.703   7.745  0.0139 -0.4049  0.9979
22502SOL    HW268958   2.508   5.784   7.707  0.1697 -0.3499  0.5986
22503SOL     OW68959   1.005   1.546   7.881 -0.5645 -0.1104 -0.4851
22503SOL    HW168960   0.983   1.634   7.914 -1.1779 -0.6343  0.5924
22503SOL    HW268961   1.100   1.547   7.871 -0.5930  0.7711 -0.7828
22504SOL     OW68962   3.140   0.456   6.972  0.3728 -0.4031  0.4234
22504SOL    HW168963   3.050   0.469   6.943  0.5922  1.8223  0.6243
22504SOL    HW268964   3.132   0.402   7.051 -0.8397  0.3249  0.8236
22505SOL     OW68965   5.838   4.908   1.206  0.4248  0.8770 -0.2371
22505SOL    HW168966   5.811   4.974   1.270 -0.0876  1.6914 -1.2660
22505SOL    HW268967   5.775   4.836   1.217 -3.3501  3.2678 -3.5011
22506SOL     OW68968   5.119   1.916   2.118  0.5018  0.1499  0.4675
22506SOL    HW168969   5.036   1.870   2.112  1.9304 -2.4995 -0.6286
22506SOL    HW268970   5.161   1.901   2.033  1.4746  2.8161  0.3690
22507SOL     OW68971   5.070   3.087   6.231  0.5614  0.4211  0.2945
22507SOL    HW168972   5.106   3.072   6.144 -3.6234 -1.0855 -1.4820
22507SOL    HW268973   5.055   3.181   6.235 -0.6279  0.3532 -1.3840
22508SOL     OW68974   5.342   4.698   8.626  0.3787 -0.1041 -0.4600
22508SOL    HW168975   5.429   4.734   8.641  0.3120 -0.1570  0.0649
22508SOL    HW268976   5.291   4.726   8.702 -0.2057  0.3759 -1.0231
22509SOL     OW68977   3.136   0.897   7.243  0.0738  0.3991 -0.2848
22509SOL    HW168978   3.209   0.958   7.239  1.6260 -1.3783 -0.6820
22509SOL    HW268979   3.172   0.815   7.209 -1.3282 -1.2686  1.9654
22510SOL     OW68980   5.466   7.136   8.705  0.5012 -0.0779 -0.2144
22510SOL    HW168981   5.389   7.178   8.743  0.5601 -0.0931 -0.0754
22510SOL    HW268982   5.481   7.059   8.761 -0.3652 -1.0089 -1.2248
22511SOL     OW68983   0.928   6.948   3.566  0.6556 -0.6396 -0.2241
22511SOL    HW168984   1.002   6.990   3.611 -0.4504  1.1556  0.0281
22511SOL    HW268985   0.884   6.897   3.634  0.6176 -0.2367  0.0561
22512SOL     OW68986   1.830   8.068   6.223  0.1615 -0.0793 -0.5243
22512SOL    HW168987   1.800   7.982   6.193 -0.4795 -0.3489  0.8198
22512SOL    HW268988   1.749   8.119   6.231  0.4167  0.2649 -0.1401
22513SOL     OW68989   7.825   0.597   5.375  0.1706 -0.3032 -0.4096
22513SOL    HW168990   7.851   0.640   5.456 -1.6221  0.5168 -0.2278
22513SOL    HW268991   7.836   0.664   5.307  1.9499 -1.0706 -0.9569
22514SOL     OW68992   9.053   8.191   7.974 -0.3284  0.0057 -0.2020
22514SOL    HW168993   8.968   8.161   7.942 -0.3457  0.5121 -0.6289
22514SOL    HW268994   9.040   8.283   7.994  0.0654  0.0332 -0.0649
22515SOL     OW68995   2.614   3.917   1.740  0.8057 -0.3390  0.2537
22515SOL    HW168996   2.622   3.831   1.781 -0.1742 -0.2196  0.7357
22515SOL    HW268997   2.537   3.909   1.683  0.7316  0.1967  0.2721
22516SOL     OW68998   8.370   2.116   0.174  0.2307 -0.1870 -0.0529
22516SOL    HW168999   8.284   2.073   0.172 -0.1158  0.4595  0.4236
22516SOL    HW269000   8.411   2.093   0.091  0.4032 -2.1066  0.5180
22517SOL     OW69001   5.615   1.014   0.410  0.3898  0.4573 -0.3804
22517SOL    HW169002   5.688   1.067   0.441  0.9799 -1.0957  1.0153
22517SOL    HW269003   5.592   1.052   0.325  4.5003 -0.5655 -2.1754
22518SOL     OW69004   2.885   1.908   8.304  0.3857 -0.4984  0.0966
22518SOL    HW169005   2.799   1.897   8.264  1.2083 -2.8777 -1.2205
22518SOL    HW269006   2.932   1.966   8.244  0.4742 -1.2111 -0.5371
22519SOL     OW69007   0.265   2.232   2.913 -0.2310 -0.1152 -0.0059
22519SOL    HW169008   0.183   2.230   2.961 -0.4760 -1.5128 -0.4283
22519SOL    HW269009   0.240   2.250   2.822 -0.2164 -1.5873 -0.3330
22520SOL     OW69010   7.508   4.262   2.109 -0.0161 -0.4218  0.3168
22520SOL    HW169011   7.435   4.239   2.166  1.2117 -0.2684  2.0283
22520SOL    HW269012   7.562   4.321   2.161  0.4783  0.8359 -1.5174
22521SOL     OW69013   2.555   6.148   8.885  0.5378 -0.1844 -0.5192
22521SOL    HW169014   2.488   6.086   8.858  1.1465 -1.3385  0.5186
22521SOL    HW269015   2.508   6.230   8.900 -0.5141 -0.7807 -0.5152
22522SOL     OW69016   0.876   9.083   1.617  0.4824 -0.0663 -0.2067
22522SOL    HW169017   0.863   9.149   1.685 -1.1809 -1.9627  1.4347
22522SOL    HW269018   0.921   9.011   1.662 -1.6860 -1.8517 -0.7190
22523SOL     OW69019   7.065   2.977   7.002 -0.1456 -0.4115 -0.4427
22523SOL    HW169020   7.141   3.032   6.985  0.2915 -0.6551  0.6307
22523SOL    HW269021   7.072   2.904   6.941 -0.3219  0.3244 -1.3544
22524SOL     OW69022   6.953   3.261   7.716  0.0894 -0.1907 -1.6090
22524SOL    HW169023   6.981   3.207   7.642  0.7960 -2.0247 -0.0991
22524SOL    HW269024   7.010   3.234   7.788  0.7442  2.8898 -0.8045
22525SOL     OW69025   4.656   8.846   3.251 -0.2422  0.0446  0.0991
22525SOL    HW169026   4.638   8.922   3.306  0.1675 -0.3325  0.7639
22525SOL    HW269027   4.573   8.798   3.248 -0.4426  0.3983 -0.1500
22526SOL     OW69028   3.289   5.814   2.127  0.1042 -0.1266  0.0193
22526SOL    HW169029   3.325   5.831   2.039 -0.5597 -0.2848 -0.2844
22526SOL    HW269030   3.195   5.824   2.117 -0.0079 -0.5354  0.6332
22527SOL     OW69031   8.105   4.761   3.908  0.3033 -0.0723 -0.3669
22527SOL    HW169032   8.136   4.849   3.931  2.3680 -0.0659 -2.6922
22527SOL    HW269033   8.017   4.756   3.944 -0.0626  3.1305 -0.5323
22528SOL     OW69034   9.268   8.887   7.578 -0.1865 -0.0675 -0.1071
22528SOL    HW169035   9.174   8.891   7.563 -0.2668  1.1768  0.6202
22528SOL    HW269036   9.286   8.957   7.640  1.4191  0.5687 -1.2193
22529SOL     OW69037   3.441   3.396   1.645 -0.1197  0.0815  0.1584
22529SOL    HW169038   3.520   3.368   1.691 -0.5127 -1.8081 -0.2345
22529SOL    HW269039   3.460   3.486   1.618  1.9658 -0.3636 -0.0676
22530SOL     OW69040   1.157   9.205   0.945  0.4849 -0.5147  0.2980
22530SOL    HW169041   1.245   9.207   0.908  0.1431  1.0369 -0.5510
22530SOL    HW269042   1.168   9.170   1.033  2.0407  0.1821  0.4142
22531SOL     OW69043   0.150   6.555   4.822  0.1061  0.1570  0.8537
22531SOL    HW169044   0.193   6.479   4.863  0.2367  0.5587  1.4752
22531SOL    HW269045   0.077   6.576   4.881 -0.7135 -0.2694  0.0149
22532SOL     OW69046   5.951   2.127   3.020  0.2052 -0.3878 -0.4182
22532SOL    HW169047   5.892   2.084   2.958  0.1639 -1.6196  0.4455
22532SOL    HW269048   6.021   2.064   3.035 -0.0467 -0.3375  1.1505
22533SOL     OW69049   0.009   0.067   1.309  0.0461 -0.8043 -0.3642
22533SOL    HW169050  -0.071   0.118   1.301  0.5562  0.0042 -0.3447
22533SOL    HW269051   0.061   0.092   1.233  0.5348 -0.8736 -0.0538
22534SOL     OW69052   8.910   7.906   6.876  0.5522  0.1199  0.8083
22534SOL    HW169053   8.857   7.835   6.840 -1.3507  1.1206  1.5121
22534SOL    HW269054   8.932   7.877   6.964  0.3087  0.1579  0.8798
22535SOL     OW69055   9.153   6.186   7.560 -0.0952  0.0242  0.0176
22535SOL    HW169056   9.087   6.251   7.536 -0.4208 -1.2390 -2.8884
22535SOL    HW269057   9.116   6.103   7.531  0.2984 -1.5942  3.6099
22536SOL     OW69058   8.778   8.290   8.235  0.0684  0.7511 -0.0379
22536SOL    HW169059   8.824   8.341   8.301 -1.6977  0.8180  1.1996
22536SOL    HW269060   8.792   8.338   8.154  0.6267  1.7647  0.6323
22537SOL     OW69061   6.730   2.181   9.278  0.3184 -0.1399  0.0228
22537SOL    HW169062   6.730   2.276   9.295 -0.8747 -0.2360  0.6805
22537SOL    HW269063   6.657   2.148   9.331 -0.6325 -1.1316 -1.8394
22538SOL     OW69064   2.005   7.881   4.458  0.6925 -0.1056  0.2963
22538SOL    HW169065   1.915   7.852   4.445  0.4419  0.5569  0.5520
22538SOL    HW269066   2.048   7.867   4.374  0.2018  0.1248  0.0073
22539SOL     OW69067   2.101   4.430   7.875 -0.1012 -0.4908 -0.1433
22539SOL    HW169068   2.149   4.493   7.929 -0.4645 -0.4772  0.1636
22539SOL    HW269069   2.065   4.481   7.803 -2.3509  0.1232  1.3138
22540SOL     OW69070   7.360   6.566   7.153  0.6552  0.3455 -0.2530
22540SOL    HW169071   7.373   6.493   7.093 -0.3405  2.8067 -3.7338
22540SOL    HW269072   7.266   6.567   7.171  0.6525  0.8149 -0.2837
22541SOL     OW69073   4.728   6.679   2.323 -0.2828 -0.0725 -0.3451
22541SOL    HW169074   4.737   6.758   2.376 -1.9383  1.0087 -1.5598
22541SOL    HW269075   4.791   6.618   2.360  0.8061  1.6896  0.8704
22542SOL     OW69076   5.454   4.692   9.282 -0.0618 -0.0502  0.3046
22542SOL    HW169077   5.466   4.663   9.192 -0.2311 -1.9083  0.8328
22542SOL    HW269078   5.514   4.766   9.292 -0.0315  0.1713 -1.3160
22543SOL     OW69079   2.542   6.316   5.268  0.4285  0.3256 -0.6212
22543SOL    HW169080   2.461   6.283   5.229  1.6263 -1.2092 -1.9345
22543SOL    HW269081   2.569   6.387   5.210  0.3052  0.4886 -0.4809
22544SOL     OW69082   8.649   1.044   6.091 -1.0177 -0.0705 -0.2890
22544SOL    HW169083   8.617   1.036   6.001 -0.6668  0.1645 -0.4346
22544SOL    HW269084   8.738   1.009   6.088 -0.7900  0.4890 -0.1586
22545SOL     OW69085   9.205   5.986   8.433  0.2200 -0.0960  0.3152
22545SOL    HW169086   9.119   5.944   8.441  0.4536 -0.6019  0.2380
22545SOL    HW269087   9.236   5.961   8.346 -0.0218  0.9978 -0.0994
22546SOL     OW69088   2.843   7.076   6.143  0.8678 -0.1072 -0.1165
22546SOL    HW169089   2.907   7.018   6.103  2.2692  0.9676  0.4734
22546SOL    HW269090   2.760   7.030   6.134  1.8398 -1.9708 -0.1105
22547SOL     OW69091   2.459   7.658   7.089 -0.1987  0.6579 -0.1228
22547SOL    HW169092   2.428   7.586   7.034  2.1177 -0.8154  0.3807
22547SOL    HW269093   2.442   7.630   7.178  0.4367  0.8599  0.0671
22548SOL     OW69094   2.464   8.767   0.172  0.7597  0.3702  0.5717
22548SOL    HW169095   2.496   8.709   0.102  0.2300  0.0807  0.5598
22548SOL    HW269096   2.374   8.736   0.188  0.9717  0.2516  1.5723
22549SOL     OW69097   7.276   3.260   6.619  0.1128  0.0296  0.2480
22549SOL    HW169098   7.325   3.294   6.544 -0.6532 -0.6524 -0.5843
22549SOL    HW269099   7.251   3.339   6.668  1.2906  0.4400  0.2467
22550SOL     OW69100   4.327   8.305   0.969 -1.0369 -0.3910 -0.3498
22550SOL    HW169101   4.369   8.385   1.000 -1.8133 -0.0893 -0.0646
22550SOL    HW269102   4.399   8.241   0.962 -0.5607  0.0622  0.2941
22551SOL     OW69103   6.089   7.636   4.975 -0.1951 -0.1417 -0.1933
22551SOL    HW169104   6.068   7.697   4.904 -0.7876 -0.5189 -0.3516
22551SOL    HW269105   6.162   7.584   4.941  0.1338  0.2969 -0.1624
22552SOL     OW69106   0.757   8.298   4.598 -0.2776  0.5689  0.0583
22552SOL    HW169107   0.681   8.276   4.544  0.2941 -1.8073  0.1501
22552SOL    HW269108   0.738   8.260   4.684  1.3253 -0.7401 -0.1362
22553SOL     OW69109   6.612   7.881   7.661 -0.0615 -0.2126 -0.1875
22553SOL    HW169110   6.684   7.901   7.720 -0.7621 -0.3297  0.7312
22553SOL    HW269111   6.534   7.915   7.706 -0.8554 -1.9891 -0.1316
22554SOL     OW69112   6.678   0.501   2.484 -0.4121 -0.1941 -0.1320
22554SOL    HW169113   6.667   0.447   2.563 -0.6228  0.0331 -0.0062
22554SOL    HW269114   6.712   0.440   2.419 -2.4310 -0.9575 -0.5449
22555SOL     OW69115   2.667   5.225   7.598  0.1913  1.4335 -0.3882
22555SOL    HW169116   2.614   5.190   7.669  0.9154  0.8098 -0.1319
22555SOL    HW269117   2.685   5.149   7.542  1.4251  1.4587 -0.0658
22556SOL     OW69118   3.613   5.457   9.173  0.5148 -0.2309  0.2770
22556SOL    HW169119   3.618   5.380   9.230 -1.1163 -1.1195 -0.6770
22556SOL    HW269120   3.520   5.462   9.148  0.8347  1.2603 -0.7574
22557SOL     OW69121   8.947   4.602   8.222 -0.2621 -0.5745  0.4338
22557SOL    HW169122   8.983   4.616   8.135  2.3296 -2.3081  1.0693
22557SOL    HW269123   8.985   4.672   8.275 -1.8435  0.4852  0.2050
22558SOL     OW69124   7.745   1.885   1.860  0.5333 -0.2305  0.7415
22558SOL    HW169125   7.715   1.797   1.835 -1.5246  0.3543  0.9871
22558SOL    HW269126   7.833   1.890   1.824 -0.3975 -1.2795 -2.0399
22559SOL     OW69127   4.103   0.426   2.100 -0.0743  0.2234  0.2086
22559SOL    HW169128   4.031   0.442   2.039 -0.6065  1.2896  1.0731
22559SOL    HW269129   4.062   0.428   2.187  0.7721 -0.5953  0.6588
22560SOL     OW69130   2.288   1.412   5.819 -0.5231 -0.1027  0.1974
22560SOL    HW169131   2.246   1.430   5.735 -0.6849 -1.7118 -0.0911
22560SOL    HW269132   2.381   1.428   5.802 -0.7374  1.2966  0.2256
22561SOL     OW69133   7.045   6.943   2.815  0.1365 -0.3648 -0.2783
22561SOL    HW169134   7.014   6.889   2.741  0.4528  0.1575 -0.8002
22561SOL    HW269135   7.140   6.943   2.806  0.1914 -0.4790  0.2666
22562SOL     OW69136   9.201   8.840   8.263 -0.1990  0.5195 -0.0446
22562SOL    HW169137   9.171   8.826   8.173 -0.3995 -0.1775  0.1282
22562SOL    HW269138   9.290   8.805   8.264 -0.2997  0.2682  0.1012
22563SOL     OW69139   6.487   1.469   4.191 -0.4905  0.0334  0.4835
22563SOL    HW169140   6.567   1.421   4.171 -1.2421 -0.9430 -0.2385
22563SOL    HW269141   6.428   1.404   4.230 -0.4627  1.0434  2.3071
22564SOL     OW69142   4.552   3.328   8.736  0.6332  0.2523  0.1299
22564SOL    HW169143   4.598   3.331   8.653  2.3852 -0.0875  1.0331
22564SOL    HW269144   4.460   3.317   8.713  1.0201  0.6925 -1.7485
22565SOL     OW69145   1.442   0.193   0.807 -0.1982 -0.1820  0.1963
22565SOL    HW169146   1.374   0.240   0.855 -0.2411 -0.6873  0.6429
22565SOL    HW269147   1.524   0.219   0.849 -0.0967  0.5068 -0.4080
22566SOL     OW69148   5.931   4.921   3.010  0.1973  0.0162  0.5931
22566SOL    HW169149   5.895   5.002   3.047 -1.8125  0.8788 -2.8225
22566SOL    HW269150   6.025   4.936   3.007  0.1560  1.0017  2.5774
22567SOL     OW69151   7.753   3.967   7.193  0.1310  0.2959 -0.6192
22567SOL    HW169152   7.815   4.037   7.176  0.5606  0.2510  0.7027
22567SOL    HW269153   7.723   3.941   7.106  0.8475  1.3099 -1.1928
22568SOL     OW69154   6.972   2.486   1.123  0.5793 -0.0131 -0.0730
22568SOL    HW169155   7.051   2.494   1.071  1.3789 -1.2545  0.8876
22568SOL    HW269156   6.917   2.559   1.095  1.0075 -0.5346 -2.5220
22569SOL     OW69157   7.700   7.426   6.732  0.2673  0.0992  0.0254
22569SOL    HW169158   7.687   7.504   6.785 -0.7680 -1.5248  2.3660
22569SOL    HW269159   7.618   7.418   6.682 -0.3947 -0.4090  1.1476
22570SOL     OW69160   9.129   2.687   1.389  0.5183  0.4473 -0.7171
22570SOL    HW169161   9.187   2.672   1.464 -0.0748  0.0414 -0.3268
22570SOL    HW269162   9.162   2.629   1.321 -1.3585 -2.3275  0.5594
22571SOL     OW69163   2.506   3.055   2.847 -0.1588 -0.2399  0.2958
22571SOL    HW169164   2.489   2.972   2.891 -0.8757 -0.2449  0.0234
22571SOL    HW269165   2.597   3.075   2.867 -0.2628 -0.6060  1.1671
22572SOL     OW69166   0.129   3.593   8.046  0.0334  0.3083  0.3061
22572SOL    HW169167   0.092   3.666   7.997  0.9022  0.2446 -0.4680
22572SOL    HW269168   0.086   3.598   8.132 -2.2855 -0.1731 -0.7303
22573SOL     OW69169   8.842   7.355   2.355  0.3878 -0.1016  0.1202
22573SOL    HW169170   8.870   7.444   2.375 -0.6555 -0.3411  3.1011
22573SOL    HW269171   8.917   7.300   2.380 -0.7438 -0.3603  3.4135
22574SOL     OW69172   7.550   4.136   4.431  0.8016  0.5486  0.4845
22574SOL    HW169173   7.521   4.057   4.476  2.8188 -1.0575 -0.8307
22574SOL    HW269174   7.566   4.107   4.341  2.2222  2.3175  0.1186
22575SOL     OW69175   4.674   3.828   3.244 -0.1027 -0.3231  0.1151
22575SOL    HW169176   4.629   3.748   3.216  4.4278 -3.4423  0.6481
22575SOL    HW269177   4.646   3.842   3.334 -1.2676 -1.0251 -0.1187
22576SOL     OW69178   3.289   0.238   2.352 -0.4660  0.2620  0.1342
22576SOL    HW169179   3.228   0.306   2.379  0.0223  0.9815 -0.5605
22576SOL    HW269180   3.366   0.285   2.320 -0.0274 -0.6164 -0.1409
22577SOL     OW69181   2.793   1.052   3.954 -0.1279 -0.4764  0.0432
22577SOL    HW169182   2.849   0.974   3.952  0.2810 -0.1734 -1.2950
22577SOL    HW269183   2.833   1.112   3.892 -1.7850 -0.1407 -0.7648
22578SOL     OW69184   4.369   6.632   4.739  0.4896  0.1717  0.1590
22578SOL    HW169185   4.454   6.660   4.705  0.7480 -0.3400  0.3757
22578SOL    HW269186   4.355   6.686   4.817  1.1844 -0.5907  0.8235
22579SOL     OW69187   3.813   2.917   9.047 -0.2366  0.1224 -0.6487
22579SOL    HW169188   3.831   2.879   9.133 -0.4564 -0.6340 -0.9353
22579SOL    HW269189   3.717   2.922   9.043 -0.2982 -1.1784 -1.4087
22580SOL     OW69190   4.813   1.870   2.850  0.1820 -0.7643  0.1375
22580SOL    HW169191   4.812   1.887   2.756  1.1625  1.5833  0.4709
22580SOL    HW269192   4.906   1.871   2.873  0.0935 -3.3707  0.8703
22581SOL     OW69193   2.862   0.384   0.015 -0.0813  0.4107  1.0202
22581SOL    HW169194   2.900   0.424  -0.063  0.5359  0.2759  1.2490
22581SOL    HW269195   2.834   0.297  -0.014  0.6423  0.1531  1.0790
22582SOL     OW69196   7.236   6.219   0.128 -0.2172  0.4719  0.0186
22582SOL    HW169197   7.176   6.229   0.202 -2.7967  0.4776 -1.9276
22582SOL    HW269198   7.179   6.220   0.051  2.3782  1.0555 -2.0316
22583SOL     OW69199   5.770   6.989   3.703 -0.0178 -0.3407 -0.1768
22583SOL    HW169200   5.717   7.024   3.774  1.6758  1.7622  0.1209
22583SOL    HW269201   5.706   6.959   3.638 -1.5533  0.0675  1.1019
22584SOL     OW69202   7.330   0.749   5.675 -0.2171 -0.3741  0.6811
22584SOL    HW169203   7.298   0.666   5.709 -0.0349 -0.1560  1.4023
22584SOL    HW269204   7.252   0.803   5.665 -0.1398  0.0099  2.0237
22585SOL     OW69205   0.406   2.317   5.351  0.0459 -0.3411  0.2166
22585SOL    HW169206   0.386   2.249   5.287 -1.5676  1.4137 -1.2978
22585SOL    HW269207   0.501   2.321   5.353  0.1487 -0.7287 -1.8207
22586SOL     OW69208   0.234   5.558   5.854 -0.1552  0.4439  0.1567
22586SOL    HW169209   0.186   5.476   5.851 -0.3432  0.5646 -1.8151
22586SOL    HW269210   0.223   5.590   5.944 -0.7394 -1.2707  0.7283
22587SOL     OW69211   0.396   8.798   3.727  0.6777 -0.0771  0.0195
22587SOL    HW169212   0.423   8.714   3.765  0.5925  0.0948  0.4720
22587SOL    HW269213   0.442   8.863   3.779  0.4024  0.1716 -0.0487
22588SOL     OW69214   2.897   2.151   7.633  0.3449  0.9915 -0.1717
22588SOL    HW169215   2.812   2.110   7.617 -0.3971  3.1496 -2.2852
22588SOL    HW269216   2.960   2.081   7.614 -0.8944 -0.4427  0.7377
22589SOL     OW69217   0.569   8.679   4.882 -0.1518 -0.3792  0.1681
22589SOL    HW169218   0.635   8.742   4.852  0.5313 -0.3842  1.5923
22589SOL    HW269219   0.573   8.607   4.818 -1.0503  1.0288 -1.5787
22590SOL     OW69220   8.889   9.069   4.026  0.1526  0.4820 -0.3364
22590SOL    HW169221   8.914   9.134   4.092  2.0488  0.1376 -0.6538
22590SOL    HW269222   8.864   9.120   3.949  0.8591  0.8643 -0.3184
22591SOL     OW69223   1.286   1.188   5.948 -0.2234  0.3268 -0.3668
22591SOL    HW169224   1.226   1.113   5.941  0.7762 -0.9078  2.5442
22591SOL    HW269225   1.372   1.148   5.959  0.4031  1.9023  0.7295
22592SOL     OW69226   3.403   0.924   8.099  0.7471  0.1016  0.0257
22592SOL    HW169227   3.440   0.922   8.187  0.2735  0.6002  0.2462
22592SOL    HW269228   3.433   1.008   8.062  0.2587  0.2793  0.0240
22593SOL     OW69229   5.587   0.443   2.570 -0.3740  0.1297  0.5504
22593SOL    HW169230   5.678   0.419   2.588 -0.6575 -0.4711  1.2663
22593SOL    HW269231   5.564   0.502   2.642 -0.9657 -0.8254  1.1657
22594SOL     OW69232   0.755   9.161   5.904 -0.4335  0.3248 -0.3304
22594SOL    HW169233   0.765   9.079   5.855 -1.1512  0.7228 -1.1529
22594SOL    HW269234   0.796   9.142   5.989 -0.5768 -0.8838 -0.5043
22595SOL     OW69235   1.992   1.588   1.301 -0.2948 -0.2285 -0.6353
22595SOL    HW169236   1.992   1.520   1.368 -1.1043  0.8534  0.5269
22595SOL    HW269237   2.038   1.549   1.226  2.3085 -0.8581  1.1642
22596SOL     OW69238   1.971   0.148   3.996 -0.1200  0.0726  0.4242
22596SOL    HW169239   1.990   0.211   4.066  1.1666 -1.5606  1.6057
22596SOL    HW269240   1.876   0.134   4.003 -0.0849  0.2614  1.5505
22597SOL     OW69241   4.806   6.530   4.896  0.6414 -0.3925 -0.0969
22597SOL    HW169242   4.755   6.499   4.970  0.1372 -0.1610 -0.3425
22597SOL    HW269243   4.858   6.454   4.869  1.8547 -0.1207  1.3246
22598SOL     OW69244   2.252   1.571   5.035 -0.5221 -0.7035 -0.7827
22598SOL    HW169245   2.211   1.631   4.972  1.2311  0.4092 -0.9286
22598SOL    HW269246   2.245   1.485   4.994 -1.4287 -0.3422 -1.4313
22599SOL     OW69247   2.054   7.849   6.405 -0.0319 -0.5126 -0.7342
22599SOL    HW169248   2.004   7.930   6.402 -0.4249 -0.7547 -0.6697
22599SOL    HW269249   2.143   7.875   6.379  0.3254  0.3051  1.1467
22600SOL     OW69250   6.277   0.274   5.431  0.5070  0.1776  0.5726
22600SOL    HW169251   6.223   0.197   5.414 -2.3367  2.0496  0.3875
22600SOL    HW269252   6.319   0.293   5.348 -2.1481  1.1604 -0.6712
22601SOL     OW69253   3.332   0.787   0.204 -0.1123 -0.5618  0.1987
22601SOL    HW169254   3.334   0.883   0.203  1.0343 -0.5599 -1.1988
22601SOL    HW269255   3.242   0.765   0.228 -1.3631  0.9143 -2.6190
22602SOL     OW69256   3.803   7.438   7.497 -0.3053 -0.1959 -0.0819
22602SOL    HW169257   3.878   7.448   7.439 -0.4840  2.3662  0.0105
22602SOL    HW269258   3.832   7.376   7.564  1.1237 -0.5039 -0.9568
22603SOL     OW69259   9.274   4.137   1.494 -0.9654 -0.4943  0.3341
22603SOL    HW169260   9.230   4.222   1.490 -0.9276 -0.3987  1.5526
22603SOL    HW269261   9.220   4.085   1.553 -0.7811 -1.1980 -0.1063
22604SOL     OW69262   3.951   1.593   0.669  0.5563  0.2523  0.2485
22604SOL    HW169263   4.017   1.533   0.633 -0.1123 -0.0087 -0.5683
22604SOL    HW269264   3.987   1.680   0.654  0.1982  0.1627 -1.2984
22605SOL     OW69265   2.277   9.106   2.729  0.1690 -0.1234  0.6519
22605SOL    HW169266   2.296   9.012   2.737 -0.1024 -0.3883 -1.3272
22605SOL    HW269267   2.362   9.147   2.718  0.2367 -0.2174  0.8186
22606SOL     OW69268   3.079   6.653   4.624  0.2607  0.5850 -0.2064
22606SOL    HW169269   2.987   6.627   4.625  0.1634  0.9376  0.5673
22606SOL    HW269270   3.078   6.746   4.647  0.7250  0.9020 -1.3731
22607SOL     OW69271   0.886   2.505   3.833  0.1024  0.5806  0.1544
22607SOL    HW169272   0.953   2.570   3.853  0.7785  0.1052 -0.5110
22607SOL    HW269273   0.888   2.496   3.737  1.1409 -1.5426  0.3047
22608SOL     OW69274   0.553   1.380   7.336  0.2094  0.4948 -0.4778
22608SOL    HW169275   0.628   1.340   7.292  0.1540  1.5725 -1.6047
22608SOL    HW269276   0.563   1.355   7.428  2.3375  1.1925 -0.4714
22609SOL     OW69277   1.620   8.316   1.674  0.7742 -0.3371  0.2705
22609SOL    HW169278   1.628   8.381   1.744  0.9969  0.7745 -0.7614
22609SOL    HW269279   1.620   8.367   1.593  3.0902 -1.7326 -0.7069
22610SOL     OW69280   3.136   5.415   2.150  0.0158  0.2884  0.2185
22610SOL    HW169281   3.227   5.402   2.122 -0.2990 -1.5138 -0.0859
22610SOL    HW269282   3.085   5.406   2.069 -0.5658 -0.4799  0.6671
22611SOL     OW69283   3.724   2.033   0.718  0.0591  0.2011  0.3346
22611SOL    HW169284   3.774   2.112   0.696  1.0802 -0.6701 -0.5292
22611SOL    HW269285   3.675   2.012   0.639 -1.4490  0.8395  1.0601
22612SOL     OW69286   7.487   6.961   2.261 -0.8525  0.3103  0.0105
22612SOL    HW169287   7.503   6.892   2.197 -0.4316 -0.1178  0.5607
22612SOL    HW269288   7.394   6.954   2.281 -0.4729 -1.3393  1.4267
22613SOL     OW69289   8.314   4.585   6.838  0.0808 -1.0980  0.6073
22613SOL    HW169290   8.319   4.603   6.744  1.8336  0.0932  0.8749
22613SOL    HW269291   8.235   4.629   6.867 -0.3741 -1.3198 -0.2630
22614SOL     OW69292   5.785   7.354   2.546  0.2469 -0.2272  0.2947
22614SOL    HW169293   5.847   7.425   2.530  0.3696 -0.1614  1.0258
22614SOL    HW269294   5.711   7.373   2.488  1.2456 -0.7639 -1.2387
22615SOL     OW69295   5.517   5.336   4.986 -0.2503  0.1494  0.1666
22615SOL    HW169296   5.470   5.418   4.969  0.0800  0.4091  0.4851
22615SOL    HW269297   5.563   5.317   4.905  0.3552  0.7422  0.3591
22616SOL     OW69298   3.852   6.645   3.044  0.2398  0.5179  0.3397
22616SOL    HW169299   3.791   6.577   3.073  0.2026  0.8839  1.1483
22616SOL    HW269300   3.859   6.632   2.949  1.3696 -1.5459  0.6398
22617SOL     OW69301   5.095   5.780   9.145  0.1882  0.2334 -0.1329
22617SOL    HW169302   5.068   5.860   9.100 -1.1791  0.0294  0.2739
22617SOL    HW269303   5.056   5.787   9.232  1.7763  0.0540  0.6429
22618SOL     OW69304   4.441   9.250   6.798  0.4000 -0.0013  0.5470
22618SOL    HW169305   4.356   9.274   6.834  0.5675 -0.1837  1.0756
22618SOL    HW269306   4.420   9.191   6.724 -0.1313  3.3423 -2.2234
22619SOL     OW69307   6.990   3.648   2.152 -0.1290  0.0428  0.1363
22619SOL    HW169308   7.004   3.675   2.061 -1.5855  1.5346  0.3026
22619SOL    HW269309   6.897   3.665   2.168 -0.1364 -1.1664  1.6118
22620SOL     OW69310   8.830   6.760   9.040  0.1257  0.1194  0.3563
22620SOL    HW169311   8.904   6.744   9.098 -0.1062  1.5712  1.0907
22620SOL    HW269312   8.868   6.759   8.952  0.8360 -0.0985  0.6615
22621SOL     OW69313   2.953   5.479   5.253  0.2232 -0.0346 -0.1519
22621SOL    HW169314   2.864   5.497   5.221 -0.0682  0.6232  0.9595
22621SOL    HW269315   2.940   5.441   5.340  1.0388  0.5748  0.2527
22622SOL     OW69316   0.074   3.650   4.490  0.5709  0.7279 -0.4485
22622SOL    HW169317   0.045   3.665   4.580  1.6857  1.0399 -0.1376
22622SOL    HW269318   0.167   3.669   4.490  1.2038 -1.9125 -1.0423
22623SOL     OW69319   7.396   5.835   0.558 -0.4708  0.4468 -0.7852
22623SOL    HW169320   7.316   5.791   0.588  0.3089 -1.6457 -1.5268
22623SOL    HW269321   7.436   5.772   0.498  3.5542 -0.2166  2.1698
22624SOL     OW69322   3.285   7.501   8.421  0.1399 -0.2819  0.0582
22624SOL    HW169323   3.273   7.436   8.352 -1.1621 -2.0598  1.8325
22624SOL    HW269324   3.197   7.520   8.452  0.7491 -1.6117  2.9709
22625SOL     OW69325   7.080   4.042   7.415 -0.1259  0.0682  0.2658
22625SOL    HW169326   7.077   4.055   7.320 -0.5650  1.2336  0.4151
22625SOL    HW269327   7.165   4.001   7.431  0.1027  0.1816 -0.6006
22626SOL     OW69328   3.023   8.218   8.103 -0.5761  0.1733  0.5710
22626SOL    HW169329   2.980   8.162   8.039 -1.1828  0.2539  0.9024
22626SOL    HW269330   3.011   8.174   8.187  0.5232 -0.1080  0.5897
22627SOL     OW69331   6.756   2.392   7.490  0.4288 -0.4115 -0.1882
22627SOL    HW169332   6.805   2.348   7.559 -0.1635 -1.0361 -0.1578
22627SOL    HW269333   6.696   2.326   7.457 -1.3332  0.6969  0.6595
22628SOL     OW69334   3.031   7.348   0.295 -0.1638  0.3506 -0.4330
22628SOL    HW169335   3.082   7.410   0.347  0.1054 -0.6961  0.5971
22628SOL    HW269336   2.977   7.403   0.238  1.1920  1.4995 -0.6750
22629SOL     OW69337   2.471   7.221   6.896  0.3985 -0.0408  0.8292
22629SOL    HW169338   2.439   7.140   6.936  0.2687  0.7057  2.3044
22629SOL    HW269339   2.536   7.192   6.832 -0.3413 -1.3495  0.6373
22630SOL     OW69340   4.809   0.587   6.275 -0.3002  0.3087 -0.4628
22630SOL    HW169341   4.810   0.542   6.360  0.5358  0.0978 -0.5748
22630SOL    HW269342   4.865   0.533   6.219 -2.0785 -0.4270 -1.6115
22631SOL     OW69343   3.676   6.663   8.565 -0.0976 -0.5446  0.5203
22631SOL    HW169344   3.735   6.620   8.626  1.7525  2.4719  1.0304
22631SOL    HW269345   3.723   6.664   8.482 -0.8162 -0.8622  0.0906
22632SOL     OW69346   0.985   5.761   2.886  0.0630 -0.0118 -0.3623
22632SOL    HW169347   0.935   5.700   2.833  0.4775 -0.1229 -0.6243
22632SOL    HW269348   1.016   5.709   2.960  1.2510 -0.3745 -1.0889
22633SOL     OW69349   2.914   0.784   3.902  0.1144 -0.1603  0.3581
22633SOL    HW169350   2.995   0.759   3.857  0.1974  0.4436  0.1689
22633SOL    HW269351   2.844   0.748   3.847  0.2240  0.3091 -0.0868
22634SOL     OW69352   9.011   5.306   1.745 -0.1705  0.0977  0.0211
22634SOL    HW169353   9.104   5.323   1.731 -0.3721  1.1859 -0.0621
22634SOL    HW269354   9.008   5.239   1.813  0.6488  1.4957  1.4945
22635SOL     OW69355   3.193   1.681   3.012  0.4378 -0.5069 -0.0628
22635SOL    HW169356   3.162   1.634   2.934  0.2928 -0.9651  0.2645
22635SOL    HW269357   3.282   1.649   3.025 -0.3744 -2.3101  1.3837
22636SOL     OW69358   2.795   3.427   7.273  0.5786  0.2990 -0.3231
22636SOL    HW169359   2.745   3.437   7.192  0.4289 -0.6675 -0.3501
22636SOL    HW269360   2.786   3.335   7.297  0.7306  0.5466  0.7301
22637SOL     OW69361   4.081   3.246   6.146  0.4253 -0.0180 -0.0632
22637SOL    HW169362   4.131   3.190   6.206  1.0276 -0.5473 -1.0439
22637SOL    HW269363   3.997   3.200   6.136  1.2138 -1.2239 -1.5055
22638SOL     OW69364   6.575   5.792   3.016 -0.2353 -0.1080 -0.0879
22638SOL    HW169365   6.565   5.887   3.012 -1.1805 -0.2304 -2.2048
22638SOL    HW269366   6.485   5.758   3.023  0.0369 -0.8454 -0.0083
22639SOL     OW69367   1.671   3.888   4.115 -0.6190 -0.1738  0.1530
22639SOL    HW169368   1.582   3.855   4.108 -1.1283  1.3536 -1.3779
22639SOL    HW269369   1.685   3.936   4.033  2.0311 -1.3304 -0.1761
22640SOL     OW69370   8.128   6.263   4.241  0.0139  0.1056  0.3425
22640SOL    HW169371   8.093   6.325   4.178 -0.3574  0.1850  0.6181
22640SOL    HW269372   8.054   6.207   4.263 -0.7104  1.8757  2.8785
22641SOL     OW69373   2.572   0.360   0.965  0.2159  0.4558  0.3522
22641SOL    HW169374   2.508   0.292   0.944  1.6708 -0.3364 -2.0214
22641SOL    HW269375   2.635   0.317   1.022 -0.4922  0.7651  1.3865
22642SOL     OW69376   0.745   5.252   7.304 -0.4931 -0.4549 -0.0453
22642SOL    HW169377   0.678   5.269   7.237  0.6612  0.9258 -0.8826
22642SOL    HW269378   0.803   5.187   7.265  0.3207  0.5309 -0.5091
22643SOL     OW69379   4.934   3.257   5.402 -0.3743 -0.1718  0.2193
22643SOL    HW169380   4.843   3.269   5.426 -0.2713  2.1818 -0.3083
22643SOL    HW269381   4.974   3.343   5.416  1.8476 -1.2071  0.7152
22644SOL     OW69382   7.252   2.866   1.106  0.2984 -0.3618 -0.3503
22644SOL    HW169383   7.225   2.798   1.167 -0.9856  1.0726  0.7662
22644SOL    HW269384   7.335   2.899   1.141 -0.5587  0.6373  0.8645
22645SOL     OW69385   7.981   0.278   7.506  0.4129 -0.2122  0.0297
22645SOL    HW169386   8.048   0.219   7.473  1.0078  0.6531 -0.3335
22645SOL    HW269387   8.029   0.355   7.537 -0.4372  0.6400 -0.7168
22646SOL     OW69388   5.757   5.678   6.489 -0.1544 -0.6526 -0.0310
22646SOL    HW169389   5.677   5.675   6.436 -0.6509  0.7013  0.5986
22646SOL    HW269390   5.824   5.708   6.428 -0.6347  0.5000 -0.0071
22647SOL     OW69391   5.604   7.237   7.323 -0.1089 -1.1181 -0.0705
22647SOL    HW169392   5.549   7.195   7.257 -2.3744 -0.4505  1.2585
22647SOL    HW269393   5.561   7.216   7.407  2.4239 -1.6200  1.2097
22648SOL     OW69394   0.162   4.868   4.155 -0.3473 -0.9053 -0.5267
22648SOL    HW169395   0.176   4.784   4.111 -0.0276 -0.0306 -2.1387
22648SOL    HW269396   0.223   4.928   4.112 -1.5655  0.4845 -0.3576
22649SOL     OW69397   2.540   8.569   8.165 -0.2679 -0.4121 -0.5846
22649SOL    HW169398   2.449   8.577   8.136 -0.2336  1.1243 -0.3368
22649SOL    HW269399   2.556   8.649   8.216  0.7308 -1.4272  0.7549
22650SOL     OW69400   5.283   1.405   1.734 -0.9121  0.1416  0.2219
22650SOL    HW169401   5.359   1.348   1.726 -0.7523  0.4248 -0.3412
22650SOL    HW269402   5.262   1.430   1.644 -2.3846 -0.8502  0.2486
22651SOL     OW69403   4.870   6.618   0.421  0.4204  0.1799  0.0057
22651SOL    HW169404   4.957   6.626   0.460 -0.4144  0.9474  1.8511
22651SOL    HW269405   4.828   6.702   0.438 -0.4610  0.0687 -1.4753
22652SOL     OW69406   9.031   3.853   4.366 -0.2440 -0.0443  0.0870
22652SOL    HW169407   9.001   3.807   4.287 -1.1160  0.7368 -0.0486
22652SOL    HW269408   9.106   3.904   4.336 -0.3854  0.0186 -0.1701
22653SOL     OW69409   4.669   6.628   7.775 -0.1449 -0.1126  0.0839
22653SOL    HW169410   4.598   6.687   7.801  0.0007  0.5751 -1.0468
22653SOL    HW269411   4.637   6.541   7.800 -1.3728  0.1903 -0.3386
22654SOL     OW69412   4.676   3.384   8.490 -0.1252  0.4518  0.8306
22654SOL    HW169413   4.585   3.405   8.468  0.7923  1.4090 -2.6234
22654SOL    HW269414   4.689   3.296   8.455  0.6002  0.8193  0.1566
22655SOL     OW69415   6.769   0.101   1.235 -1.0764 -0.1254 -0.8173
22655SOL    HW169416   6.678   0.094   1.265 -0.8174  2.2500  0.9211
22655SOL    HW269417   6.783   0.196   1.224  1.6785 -0.2288  0.8043
22656SOL     OW69418   5.070   8.649   0.557  0.7436 -0.1178  0.3037
22656SOL    HW169419   4.981   8.684   0.563  1.1372  1.9280 -3.4174
22656SOL    HW269420   5.059   8.555   0.571 -1.9925  0.0701 -0.0753
22657SOL     OW69421   2.897   2.909   8.127  0.0666 -0.0785  0.5909
22657SOL    HW169422   2.965   2.843   8.115  0.0419  0.1208 -0.8493
22657SOL    HW269423   2.911   2.971   8.056 -1.7561 -0.1700  0.0817
22658SOL     OW69424   1.824   4.335   4.030 -0.1102  0.3880 -0.2806
22658SOL    HW169425   1.731   4.342   4.049  0.2926  2.5131  1.1996
22658SOL    HW269426   1.866   4.395   4.092  2.2539 -0.5722 -0.8554
22659SOL     OW69427   3.200   7.896   2.047 -0.7146  0.1319 -0.3173
22659SOL    HW169428   3.117   7.876   2.090  0.6868 -0.7329  2.2174
22659SOL    HW269429   3.257   7.823   2.070  1.1954  1.4386 -0.7005
22660SOL     OW69430   7.347   8.067   2.627  0.3874 -0.2383 -0.3588
22660SOL    HW169431   7.409   8.111   2.569  1.4674  0.3660  1.1867
22660SOL    HW269432   7.368   7.974   2.618  0.2442 -0.1917 -1.2461
22661SOL     OW69433   0.628   2.629   2.540  0.0931 -0.3970 -0.0371
22661SOL    HW169434   0.673   2.708   2.570  0.5010 -0.6996  0.1639
22661SOL    HW269435   0.540   2.659   2.515 -0.0452 -0.0221  0.8525
22662SOL     OW69436   1.795   5.155   5.776 -0.1672 -0.3877 -0.8092
22662SOL    HW169437   1.720   5.212   5.761 -0.2458 -0.3560 -0.2917
22662SOL    HW269438   1.757   5.071   5.802 -0.0298 -0.4093 -0.6711
22663SOL     OW69439   1.381   3.782   6.744  0.3331 -0.1502  0.3027
22663SOL    HW169440   1.368   3.871   6.713 -0.7255  0.5045  2.4976
22663SOL    HW269441   1.407   3.791   6.836  1.0533 -2.0816  0.3503
22664SOL     OW69442   1.665   8.332   8.596 -0.2403 -0.0772  0.2377
22664SOL    HW169443   1.724   8.270   8.553  0.7473 -0.9070  2.6276
22664SOL    HW269444   1.708   8.417   8.586 -0.6641 -0.0212 -1.4242
22665SOL     OW69445   2.146   8.821   5.338 -0.1074  0.2398  0.2886
22665SOL    HW169446   2.160   8.907   5.298  1.4746  0.9115  2.1708
22665SOL    HW269447   2.096   8.772   5.272 -0.1078  2.2249 -1.2676
22666SOL     OW69448   0.229   2.826   7.251  0.3613 -0.2468  0.2206
22666SOL    HW169449   0.193   2.819   7.340 -0.9980  0.2766 -0.2690
22666SOL    HW269450   0.319   2.857   7.265 -0.1028  0.6662  1.3918
22667SOL     OW69451   0.385   4.794   2.902 -0.8072  0.1772  0.4144
22667SOL    HW169452   0.350   4.817   2.988 -0.6347 -0.6970  0.7266
22667SOL    HW269453   0.471   4.837   2.899 -0.8096  0.2048  0.6859
22668SOL     OW69454   3.436   4.450   3.795 -0.0782 -0.1983  0.2629
22668SOL    HW169455   3.364   4.431   3.734 -0.2754  0.2907  0.3363
22668SOL    HW269456   3.396   4.507   3.861  0.4976  0.4933  0.0304
22669SOL     OW69457   2.994   5.621   6.545  0.0963  0.3405 -0.5421
22669SOL    HW169458   3.030   5.584   6.626 -0.1468  1.6794  0.1904
22669SOL    HW269459   3.056   5.690   6.521 -1.0021  1.4519 -0.2546
22670SOL     OW69460   1.883   6.004   6.869 -0.4699 -0.2185 -0.2483
22670SOL    HW169461   1.821   6.058   6.917  0.0748  1.4669 -1.3698
22670SOL    HW269462   1.960   6.000   6.925 -0.6487 -0.1635  0.0029
22671SOL     OW69463   3.673   1.788   2.766  0.1058  0.3476 -0.4603
22671SOL    HW169464   3.740   1.734   2.808 -0.8140 -0.9418 -0.5581
22671SOL    HW269465   3.717   1.830   2.693  1.4338  1.6212  0.9888
22672SOL     OW69466   2.625   7.970   1.035  0.4230  0.6460 -0.7976
22672SOL    HW169467   2.661   7.909   0.971  0.6062 -1.2243  0.9778
22672SOL    HW269468   2.648   7.932   1.120 -0.4236  2.6438  0.3972
22673SOL     OW69469   1.993   1.965   4.780  0.1155 -0.6857 -0.4815
22673SOL    HW169470   1.973   1.969   4.874  1.6072 -0.7395 -0.1352
22673SOL    HW269471   2.033   2.050   4.761 -2.1433  0.2202 -1.6036
22674SOL     OW69472   3.385   3.757   5.963  0.2176  0.0500  0.1270
22674SOL    HW169473   3.458   3.718   6.010  0.0860 -1.3363 -0.7719
22674SOL    HW269474   3.414   3.759   5.872 -0.0850  1.3881  0.0315
22675SOL     OW69475   8.515   3.350   4.638 -0.7713 -0.0265  0.2108
22675SOL    HW169476   8.521   3.433   4.685  1.6716  0.2025 -0.3852
22675SOL    HW269477   8.457   3.369   4.564 -1.8291  0.5687  1.1714
22676SOL     OW69478   1.064   4.199   5.719  0.3526  0.3422 -0.1148
22676SOL    HW169479   1.053   4.267   5.786 -2.0581  0.7761 -0.8378
22676SOL    HW269480   0.975   4.165   5.706  1.0836 -1.0608 -1.7279
22677SOL     OW69481   2.259   5.697   4.408  0.3097 -0.3722 -0.1273
22677SOL    HW169482   2.285   5.661   4.493  0.5314  2.7936  1.2941
22677SOL    HW269483   2.164   5.708   4.415  0.5896  1.9724  0.6863
22678SOL     OW69484   4.682   5.674   7.127 -0.4590 -0.1439  0.3936
22678SOL    HW169485   4.724   5.665   7.042  0.3579  0.0294  0.7635
22678SOL    HW269486   4.728   5.611   7.183  0.7942  1.5247  1.3385
22679SOL     OW69487   3.750   3.482   8.816  0.1438  0.2250 -0.1562
22679SOL    HW169488   3.787   3.488   8.904  1.0050 -0.1375 -0.4822
22679SOL    HW269489   3.826   3.470   8.758  0.0399  4.1449 -1.4072
22680SOL     OW69490   8.326   6.862   7.042  0.2929 -0.2882  0.4739
22680SOL    HW169491   8.420   6.848   7.056  0.0169 -1.2523  1.4543
22680SOL    HW269492   8.295   6.900   7.124 -0.4228 -1.2451  0.6589
22681SOL     OW69493   8.981   7.406   4.586  0.1818 -0.0792 -0.3288
22681SOL    HW169494   8.989   7.390   4.680 -2.1279  0.4469  0.0119
22681SOL    HW269495   8.998   7.500   4.576  1.7376 -0.3650 -0.6645
22682SOL     OW69496   5.888   7.834   2.374 -0.8455  0.1054  0.2043
22682SOL    HW169497   5.823   7.886   2.422  0.5606  4.0123 -1.7114
22682SOL    HW269498   5.855   7.830   2.285  0.4869  0.3229 -0.3242
22683SOL     OW69499   1.443   8.843   3.976  0.3083 -0.0101 -0.2560
22683SOL    HW169500   1.456   8.813   3.886 -0.8293 -0.3975 -0.3100
22683SOL    HW269501   1.449   8.763   4.029  0.5971  0.1611 -0.0301
22684SOL     OW69502   0.771   6.456   8.781 -0.3004  0.1851  0.8350
22684SOL    HW169503   0.679   6.445   8.755  0.2166 -1.4388 -0.4346
22684SOL    HW269504   0.805   6.367   8.788  1.1533  0.7554  1.4671
22685SOL     OW69505   7.420   8.924   7.179 -0.5885  0.6729  0.4245
22685SOL    HW169506   7.333   8.957   7.158 -1.3273 -1.5760 -0.2868
22685SOL    HW269507   7.429   8.940   7.273 -1.4702  1.5336  0.3840
22686SOL     OW69508   7.356   6.634   3.975  0.2906  0.6127 -0.4156
22686SOL    HW169509   7.442   6.675   3.987  0.3129  1.1290 -2.0414
22686SOL    HW269510   7.294   6.707   3.976  0.0163  0.3849 -0.5867
22687SOL     OW69511   0.606   4.928   2.901  0.5547 -0.3240  0.0198
22687SOL    HW169512   0.585   5.014   2.937  2.3238  0.4475 -0.6359
22687SOL    HW269513   0.669   4.947   2.831 -1.3485 -1.9012 -2.2929
22688SOL     OW69514   7.323   7.966   8.326  0.2998  0.3936 -0.4584
22688SOL    HW169515   7.229   7.954   8.313  0.0569  0.4833  0.9554
22688SOL    HW269516   7.331   8.056   8.359  0.7272  0.0281  0.4924
22689SOL     OW69517   7.676   3.055   0.057 -0.2579  0.1584  0.2126
22689SOL    HW169518   7.595   3.092   0.091 -0.0640  0.3878  0.4295
22689SOL    HW269519   7.712   3.123   0.000  0.8186  0.9071  1.7116
22690SOL     OW69520   7.038   1.829   4.036  0.5353 -0.1491 -0.1440
22690SOL    HW169521   6.994   1.875   4.107 -0.8577 -1.5650 -0.0351
22690SOL    HW269522   7.123   1.805   4.073  0.7604  1.1423  0.2282
22691SOL     OW69523   8.051   8.606   9.158 -0.3086 -0.6980  0.2008
22691SOL    HW169524   8.080   8.567   9.240  0.8699  0.3357  0.3015
22691SOL    HW269525   8.080   8.546   9.090  0.2666 -0.6919  0.4389
22692SOL     OW69526   3.164   1.404   2.582  0.5951  0.3808  0.2737
22692SOL    HW169527   3.260   1.412   2.577  0.7438 -0.7938  0.9064
22692SOL    HW269528   3.132   1.465   2.515  1.8422 -0.8756 -1.5882
22693SOL     OW69529   8.087   5.235   7.204  0.2951 -0.4353 -0.1064
22693SOL    HW169530   8.142   5.206   7.276 -0.6191  1.9201  1.6588
22693SOL    HW269531   8.137   5.304   7.161 -0.5214  0.4867  0.3997
22694SOL     OW69532   5.873   0.811   5.350 -0.0440  0.4319  0.1085
22694SOL    HW169533   5.907   0.888   5.305  2.7779 -1.1078 -0.5765
22694SOL    HW269534   5.826   0.762   5.282 -0.0133  0.4897  0.0458
22695SOL     OW69535   3.112   7.291   2.620 -0.0187 -0.3541 -0.1464
22695SOL    HW169536   3.051   7.363   2.638  0.2302 -0.0417 -0.5520
22695SOL    HW269537   3.072   7.215   2.662 -1.2821 -0.4033 -1.3788
22696SOL     OW69538   1.269   9.017   6.961 -0.1968  0.3791 -0.1225
22696SOL    HW169539   1.339   8.974   7.010 -0.4038 -1.8749 -1.6751
22696SOL    HW269540   1.203   9.037   7.028 -1.0225 -3.7008  0.6027
22697SOL     OW69541   5.918   7.454   6.480  0.2069  0.3439 -0.1988
22697SOL    HW169542   5.916   7.549   6.468  0.1285  0.4402  0.5152
22697SOL    HW269543   5.826   7.428   6.486  0.2422  0.4215  0.9664
22698SOL     OW69544   7.664   4.412   4.603  0.4235 -0.4447 -0.1811
22698SOL    HW169545   7.753   4.392   4.631  0.4791  1.4873  1.1988
22698SOL    HW269546   7.616   4.330   4.617  1.3944 -0.7540  1.7579
22699SOL     OW69547   6.957   2.219   6.704 -0.5699  0.3415  0.4101
22699SOL    HW169548   6.996   2.306   6.715 -1.0771  0.5873  0.3348
22699SOL    HW269549   6.986   2.169   6.780  1.0777  0.0519 -0.3744
22700SOL     OW69550   2.776   3.414   0.533  0.0800 -0.0564 -0.2981
22700SOL    HW169551   2.822   3.488   0.494 -0.7780  1.5902  1.6405
22700SOL    HW269552   2.831   3.338   0.513 -0.0415  0.6576 -4.1388
22701SOL     OW69553   2.478   5.267   7.966 -0.4088  0.1449  0.5096
22701SOL    HW169554   2.394   5.235   7.932 -0.8869  1.1729  0.6503
22701SOL    HW269555   2.488   5.354   7.926  0.8032 -0.1367  0.1738
22702SOL     OW69556   4.658   7.136   6.266 -0.3475  0.2809  0.1063
22702SOL    HW169557   4.713   7.068   6.305  0.2490  0.5721 -0.2211
22702SOL    HW269558   4.670   7.126   6.172 -2.0124 -0.6102 -0.0531
22703SOL     OW69559   2.095   3.965   6.679  0.5655 -0.0268 -0.1268
22703SOL    HW169560   2.114   3.928   6.765  1.3623  1.3602  0.3263
22703SOL    HW269561   2.122   4.057   6.685  1.0771  0.0062 -1.9866
22704SOL     OW69562   8.354   7.486   5.777 -0.1185  0.3499  0.3487
22704SOL    HW169563   8.300   7.445   5.710  1.2944 -0.3062 -0.4477
22704SOL    HW269564   8.299   7.554   5.816 -1.6913 -0.6986  0.0169
22705SOL     OW69565   8.164   5.122   0.232  0.4212  0.8714 -0.6482
22705SOL    HW169566   8.136   5.166   0.313 -1.2238  1.6094 -1.5772
22705SOL    HW269567   8.239   5.174   0.202  0.0931  1.5022 -0.3981
22706SOL     OW69568   5.713   2.431   5.572 -0.0263  0.1484  0.0981
22706SOL    HW169569   5.689   2.411   5.482 -0.6593  3.7180 -0.6450
22706SOL    HW269570   5.637   2.404   5.624 -1.7282  2.4061 -1.0818
22707SOL     OW69571   4.184   8.757   3.401  0.1011  0.0055 -0.2258
22707SOL    HW169572   4.119   8.721   3.461 -1.6464  2.0412 -0.7662
22707SOL    HW269573   4.193   8.849   3.427  0.2762  0.5995 -2.2141
22708SOL     OW69574   0.944   1.853   3.932  0.1090 -0.3399  0.4132
22708SOL    HW169575   0.890   1.824   4.006  0.7302 -3.9495 -0.3237
22708SOL    HW269576   0.885   1.848   3.857  0.5776 -1.0016  0.0804
22709SOL     OW69577   5.509   7.644   9.011  0.0270  0.4742  0.9465
22709SOL    HW169578   5.573   7.710   8.984 -1.4798  1.8781  0.6352
22709SOL    HW269579   5.497   7.659   9.105  0.0857  0.2764  0.9863
22710SOL     OW69580   6.729   6.637   2.851 -0.6481 -0.0855 -0.3040
22710SOL    HW169581   6.823   6.620   2.848 -1.2502 -4.7819  0.0782
22710SOL    HW269582   6.716   6.682   2.934  1.1205 -0.6716  0.3503
22711SOL     OW69583   6.512   4.563   2.717 -0.5865 -0.1184  0.3596
22711SOL    HW169584   6.432   4.560   2.770 -0.3276 -0.2496  0.7448
22711SOL    HW269585   6.531   4.472   2.697 -0.0925 -0.1520  0.9415
22712SOL     OW69586   1.940   2.133   0.596  0.7682  0.4289  0.2873
22712SOL    HW169587   1.888   2.203   0.558  2.0455 -0.3578 -3.2654
22712SOL    HW269588   1.879   2.059   0.604  0.5835  0.4483 -0.8386
22713SOL     OW69589   6.816   5.220   2.461  0.7462 -0.0457  0.1454
22713SOL    HW169590   6.757   5.185   2.528 -0.3684  2.2550  0.4533
22713SOL    HW269591   6.895   5.166   2.468 -0.6866 -2.1726  0.8344
22714SOL     OW69592   0.782   4.087   4.545  0.5816  0.0910  0.2007
22714SOL    HW169593   0.843   4.036   4.598  0.1441  0.8919  1.5395
22714SOL    HW269594   0.715   4.115   4.607 -2.1051 -2.1098 -1.5176
22715SOL     OW69595   6.430   1.867   0.936  0.1560  0.2982  0.0741
22715SOL    HW169596   6.355   1.831   0.888 -0.4938  1.0212  0.5170
22715SOL    HW269597   6.439   1.956   0.902  0.4592  0.4050  0.4317
22716SOL     OW69598   2.167   4.875   0.190 -0.2445 -0.0425  0.2656
22716SOL    HW169599   2.167   4.963   0.228  0.3433 -0.7787  2.0783
22716SOL    HW269600   2.074   4.852   0.185 -0.4852  1.0787 -1.3100
22717SOL     OW69601   1.181   6.803   5.212 -0.0089  0.4613 -0.2442
22717SOL    HW169602   1.093   6.763   5.213 -0.3428  1.1518 -0.8206
22717SOL    HW269603   1.216   6.780   5.125  0.9561 -0.9797  0.4850
22718SOL     OW69604   0.003   8.896   8.901  0.3211  0.1081 -0.4003
22718SOL    HW169605  -0.037   8.828   8.956 -0.1711 -1.2051 -2.2983
22718SOL    HW269606  -0.064   8.963   8.893  0.0167 -0.1678 -0.2153
22719SOL     OW69607   3.532   2.740   7.166  0.0484 -0.5274  0.0826
22719SOL    HW169608   3.616   2.735   7.211 -0.9405 -2.9374  1.9099
22719SOL    HW269609   3.467   2.727   7.235 -1.7913  0.1265 -1.4241
22720SOL     OW69610   5.261   1.990   2.555  0.4615  0.0335  0.2759
22720SOL    HW169611   5.318   2.040   2.496  0.2658 -0.2475 -0.1568
22720SOL    HW269612   5.185   1.968   2.502  0.5440 -0.7245  0.4575
22721SOL     OW69613   4.247   2.747   3.908 -0.8077  0.2398  0.2047
22721SOL    HW169614   4.341   2.756   3.923 -0.4385 -1.4316 -0.8805
22721SOL    HW269615   4.231   2.798   3.828 -0.8072  0.4005  0.3057
22722SOL     OW69616   3.319   5.394   4.546 -0.0124  0.2972  0.3855
22722SOL    HW169617   3.331   5.478   4.591  0.0475  0.1764  0.5967
22722SOL    HW269618   3.249   5.351   4.594  1.4988 -0.7575  1.7433
22723SOL     OW69619   4.578   1.174   6.525  0.4697  0.0537  0.2509
22723SOL    HW169620   4.630   1.226   6.586  0.0605 -1.1704  1.6978
22723SOL    HW269621   4.609   1.084   6.536 -0.0324 -0.2894 -0.9182
22724SOL     OW69622   4.759   5.242   6.459  0.1038 -0.4013 -0.6080
22724SOL    HW169623   4.706   5.169   6.427  1.7565 -1.2279 -1.5834
22724SOL    HW269624   4.817   5.263   6.386  1.2951  0.3032  0.5141
22725SOL     OW69625   6.976   0.830   6.222 -0.3302 -0.4222 -0.4005
22725SOL    HW169626   6.958   0.740   6.196  1.0379 -0.6693 -0.5638
22725SOL    HW269627   6.913   0.882   6.172  0.3540 -1.1179 -2.0523
22726SOL     OW69628   3.704   2.519   9.214  0.1922 -0.1950  0.5435
22726SOL    HW169629   3.749   2.603   9.223 -0.0490  0.0949 -0.6755
22726SOL    HW269630   3.773   2.453   9.217  0.5269  0.1409  0.2897
22727SOL     OW69631   1.764   2.008   1.062 -0.3600  0.2573  0.2703
22727SOL    HW169632   1.705   2.076   1.094 -1.7590 -0.9923  0.4420
22727SOL    HW269633   1.724   1.977   0.981  1.7043  1.4827 -1.3336
22728SOL     OW69634   6.448   4.820   7.750 -0.5782  0.1772  0.3496
22728SOL    HW169635   6.380   4.769   7.706 -2.5657  1.7966  1.3905
22728SOL    HW269636   6.484   4.877   7.681 -1.2959  0.3253  0.0936
22729SOL     OW69637   1.551   1.276   8.279 -0.2953  0.5234  0.1328
22729SOL    HW169638   1.495   1.198   8.282 -1.7364  1.4543 -1.2271
22729SOL    HW269639   1.586   1.283   8.367 -2.1831 -0.2176  1.0092
22730SOL     OW69640   4.281   1.516   2.315  0.0481 -1.1067 -0.9198
22730SOL    HW169641   4.372   1.547   2.313 -0.3835  0.2874 -0.4016
22730SOL    HW269642   4.232   1.584   2.269 -0.8326 -1.4940 -0.5699
22731SOL     OW69643   5.744   2.199   0.179 -0.3652 -0.2131 -0.1842
22731SOL    HW169644   5.677   2.262   0.154 -0.7316 -0.5771 -0.1325
22731SOL    HW269645   5.696   2.117   0.193 -0.2230  0.0128  1.9594
22732SOL     OW69646   3.005   8.837   1.653  0.2644 -0.0721  0.1733
22732SOL    HW169647   3.025   8.911   1.595  1.1312  0.1047  0.6849
22732SOL    HW269648   3.085   8.785   1.653 -0.2890 -0.9348 -0.0504
22733SOL     OW69649   2.121   1.523   1.544 -0.4317  0.2975 -0.0012
22733SOL    HW169650   2.082   1.566   1.620 -3.8941 -1.2994 -0.7214
22733SOL    HW269651   2.151   1.438   1.577  0.8874  0.8014  0.1575
22734SOL     OW69652   3.315   5.929   2.544 -0.1342  0.2828  0.5655
22734SOL    HW169653   3.327   5.892   2.457 -0.8292 -0.6981  0.8573
22734SOL    HW269654   3.293   6.021   2.529  0.5746  0.3291 -0.2451
22735SOL     OW69655   5.503   2.879   3.135 -0.2388  0.1094 -0.2770
22735SOL    HW169656   5.491   2.903   3.227  1.2564 -2.6647  0.7777
22735SOL    HW269657   5.416   2.855   3.105 -0.5286 -0.4737  0.9539
22736SOL     OW69658   5.356   2.600   4.688 -0.6798  0.1890 -0.4156
22736SOL    HW169659   5.371   2.623   4.780 -0.6330 -0.4459 -0.2597
22736SOL    HW269660   5.263   2.577   4.685 -0.8125  0.7472 -0.6469
22737SOL     OW69661   4.180   9.242   6.923  0.4938  0.3001 -0.0996
22737SOL    HW169662   4.150   9.166   6.974  0.0824  0.9636  0.6805
22737SOL    HW269663   4.100   9.294   6.908  0.3881 -0.4259 -2.4398
22738SOL     OW69664   4.442   7.969   3.017  0.0880 -0.2150  0.4119
22738SOL    HW169665   4.412   8.006   3.100  0.2895  0.1985  0.3012
22738SOL    HW269666   4.469   7.880   3.039 -0.8429 -0.4692  0.5898
22739SOL     OW69667   3.761   4.543   4.774 -0.3829  0.4127 -0.0429
22739SOL    HW169668   3.810   4.460   4.771 -0.3240  0.4375  0.2277
22739SOL    HW269669   3.829   4.611   4.774 -0.3918  0.4350  0.9692
22740SOL     OW69670   3.535   7.641   4.424  0.4654  0.4599  0.5732
22740SOL    HW169671   3.509   7.604   4.508  0.3670  0.1457  0.4044
22740SOL    HW269672   3.460   7.626   4.367  0.9543 -0.3149  0.1231
22741SOL     OW69673   8.049   7.310   1.806  0.4149 -0.4787 -0.0116
22741SOL    HW169674   7.958   7.297   1.777  0.4597 -0.6630 -0.0669
22741SOL    HW269675   8.055   7.262   1.888  0.1317  0.4979  0.5930
22742SOL     OW69676   6.834   0.136   4.719 -0.4676  0.3773  0.7696
22742SOL    HW169677   6.794   0.117   4.634 -0.6241  1.4170  0.6039
22742SOL    HW269678   6.908   0.193   4.698  0.0409 -0.0961  1.2478
22743SOL     OW69679   1.327   9.163   4.198  0.2582 -0.5688 -0.5739
22743SOL    HW169680   1.293   9.241   4.153 -0.9492 -0.1772  0.9189
22743SOL    HW269681   1.421   9.179   4.206 -0.1894  1.7414  1.4426
22744SOL     OW69682   6.568   8.555   0.846 -0.2102  0.8359  0.3815
22744SOL    HW169683   6.496   8.505   0.807 -1.0363  0.0692  2.6935
22744SOL    HW269684   6.540   8.647   0.838 -0.8485  0.6273  0.1507
22745SOL     OW69685   7.427   9.066   7.888  0.4374  0.3041 -0.0515
22745SOL    HW169686   7.332   9.065   7.884  0.4203  1.5769 -0.7782
22745SOL    HW269687   7.449   9.158   7.901  1.5513 -0.1154  1.2239
22746SOL     OW69688   2.422   4.253   7.445  0.0027 -0.2378 -0.7231
22746SOL    HW169689   2.366   4.265   7.522  0.4700 -0.9929 -0.2531
22746SOL    HW269690   2.360   4.245   7.372 -0.4578  0.0777 -0.3737
22747SOL     OW69691   1.847   4.670   6.558  0.4952 -0.2694  0.2747
22747SOL    HW169692   1.820   4.743   6.502 -0.6144 -1.0761 -0.2895
22747SOL    HW269693   1.765   4.632   6.589  0.9491 -2.3238 -0.8246
22748SOL     OW69694   4.479   1.745   0.727 -0.2902 -0.3522  0.1573
22748SOL    HW169695   4.413   1.710   0.786 -0.1931  0.0357  0.5072
22748SOL    HW269696   4.438   1.823   0.689 -0.1423 -0.2759  0.1538
22749SOL     OW69697   1.674   2.361   3.791  0.4680  0.0285 -0.1730
22749SOL    HW169698   1.749   2.343   3.847  0.1951 -1.1043 -0.1614
22749SOL    HW269699   1.677   2.456   3.777  1.9835 -0.0199 -0.2996
22750SOL     OW69700   1.178   9.031   8.307  0.0052 -0.3448  0.0682
22750SOL    HW169701   1.184   9.036   8.212 -0.7308  0.3876  0.0491
22750SOL    HW269702   1.084   9.019   8.325  0.1286 -0.4089  0.6993
22751SOL     OW69703   8.718   2.278   4.242  0.1606 -0.4360  0.1303
22751SOL    HW169704   8.706   2.371   4.221 -1.5655 -1.0967 -2.1814
22751SOL    HW269705   8.721   2.276   4.338 -0.9126  1.8823  0.2810
22752SOL     OW69706   5.622   1.319   6.228  0.4884 -0.3857  0.5305
22752SOL    HW169707   5.690   1.344   6.166  0.5674 -1.0457  0.3437
22752SOL    HW269708   5.628   1.224   6.234 -1.1249 -0.5741 -0.3051
22753SOL     OW69709   1.123   2.309   6.546 -0.2702 -0.8260  0.8122
22753SOL    HW169710   1.056   2.248   6.516 -0.1249 -0.2360 -0.8166
22753SOL    HW269711   1.205   2.259   6.544  0.1186 -0.2106 -2.0976
22754SOL     OW69712   2.498   4.193   5.373 -0.6754 -0.1917  0.7065
22754SOL    HW169713   2.427   4.257   5.372 -1.0350 -0.5664  1.5410
22754SOL    HW269714   2.558   4.223   5.305 -1.9534 -0.2514 -0.4838
22755SOL     OW69715   1.516   2.476   5.615 -0.0574 -0.7009  0.0694
22755SOL    HW169716   1.440   2.531   5.591  0.3886 -0.1172 -0.0256
22755SOL    HW269717   1.586   2.506   5.556  1.2656  1.2049  2.4196
22756SOL     OW69718   1.625   6.468   4.400  0.0851  0.0527  0.0760
22756SOL    HW169719   1.702   6.413   4.383 -0.3038  0.0175 -1.9259
22756SOL    HW269720   1.660   6.557   4.405  0.2868  0.0619 -1.0138
22757SOL     OW69721   4.457   3.138   3.398  0.4001  0.1265  0.9062
22757SOL    HW169722   4.460   3.063   3.458  0.9424  0.2089  0.9912
22757SOL    HW269723   4.364   3.149   3.378  0.3911 -1.3354 -0.0606
22758SOL     OW69724   2.098   7.415   8.720  0.1916  0.7586  0.3395
22758SOL    HW169725   2.104   7.464   8.638 -0.1107 -1.1560 -0.8996
22758SOL    HW269726   2.019   7.448   8.762 -0.7796  0.4162 -1.1354
22759SOL     OW69727   4.694   3.546   2.617 -0.1369 -0.1779 -0.4304
22759SOL    HW169728   4.633   3.473   2.628  0.2552 -0.3211  1.0497
22759SOL    HW269729   4.662   3.614   2.677  2.1013 -0.9377  1.7935
22760SOL     OW69730   2.151   1.195   0.997  0.3306 -0.4116  0.0861
22760SOL    HW169731   2.135   1.138   0.921 -0.5092 -1.5905  1.0949
22760SOL    HW269732   2.233   1.164   1.034  0.3735 -0.3209  0.0657
22761SOL     OW69733   6.904   5.847   3.505 -0.1510  0.1762 -0.2308
22761SOL    HW169734   6.985   5.896   3.518  1.1990 -1.8837 -0.4272
22761SOL    HW269735   6.926   5.757   3.529 -2.7864 -0.2230  1.0405
22762SOL     OW69736   4.600   0.863   5.566 -0.0241  0.6772 -0.0023
22762SOL    HW169737   4.553   0.946   5.575  0.6650  1.0599  0.1895
22762SOL    HW269738   4.568   0.809   5.639 -1.6257  0.1812 -1.0328
22763SOL     OW69739   6.681   4.688   4.733 -0.1514 -0.1634  0.1700
22763SOL    HW169740   6.657   4.713   4.643  0.5766 -0.9398 -0.2577
22763SOL    HW269741   6.730   4.606   4.723  0.2439 -0.0798  1.2484
22764SOL     OW69742   5.220   8.079   5.840 -0.3048  0.6673  0.4179
22764SOL    HW169743   5.261   8.162   5.867  1.0029  0.6024 -1.2040
22764SOL    HW269744   5.285   8.038   5.782 -1.9215 -0.3448 -0.7533
22765SOL     OW69745   1.623   2.763   6.056  0.1370  0.0154 -0.4257
22765SOL    HW169746   1.660   2.851   6.064  2.6362 -0.8489 -1.4955
22765SOL    HW269747   1.666   2.726   5.979 -1.0872 -2.0493 -0.1917
22766SOL     OW69748   1.206   2.696   4.353  0.4708  0.2836 -0.3141
22766SOL    HW169749   1.214   2.610   4.395 -0.4051  0.8593  1.0615
22766SOL    HW269750   1.284   2.743   4.380  0.8769 -0.0010 -0.9488
22767SOL     OW69751   4.443   8.086   8.113 -0.1413  0.4310  0.0450
22767SOL    HW169752   4.394   8.121   8.038  1.8014  2.6441 -0.2871
22767SOL    HW269753   4.399   8.124   8.190 -0.4338  0.3966 -0.1023
22768SOL     OW69754   6.199   0.047   4.134 -0.4701 -0.4947 -0.0803
22768SOL    HW169755   6.283   0.016   4.102  0.1944 -1.4953  2.3969
22768SOL    HW269756   6.206   0.143   4.132  1.0326 -0.5659  0.7311
22769SOL     OW69757   6.561   4.199   8.221  0.3348  1.0753  0.4387
22769SOL    HW169758   6.473   4.166   8.239  1.2406 -1.6053  0.4007
22769SOL    HW269759   6.584   4.161   8.136  2.0118  0.6023  1.0699
22770SOL     OW69760   3.721   5.459   0.470  0.1418  0.0680  0.3163
22770SOL    HW169761   3.673   5.425   0.545  2.0243 -3.1714  0.2574
22770SOL    HW269762   3.705   5.553   0.471 -2.8870 -0.3512  2.5303
22771SOL     OW69763   2.614   2.500   4.915  0.7824  0.6240  0.2328
22771SOL    HW169764   2.662   2.493   4.998 -0.9060 -0.0212  1.1823
22771SOL    HW269765   2.659   2.571   4.869  2.9976 -0.3098  0.8256
22772SOL     OW69766   6.185   2.261   8.764 -0.4844 -0.2663  1.0772
22772SOL    HW169767   6.179   2.166   8.757 -0.7031 -0.1395 -1.1133
22772SOL    HW269768   6.130   2.284   8.839 -1.8828 -1.7163  0.5263
22773SOL     OW69769   1.963   2.462   2.489  0.2196  0.1964  0.0672
22773SOL    HW169770   1.876   2.441   2.525  1.2932 -0.0128  2.7329
22773SOL    HW269771   2.007   2.377   2.482  0.4584  0.3706 -0.6857
22774SOL     OW69772   2.585   3.651   7.095 -0.8702  0.0224  0.3220
22774SOL    HW169773   2.533   3.694   7.162 -1.0216  0.0089  0.2116
22774SOL    HW269774   2.646   3.718   7.065 -0.1113 -0.2482  1.1940
22775SOL     OW69775   1.757   0.360   3.617  0.2593  0.4393 -0.1309
22775SOL    HW169776   1.670   0.332   3.648 -0.9879  0.0505 -3.5361
22775SOL    HW269777   1.818   0.309   3.670 -1.6752 -1.1471  0.7296
22776SOL     OW69778   8.198   8.594   3.191 -0.4707 -0.0029  0.1088
22776SOL    HW169779   8.276   8.539   3.197 -1.3525 -1.1166  2.9254
22776SOL    HW269780   8.132   8.539   3.149 -0.8255 -0.4999  1.2782
22777SOL     OW69781   3.826   5.250   4.079 -0.1851  0.4074 -0.0628
22777SOL    HW169782   3.777   5.207   4.009 -0.0912 -1.2937  0.8730
22777SOL    HW269783   3.794   5.340   4.078 -1.3766  0.0114 -1.2017
22778SOL     OW69784   8.673   4.428   5.070 -0.3251  0.3991 -0.1770
22778SOL    HW169785   8.760   4.391   5.060 -0.3395  0.4712 -0.5952
22778SOL    HW269786   8.687   4.523   5.067 -0.2812  0.4422  0.9465
22779SOL     OW69787   3.928   4.511   5.225  0.2376 -0.1189 -0.6639
22779SOL    HW169788   3.872   4.458   5.282 -0.2874 -0.2003 -1.2407
22779SOL    HW269789   3.882   4.595   5.218  0.3440 -0.0787 -0.8885
22780SOL     OW69790   4.059   6.568   4.801  0.0422  0.5617  0.0330
22780SOL    HW169791   3.998   6.641   4.792 -0.2248  0.4802  1.0725
22780SOL    HW269792   4.070   6.535   4.712 -1.0423  0.8913 -0.2393
22781SOL     OW69793   2.969   2.199   0.422  0.5279 -0.8785  0.0751
22781SOL    HW169794   2.981   2.123   0.479 -0.5704  0.8811  2.8227
22781SOL    HW269795   2.887   2.238   0.451  1.2394  1.5777 -0.9695
22782SOL     OW69796   6.761   0.027   6.236  0.4317 -0.0943  0.5063
22782SOL    HW169797   6.832   0.082   6.268  1.9354 -2.3081  1.1589
22782SOL    HW269798   6.796  -0.014   6.157 -0.4725 -0.5311  0.3140
22783SOL     OW69799   4.944   7.484   4.942  0.2159  0.1064 -0.3621
22783SOL    HW169800   4.868   7.426   4.937 -0.2651  0.7106 -0.2249
22783SOL    HW269801   5.011   7.441   4.890  0.0918 -0.9083  0.2802
22784SOL     OW69802   0.381   0.029   1.098 -0.2112  0.4433 -0.1740
22784SOL    HW169803   0.422   0.075   1.024 -3.0148 -0.5180 -2.5031
22784SOL    HW269804   0.414  -0.061   1.090 -0.0576  0.4695  0.1481
22785SOL     OW69805   7.624   8.926   6.039  0.0189 -0.1150  0.8685
22785SOL    HW169806   7.656   8.954   5.953 -0.1561  0.3026  0.9397
22785SOL    HW269807   7.700   8.883   6.079  0.8530  1.8055  1.4660
22786SOL     OW69808   6.269   7.111   0.327 -0.3990  0.3804  0.0347
22786SOL    HW169809   6.252   7.197   0.367 -1.3677 -0.1346  0.7670
22786SOL    HW269810   6.220   7.049   0.381 -0.0363 -0.5981 -0.7252
22787SOL     OW69811   0.666   7.449   3.529  0.5962 -0.1112  0.0698
22787SOL    HW169812   0.651   7.365   3.573 -1.2081 -0.0443 -0.3357
22787SOL    HW269813   0.579   7.476   3.498  1.3670  1.2004 -1.0858
22788SOL     OW69814   8.685   3.334   6.356  0.6377 -0.1598  0.4442
22788SOL    HW169815   8.701   3.373   6.270 -0.5463  1.0366  0.7464
22788SOL    HW269816   8.670   3.241   6.338 -0.2329  0.1880 -0.7261
22789SOL     OW69817   6.775   4.893   3.733  0.1596  0.0188  0.0702
22789SOL    HW169818   6.770   4.893   3.637  1.2725  2.9143 -0.0701
22789SOL    HW269819   6.866   4.910   3.753 -0.6016  3.0246  1.5263
22790SOL     OW69820   8.806   4.537   7.970  0.0307  0.2864  0.7938
22790SOL    HW169821   8.875   4.557   7.907 -0.4068 -0.6030  0.0112
22790SOL    HW269822   8.834   4.455   8.011 -0.4191  0.0648  0.6649
22791SOL     OW69823   2.235   2.915   5.165  0.1648  0.4238  0.3384
22791SOL    HW169824   2.205   2.919   5.074  0.2068 -0.4545  0.2822
22791SOL    HW269825   2.155   2.907   5.217  0.2488 -1.9689  0.1856
22792SOL     OW69826   5.822   1.760   8.685  0.0702  0.2316  0.4915
22792SOL    HW169827   5.730   1.749   8.661  0.3783  3.3004 -2.9815
22792SOL    HW269828   5.819   1.793   8.775 -2.2274  0.0385  0.5510
22793SOL     OW69829   0.902   5.961   8.110  0.1811  0.7979  0.0958
22793SOL    HW169830   0.970   5.906   8.149 -0.8230 -0.4660  0.1092
22793SOL    HW269831   0.846   5.900   8.062 -1.1602  1.7578  0.3913
22794SOL     OW69832   2.379   1.603   6.731 -0.1580 -0.3193  0.2202
22794SOL    HW169833   2.370   1.675   6.794 -0.4486 -1.0059  0.9776
22794SOL    HW269834   2.294   1.559   6.732  0.1434 -0.9177  0.0742
22795SOL     OW69835   2.136   5.800   2.062 -0.4098  0.6788 -0.0972
22795SOL    HW169836   2.127   5.708   2.087  0.3480  0.7332  0.3940
22795SOL    HW269837   2.049   5.824   2.031 -1.0833  0.2663  1.3729
22796SOL     OW69838   7.218   5.617   5.063  0.1232  0.4311 -0.4627
22796SOL    HW169839   7.183   5.619   5.152 -0.6608 -1.0504 -0.7071
22796SOL    HW269840   7.312   5.634   5.074  0.0891 -0.0052  0.6878
22797SOL     OW69841   4.143   6.234   7.511  0.1423 -0.1194  0.1948
22797SOL    HW169842   4.127   6.194   7.597  0.9880 -1.8075 -0.3983
22797SOL    HW269843   4.211   6.300   7.528  0.0879 -0.2276  0.8627
22798SOL     OW69844   5.415   0.097   8.809  0.1843 -0.0801  0.3306
22798SOL    HW169845   5.348   0.092   8.741 -1.1508 -1.8781  1.6534
22798SOL    HW269846   5.394   0.176   8.858  1.3317  1.3884 -1.4399
22799SOL     OW69847   7.937   4.470   8.733 -0.2181  0.2116  0.2636
22799SOL    HW169848   7.902   4.381   8.734  0.6490 -0.1824  2.7280
22799SOL    HW269849   8.009   4.467   8.670  0.2327 -1.0457  0.8018
22800SOL     OW69850   7.056   6.546   5.336  0.1016  0.0121  0.5244
22800SOL    HW169851   7.081   6.519   5.425  0.3856  0.6584  0.6500
22800SOL    HW269852   6.988   6.612   5.350 -0.3497 -0.3969  0.2394
22801SOL     OW69853   9.175   8.899   0.138  0.2639  0.1943 -0.3836
22801SOL    HW169854   9.166   8.889   0.232 -1.3960 -1.7909 -0.6869
22801SOL    HW269855   9.164   8.993   0.122  0.1264  0.4946  1.3323
22802SOL     OW69856   7.382   5.239   6.165  0.3931 -0.5690  0.2086
22802SOL    HW169857   7.433   5.306   6.119  0.7262 -0.4506  0.7393
22802SOL    HW269858   7.311   5.288   6.207  0.1321 -0.6674 -0.1100
22803SOL     OW69859   4.351   5.307   0.066  0.0942  0.2032  0.0195
22803SOL    HW169860   4.349   5.225   0.117 -0.0545 -0.0993 -0.4678
22803SOL    HW269861   4.258   5.328   0.054  0.1073  1.3895  1.6300
22804SOL     OW69862   2.662   0.227   7.964  0.2500 -0.0239  0.2736
22804SOL    HW169863   2.575   0.266   7.953  0.7261  0.5621 -1.7439
22804SOL    HW269864   2.659   0.146   7.913  0.1081 -1.4062  2.3322
22805SOL     OW69865   4.727   8.994   7.668 -0.9621 -0.3768 -0.0518
22805SOL    HW169866   4.683   8.972   7.585 -0.7931  0.6847 -0.4441
22805SOL    HW269867   4.803   8.935   7.671 -0.3077  0.3496 -1.2527
22806SOL     OW69868   1.934   6.017   6.215 -0.8448 -0.2325 -0.2444
22806SOL    HW169869   1.843   6.033   6.241 -0.3393  2.1150  0.2983
22806SOL    HW269870   1.976   5.983   6.294 -0.4347  2.2737  0.6887
22807SOL     OW69871   5.731   7.795   4.566 -0.1756  0.0408  0.2793
22807SOL    HW169872   5.800   7.820   4.627  2.9081 -0.6009 -2.6358
22807SOL    HW269873   5.723   7.870   4.507 -1.1672 -0.3720 -0.1338
22808SOL     OW69874   5.040   4.442   2.857 -0.5166  0.0562 -0.1606
22808SOL    HW169875   5.061   4.389   2.780  0.7974 -0.4156  0.4814
22808SOL    HW269876   5.124   4.451   2.903 -0.7123  2.5598 -0.1426
22809SOL     OW69877   6.330   2.785   3.874 -0.5995  0.0827 -0.1042
22809SOL    HW169878   6.301   2.875   3.888  1.9317  1.0994 -0.7555
22809SOL    HW269879   6.405   2.793   3.815  0.0628 -2.4061  0.2829
22810SOL     OW69880   4.909   2.259   2.041 -0.2380  0.6451  0.0877
22810SOL    HW169881   4.972   2.308   2.094 -0.3180  0.0198  0.7876
22810SOL    HW269882   4.836   2.242   2.101 -0.5047  0.2654 -0.3368
22811SOL     OW69883   7.310   3.982   2.374 -0.0832  0.5389 -0.9991
22811SOL    HW169884   7.256   3.905   2.358 -0.4533  0.8657 -1.3343
22811SOL    HW269885   7.311   3.991   2.470  1.2719 -0.7994 -0.8332
22812SOL     OW69886   0.197   5.497   3.417 -0.7452  0.1637  0.4782
22812SOL    HW169887   0.175   5.537   3.333 -2.1795 -1.1619  0.1909
22812SOL    HW269888   0.114   5.492   3.464 -0.3419 -1.0665  1.1094
22813SOL     OW69889   3.278   1.911   0.219  0.2207 -0.5654  0.7854
22813SOL    HW169890   3.240   1.876   0.300 -1.5589  0.7679  0.5972
22813SOL    HW269891   3.221   1.880   0.150  0.7601 -0.3249  0.2192
22814SOL     OW69892   7.251   7.752   2.815 -0.6501  0.2452 -0.3475
22814SOL    HW169893   7.209   7.665   2.814  1.3214 -0.7928  1.0120
22814SOL    HW269894   7.297   7.757   2.731  1.6201 -1.3299  0.7324
22815SOL     OW69895   7.599   8.827   1.980  0.1645  0.4208 -0.0978
22815SOL    HW169896   7.638   8.754   1.932 -1.7199 -0.4711 -0.3525
22815SOL    HW269897   7.581   8.893   1.913  0.3226  0.4303 -0.1321
22816SOL     OW69898   3.210   2.649   7.045 -0.3063  0.0360  0.0455
22816SOL    HW169899   3.281   2.610   6.993 -1.2606 -1.4366 -0.2051
22816SOL    HW269900   3.166   2.575   7.085 -1.4784  0.9536  0.5118
22817SOL     OW69901   6.984   5.610   2.152 -0.1983 -0.6632 -0.2247
22817SOL    HW169902   6.922   5.568   2.212 -1.2645  2.2146  0.8864
22817SOL    HW269903   6.947   5.595   2.065 -1.2909 -0.8285  0.2444
22818SOL     OW69904   2.275   2.927   5.886 -0.2727  0.3676 -0.5239
22818SOL    HW169905   2.282   2.866   5.960 -0.1158 -1.3666 -1.9082
22818SOL    HW269906   2.365   2.948   5.864 -0.2543 -0.4585 -1.2687
22819SOL     OW69907   4.808   4.588   0.540 -0.1896 -0.1155  0.0238
22819SOL    HW169908   4.886   4.532   0.531  0.3221  0.4534  0.8343
22819SOL    HW269909   4.737   4.534   0.506  0.4727 -0.8407 -0.2595
22820SOL     OW69910   9.060   5.042   8.124  0.6974 -0.0573  0.0760
22820SOL    HW169911   9.150   5.018   8.149  1.2536  0.5783 -1.2000
22820SOL    HW269912   9.007   5.020   8.200  2.0818  0.4422  1.2186
22821SOL     OW69913   8.084   6.725   6.571  0.0848  0.4616  0.1639
22821SOL    HW169914   8.017   6.657   6.578 -0.5116  0.9681 -0.5449
22821SOL    HW269915   8.068   6.783   6.646 -0.5276  0.8072 -0.2315
22822SOL     OW69916   4.236   7.398   5.692 -0.2925 -0.1803 -0.0874
22822SOL    HW169917   4.154   7.448   5.700 -1.1632 -1.8006  1.8608
22822SOL    HW269918   4.276   7.403   5.778  1.2272 -0.2318 -0.7593
22823SOL     OW69919   8.852   4.088   1.388 -0.0145 -0.1675 -0.5074
22823SOL    HW169920   8.899   4.005   1.378  0.8771  0.3776 -1.0235
22823SOL    HW269921   8.782   4.084   1.322  0.0714 -0.4777 -0.5808
22824SOL     OW69922   6.469   7.227   5.694  0.4357  0.3302  0.2671
22824SOL    HW169923   6.404   7.180   5.642 -1.2804  1.5168  1.2743
22824SOL    HW269924   6.511   7.287   5.631  0.6693 -0.5242 -0.4079
22825SOL     OW69925   6.196   0.318   4.147  0.7110 -0.4888 -0.6196
22825SOL    HW169926   6.286   0.334   4.119 -0.2152 -0.0424 -3.6760
22825SOL    HW269927   6.179   0.387   4.212  2.4827 -0.5107 -0.0682
22826SOL     OW69928   5.267   1.037   0.803 -0.3792 -0.5733 -0.2373
22826SOL    HW169929   5.196   1.070   0.748 -1.8599 -1.9708  0.7245
22826SOL    HW269930   5.275   0.945   0.779 -0.4506 -0.9941  1.2088
22827SOL     OW69931   6.776   6.697   0.902 -1.0172 -0.8031  0.0995
22827SOL    HW169932   6.727   6.760   0.957  0.3380  0.5221 -0.1595
22827SOL    HW269933   6.798   6.746   0.823  1.2813 -1.1325  0.4750
22828SOL     OW69934   7.534   3.953   6.964 -0.5257  0.2702 -0.2981
22828SOL    HW169935   7.543   4.031   7.018  0.8685  0.6346 -0.9780
22828SOL    HW269936   7.526   3.987   6.874 -2.2182 -0.3309 -0.4110
22829SOL     OW69937   7.158   3.115   2.352 -0.2186  0.0142 -0.1039
22829SOL    HW169938   7.135   3.106   2.444 -1.7303  1.8519 -0.2385
22829SOL    HW269939   7.074   3.111   2.306  0.0737  2.7555 -1.0371
22830SOL     OW69940   7.585   2.876   0.275 -0.1829 -0.1853  0.2736
22830SOL    HW169941   7.498   2.875   0.236 -0.0835  0.8765 -0.0122
22830SOL    HW269942   7.631   2.947   0.230  1.0105 -1.0595  0.0523
22831SOL     OW69943   4.817   1.402   3.312  0.3202 -0.4964 -0.1953
22831SOL    HW169944   4.773   1.480   3.278  0.6556 -0.2119  0.0106
22831SOL    HW269945   4.756   1.366   3.376 -0.9807 -1.8726 -2.0871
22832SOL     OW69946   8.893   5.342   0.782 -0.2235  0.1365 -0.7066
22832SOL    HW169947   8.985   5.369   0.786 -0.2828  0.2058  1.3662
22832SOL    HW269948   8.896   5.250   0.756  0.5405 -0.1921  0.4465
22833SOL     OW69949   6.379   4.304   7.356 -0.1852 -0.7521 -0.2166
22833SOL    HW169950   6.293   4.335   7.328 -1.0416 -3.1716 -0.4598
22833SOL    HW269951   6.428   4.384   7.375 -1.8638  0.7580 -1.8453
22834SOL     OW69952   7.548   7.575   7.491  0.4892 -0.1930  0.2494
22834SOL    HW169953   7.465   7.573   7.442  1.1708 -1.3738 -0.9230
22834SOL    HW269954   7.577   7.666   7.485 -0.0978 -0.0382 -0.4427
22835SOL     OW69955   7.247   2.302   4.082 -0.0958 -0.1630  0.0734
22835SOL    HW169956   7.278   2.241   4.016  0.1238  0.3276 -0.2846
22835SOL    HW269957   7.315   2.370   4.086 -1.2149  1.0794 -0.9260
22836SOL     OW69958   6.482   0.977   6.158 -0.2434  0.5198  0.1077
22836SOL    HW169959   6.576   0.974   6.139 -0.1669  1.1559  0.3538
22836SOL    HW269960   6.440   0.945   6.078  0.1087  2.2337 -0.7974
22837SOL     OW69961   4.946   5.260   0.245 -0.0210  0.1774 -0.3629
22837SOL    HW169962   4.854   5.249   0.222  0.2902 -2.2647 -0.7828
22837SOL    HW269963   4.953   5.226   0.334  0.6724 -1.1631 -0.8826
22838SOL     OW69964   2.151   4.249   6.730 -0.3342 -0.0512 -0.1180
22838SOL    HW169965   2.235   4.267   6.772 -1.0559  0.4471  1.2136
22838SOL    HW269966   2.144   4.314   6.660  0.8344 -0.7848 -0.9375
22839SOL     OW69967   8.455   8.692   8.688 -0.7374 -0.1804 -0.0814
22839SOL    HW169968   8.416   8.763   8.738  2.1391 -0.3540  2.7204
22839SOL    HW269969   8.435   8.613   8.739  0.2169 -0.7075 -0.4940
22840SOL     OW69970   3.682   3.096   8.503  0.1794  0.2403 -0.0955
22840SOL    HW169971   3.633   3.143   8.571  1.1629 -1.9318  2.2622
22840SOL    HW269972   3.774   3.117   8.520  0.5629 -1.6931  0.3849
22841SOL     OW69973   2.434   5.276   7.343 -0.1301 -0.1196 -0.3903
22841SOL    HW169974   2.452   5.321   7.426 -1.3484  0.2460 -0.3065
22841SOL    HW269975   2.504   5.211   7.336  0.2808  0.1784  0.6833
22842SOL     OW69976   6.285   2.257   4.230  0.1630 -0.5564 -0.0281
22842SOL    HW169977   6.354   2.315   4.262 -1.0700  0.8917  0.1274
22842SOL    HW269978   6.278   2.188   4.296 -0.7060  1.0663  1.6615
22843SOL     OW69979   8.161   4.936   6.067  0.4791  0.0113  0.0050
22843SOL    HW169980   8.119   4.964   5.985  0.5708  0.1549  0.0053
22843SOL    HW269981   8.230   4.876   6.039  0.5152  0.0665 -0.0231
22844SOL     OW69982   7.325   2.016   9.206 -0.2270  0.3732 -0.1533
22844SOL    HW169983   7.420   2.002   9.213 -0.5419 -2.4051 -0.1783
22844SOL    HW269984   7.314   2.069   9.128  1.2942  0.4376 -0.3551
22845SOL     OW69985   3.776   6.677   5.801 -1.1923 -0.5006  0.3773
22845SOL    HW169986   3.781   6.590   5.761 -0.2374 -0.5557  0.6048
22845SOL    HW269987   3.708   6.722   5.750 -0.8158 -0.9537 -0.5575
22846SOL     OW69988   3.891   8.142   2.300 -0.4804  0.0449  0.1735
22846SOL    HW169989   3.862   8.136   2.209 -1.2566 -1.4793  0.5002
22846SOL    HW269990   3.929   8.230   2.307 -1.4012  0.5929 -1.3241
22847SOL     OW69991   5.819   3.726   7.657 -0.1292  0.3631 -0.1274
22847SOL    HW169992   5.823   3.722   7.752  1.5662 -1.6222 -0.1959
22847SOL    HW269993   5.897   3.678   7.628  0.2583  2.2379 -2.5281
22848SOL     OW69994   8.073   4.848   7.623 -0.0884  0.2575 -0.1632
22848SOL    HW169995   8.039   4.925   7.669 -0.1865 -1.2362  2.4349
22848SOL    HW269996   8.058   4.775   7.683  1.2087 -1.6187 -1.9733
22849SOL     OW69997   0.352   8.752   7.232 -0.0317 -0.7935  0.2847
22849SOL    HW169998   0.296   8.801   7.172 -0.3884 -2.2291 -0.6084
22849SOL    HW269999   0.307   8.756   7.316  0.0582  0.5439  0.2936
22850SOL     OW70000   2.720   0.694   2.462  0.5476  0.4116 -0.2339
22850SOL    HW170001   2.668   0.641   2.522  0.5475  1.7207  0.9656
22850SOL    HW270002   2.690   0.784   2.477  1.8666  0.9797 -0.8387
22851SOL     OW70003   6.103   0.097   1.285 -0.2121  0.0634  0.9181
22851SOL    HW170004   6.148   0.039   1.345  2.9115  2.3595  1.0335
22851SOL    HW270005   6.048   0.152   1.341 -1.6087 -1.3184  0.9911
22852SOL     OW70006   3.971   1.524   6.856 -0.1057 -0.0250 -0.0535
22852SOL    HW170007   4.012   1.477   6.928 -2.1905 -0.0563  1.1967
22852SOL    HW270008   3.918   1.459   6.812  0.8406  0.0913 -1.4216
22853SOL     OW70009   1.329   6.579   4.107  0.3184  0.3256  0.0359
22853SOL    HW170010   1.399   6.514   4.097 -0.5888 -0.5895 -0.6166
22853SOL    HW270011   1.314   6.584   4.201  0.6334 -0.1654  0.1186
22854SOL     OW70012   6.561   8.089   5.362  0.1213  0.1929  0.1950
22854SOL    HW170013   6.534   8.050   5.279  2.3954 -1.5095  0.1582
22854SOL    HW270014   6.518   8.035   5.428  2.1526 -1.6324  0.1205
22855SOL     OW70015   6.562   1.002   8.341  0.0291 -0.4682  0.0256
22855SOL    HW170016   6.596   0.924   8.297  0.8714  0.3016 -0.7400
22855SOL    HW270017   6.640   1.053   8.363 -0.5165  0.2341  0.3649
22856SOL     OW70018   1.778   2.698   5.802  0.0296 -0.2003  0.4306
22856SOL    HW170019   1.741   2.712   5.715 -1.2667 -1.7915  0.6758
22856SOL    HW270020   1.740   2.615   5.831  0.7519  0.0903  2.3565
22857SOL     OW70021   5.758   4.893   5.371 -0.2968  0.0427 -0.2515
22857SOL    HW170022   5.804   4.855   5.297  1.3157 -1.0201  1.2166
22857SOL    HW270023   5.826   4.940   5.420 -1.4388  1.2386  0.2578
22858SOL     OW70024   3.719   4.969   2.914 -0.1805 -0.2076 -0.4129
22858SOL    HW170025   3.624   4.962   2.909 -0.1231 -0.3530 -1.4472
22858SOL    HW270026   3.751   4.930   2.833  0.6948  1.1373 -0.7579
22859SOL     OW70027   3.929   7.367   5.763  0.2381  0.0080  0.2289
22859SOL    HW170028   3.923   7.389   5.670 -0.0572  3.1041  0.8886
22859SOL    HW270029   3.839   7.376   5.795  0.5120 -0.0681  1.0223
22860SOL     OW70030   8.374   6.175   6.273 -0.1475  0.1134 -0.6314
22860SOL    HW170031   8.467   6.191   6.290 -0.3511 -0.4692  1.2049
22860SOL    HW270032   8.369   6.167   6.178  1.4363  1.5726 -0.8996
22861SOL     OW70033   8.820   2.933   4.747 -0.1438 -0.3676 -0.6648
22861SOL    HW170034   8.768   3.013   4.739 -0.1559 -0.3129 -0.0831
22861SOL    HW270035   8.891   2.956   4.807  0.3186 -0.5603 -1.1277
22862SOL     OW70036   1.427   8.405   6.811 -0.6414  1.1388  0.0331
22862SOL    HW170037   1.451   8.436   6.898 -2.0180  3.0974 -0.2223
22862SOL    HW270038   1.379   8.324   6.827  1.1608  0.1716  0.8816
22863SOL     OW70039   5.692   5.099   3.896  0.8219 -0.1688 -0.0490
22863SOL    HW170040   5.705   5.175   3.953 -0.6916 -0.6250  0.9434
22863SOL    HW270041   5.641   5.038   3.949 -1.6741 -0.1588 -2.2452
22864SOL     OW70042   8.057   2.400   0.742  0.0029  0.3545  0.1412
22864SOL    HW170043   8.008   2.436   0.668 -0.3223  2.0776  1.1162
22864SOL    HW270044   8.101   2.476   0.780  0.5751 -0.5741  1.3981
22865SOL     OW70045   8.164   3.515   4.751 -0.5633 -0.3434  0.1596
22865SOL    HW170046   8.071   3.502   4.732 -0.3612 -2.3897  0.2691
22865SOL    HW270047   8.199   3.557   4.673 -1.8609  2.1485  0.8112
22866SOL     OW70048   5.436   6.218   4.052  0.2570 -0.1013 -0.0568
22866SOL    HW170049   5.386   6.233   4.132  0.2640  2.8950 -0.5155
22866SOL    HW270050   5.402   6.281   3.989  0.5530 -2.0717 -2.3467
22867SOL     OW70051   4.228   3.901   5.180 -0.4743 -0.7248 -0.4271
22867SOL    HW170052   4.225   3.958   5.103 -0.9891 -0.9781 -0.5977
22867SOL    HW270053   4.235   3.961   5.254  0.0148 -0.4786 -0.6651
22868SOL     OW70054   1.531   4.395   4.045  1.0091  1.1714  0.2302
22868SOL    HW170055   1.444   4.416   4.080  0.4016 -0.8418  0.0364
22868SOL    HW270056   1.589   4.461   4.084 -0.2942  1.4794  1.7635
22869SOL     OW70057   3.666   8.840   1.618  0.1634  0.8052  0.2457
22869SOL    HW170058   3.661   8.900   1.544 -0.8641 -0.4496 -0.7713
22869SOL    HW270059   3.575   8.832   1.648  0.3256  0.0213  0.5544
22870SOL     OW70060   1.695   4.541   4.452 -0.1284 -0.5883 -0.1219
22870SOL    HW170061   1.735   4.627   4.459  1.7429 -1.4972  1.2111
22870SOL    HW270062   1.739   4.488   4.519 -0.5648 -2.8408 -1.5031
22871SOL     OW70063   5.314   2.593   1.670  0.5117 -0.1931 -0.2016
22871SOL    HW170064   5.292   2.623   1.581  1.4472 -1.3665 -0.8678
22871SOL    HW270065   5.237   2.614   1.722 -0.1210  0.4033 -1.3210
22872SOL     OW70066   0.308   7.216   2.381 -0.2458  0.6606  0.1294
22872SOL    HW170067   0.280   7.234   2.291  0.0985  0.7182  0.0307
22872SOL    HW270068   0.310   7.302   2.423 -0.5281  0.6197  0.2311
22873SOL     OW70069   8.124   0.352   0.317  0.3066  0.2426 -0.2629
22873SOL    HW170070   8.198   0.413   0.323  0.0714  0.5603 -0.5340
22873SOL    HW270071   8.092   0.364   0.227 -0.1706  0.2199 -0.0944
22874SOL     OW70072   0.738   0.306   7.612 -0.3479  0.3025  0.1370
22874SOL    HW170073   0.785   0.389   7.601 -2.4798  1.4806 -0.5580
22874SOL    HW270074   0.659   0.329   7.661 -3.2378 -0.3455 -3.7295
22875SOL     OW70075   5.246   1.923   0.079  0.5327  0.3989 -0.7461
22875SOL    HW170076   5.172   1.885   0.031  0.0987  1.4440 -0.9323
22875SOL    HW270077   5.265   1.859   0.148 -1.5409  0.7592  0.2511
22876SOL     OW70078   5.111   7.798   2.045  0.0901 -0.0603  0.1732
22876SOL    HW170079   5.133   7.793   1.952 -0.7303  1.7915 -0.1638
22876SOL    HW270080   5.194   7.786   2.090  0.8135  0.8443 -0.8748
22877SOL     OW70081   1.680   8.213   2.814  1.1674 -0.1393  0.0369
22877SOL    HW170082   1.636   8.130   2.799 -0.6980  0.9509 -0.9220
22877SOL    HW270083   1.715   8.207   2.902 -0.8609 -1.1393  0.8244
22878SOL     OW70084   0.013   1.423   7.377 -0.5342  0.6050  1.1705
22878SOL    HW170085   0.089   1.470   7.344 -0.4677  0.5013  1.1742
22878SOL    HW270086  -0.031   1.391   7.298  1.2743 -2.2729  1.1726
22879SOL     OW70087   8.627   0.237   7.376  0.4779  0.7065  0.3934
22879SOL    HW170088   8.693   0.208   7.438 -0.6072  0.3598  1.4297
22879SOL    HW270089   8.610   0.160   7.322 -1.1813 -0.2015  2.0607
22880SOL     OW70090   6.216   5.561   7.918 -0.0563  0.8403 -0.7004
22880SOL    HW170091   6.295   5.570   7.971  1.9888 -2.1602 -2.8777
22880SOL    HW270092   6.146   5.548   7.981  1.7629  0.3313  1.3174
22881SOL     OW70093   3.354   3.876   6.645  0.3167  0.2156 -0.5292
22881SOL    HW170094   3.401   3.959   6.647  0.3621  0.1845 -0.1579
22881SOL    HW270095   3.276   3.891   6.699  2.1231 -1.0242  2.7481
22882SOL     OW70096   6.621   9.104   2.466 -0.5185 -0.5391 -0.1290
22882SOL    HW170097   6.648   9.127   2.377  0.4511 -0.0841  0.2702
22882SOL    HW270098   6.687   9.144   2.522 -2.3889  1.2355  0.9556
22883SOL     OW70099   7.576   0.692   6.465  0.2069 -0.1214  0.2827
22883SOL    HW170100   7.636   0.635   6.513  0.0748 -1.7760 -1.4221
22883SOL    HW270101   7.631   0.737   6.401  0.0546  0.4578  0.5523
22884SOL     OW70102   1.586   1.598   1.004 -0.4601 -0.4084 -0.1778
22884SOL    HW170103   1.606   1.646   1.084  2.0492 -0.4716 -0.6758
22884SOL    HW270104   1.566   1.666   0.940  0.1776 -0.2011 -0.1594
22885SOL     OW70105   7.370   7.933   4.015 -0.3822 -0.1464 -0.5799
22885SOL    HW170106   7.429   7.984   3.960 -2.8251  3.0015 -0.5793
22885SOL    HW270107   7.409   7.938   4.103 -0.0512  0.8667 -0.7748
22886SOL     OW70108   4.535   0.348   6.539  0.0876  0.1584  0.3304
22886SOL    HW170109   4.496   0.261   6.552 -1.3836  0.9143  1.1602
22886SOL    HW270110   4.564   0.347   6.447 -0.8337 -0.8618  0.0252
22887SOL     OW70111   4.548   8.618   2.628 -0.8205  0.0062 -0.6238
22887SOL    HW170112   4.523   8.529   2.604  0.2563 -0.3574 -0.4732
22887SOL    HW270113   4.588   8.608   2.715  0.4962  0.4265 -1.1668
22888SOL     OW70114   0.877   2.403   0.756 -0.7020 -0.1168  0.5041
22888SOL    HW170115   0.852   2.380   0.667 -0.6528 -1.5867  0.8345
22888SOL    HW270116   0.815   2.470   0.783 -1.4485 -0.5019 -0.2277
22889SOL     OW70117   0.319   0.430   2.825  0.0449  0.4720  0.3661
22889SOL    HW170118   0.229   0.424   2.792  0.7440 -1.3798 -1.4559
22889SOL    HW270119   0.366   0.359   2.780  2.4179  1.3511  1.2697
22890SOL     OW70120   6.792   3.068   8.450  0.1850  0.1846 -0.0579
22890SOL    HW170121   6.780   3.161   8.470 -0.3307 -0.0281  0.6487
22890SOL    HW270122   6.801   3.065   8.354 -0.6166  0.8725 -0.1651
22891SOL     OW70123   7.824   5.669   0.399  0.3245  0.3941  0.0211
22891SOL    HW170124   7.912   5.683   0.434  0.6447  2.1059 -1.2953
22891SOL    HW270125   7.784   5.756   0.399 -1.2454 -0.2934  0.2582
22892SOL     OW70126   6.288   8.640   6.356  0.5397 -0.5508  0.1071
22892SOL    HW170127   6.321   8.609   6.272  0.7343  0.3326 -0.1508
22892SOL    HW270128   6.354   8.702   6.387 -0.3276  0.4224  0.0951
22893SOL     OW70129   3.112   0.064   3.543 -0.0031 -0.0819  0.3076
22893SOL    HW170130   3.058   0.055   3.622 -2.8359  1.1872 -1.3210
22893SOL    HW270131   3.149  -0.023   3.529 -1.9670 -1.1548  1.3526
22894SOL     OW70132   7.480   3.533   7.390 -0.0555 -0.0131 -0.0946
22894SOL    HW170133   7.544   3.463   7.381  1.9382  1.8947 -2.9747
22894SOL    HW270134   7.529   3.606   7.428 -0.9759  0.9453 -0.6722
22895SOL     OW70135   4.410   1.944   1.186 -0.5312  0.0953  0.8844
22895SOL    HW170136   4.456   1.962   1.104  1.0861  0.5017  1.8259
22895SOL    HW270137   4.344   1.880   1.163  0.2511 -0.2163 -0.6348
22896SOL     OW70138   6.733   7.783   1.594  0.2534  0.4784 -0.2673
22896SOL    HW170139   6.701   7.745   1.677  2.8785 -0.9509  0.2124
22896SOL    HW270140   6.657   7.828   1.557 -1.8468 -1.4405  1.4216
22897SOL     OW70141   7.429   1.480   8.037 -0.1630 -0.4349  0.0136
22897SOL    HW170142   7.489   1.528   7.980 -0.2795 -1.1714 -0.7425
22897SOL    HW270143   7.343   1.495   8.000 -0.4772  0.6470  1.1169
22898SOL     OW70144   7.243   8.463   6.806 -0.2625 -0.4742  0.5796
22898SOL    HW170145   7.228   8.376   6.844  2.9979 -1.5268 -0.1539
22898SOL    HW270146   7.278   8.444   6.719  0.1898  1.6119  0.2689
22899SOL     OW70147   3.312   1.941   2.983 -0.0510  0.1755 -0.4276
22899SOL    HW170148   3.397   1.898   2.996 -1.0681 -1.4479  1.2529
22899SOL    HW270149   3.258   1.874   2.941 -0.2675  1.5322 -2.4675
22900SOL     OW70150   5.404   1.989   8.132  0.2884  0.5775 -0.1876
22900SOL    HW170151   5.352   2.060   8.094 -0.6450  0.2631  0.4565
22900SOL    HW270152   5.376   1.985   8.224  1.0914  0.0627  0.0499
22901SOL     OW70153   2.214   1.850   3.560  0.1508  0.0875 -0.4076
22901SOL    HW170154   2.270   1.830   3.636  1.3686 -0.3538 -1.3840
22901SOL    HW270155   2.138   1.893   3.597  0.9502  0.3246  1.0278
22902SOL     OW70156   3.648   3.827   3.005 -0.2073 -0.0913 -0.2282
22902SOL    HW170157   3.569   3.880   2.998  0.5609  0.8530 -2.5095
22902SOL    HW270158   3.620   3.739   2.980 -0.5759  0.1839 -0.7838
22903SOL     OW70159   7.335   7.454   2.579  0.1871  0.3173 -0.4140
22903SOL    HW170160   7.247   7.462   2.616  1.5538  1.0677  3.1122
22903SOL    HW270161   7.373   7.541   2.591  2.1302 -0.5808  0.3731
22904SOL     OW70162   8.220   1.485   4.909 -0.2209 -0.0462 -0.0869
22904SOL    HW170163   8.126   1.470   4.915 -0.4835  1.8449  1.3208
22904SOL    HW270164   8.231   1.536   4.829 -0.1671 -1.5153 -1.0575
22905SOL     OW70165   3.066   5.251   7.003  0.4758 -0.8480 -0.5251
22905SOL    HW170166   3.078   5.156   7.003  0.4516 -0.8511 -0.5576
22905SOL    HW270167   3.149   5.286   7.035  0.7896 -0.8431 -1.3069
22906SOL     OW70168   8.192   7.259   8.923  0.4737 -0.4888 -0.4734
22906SOL    HW170169   8.193   7.271   9.018 -1.0550  2.5084 -0.7051
22906SOL    HW270170   8.228   7.341   8.889 -1.9890 -0.0961 -2.4400
22907SOL     OW70171   5.065   4.139   7.675  0.2160  0.0546  0.2092
22907SOL    HW170172   5.046   4.064   7.620  0.6830 -0.2994  0.5283
22907SOL    HW270173   4.994   4.201   7.657 -0.7530 -0.8857  0.7160
22908SOL     OW70174   3.859   5.213   6.477  0.0466 -0.0855  0.2356
22908SOL    HW170175   3.926   5.279   6.494 -0.8356  0.5589  1.3557
22908SOL    HW270176   3.868   5.151   6.550 -2.4042  1.5655  2.1164
22909SOL     OW70177   6.458   1.133   1.615  0.4695 -0.2841 -0.6208
22909SOL    HW170178   6.373   1.169   1.641 -0.0502 -0.3292 -2.1893
22909SOL    HW270179   6.521   1.203   1.634  0.3433 -0.7340  1.8437
22910SOL     OW70180   1.735   3.905   8.836 -0.2036 -0.0202  0.0315
22910SOL    HW170181   1.745   3.940   8.924 -0.7530  0.8892 -0.2520
22910SOL    HW270182   1.640   3.905   8.821 -0.2332 -1.6384  0.0054
22911SOL     OW70183   4.708   4.768   1.321 -0.2146  0.1930  0.3995
22911SOL    HW170184   4.798   4.770   1.288 -1.0061 -1.6189 -2.2209
22911SOL    HW270185   4.717   4.744   1.413  1.9803 -0.0783  0.1737
22912SOL     OW70186   5.318   6.678   7.020 -0.1190 -0.1737 -0.9099
22912SOL    HW170187   5.362   6.621   6.958  0.1477 -0.0675 -0.8216
22912SOL    HW270188   5.346   6.767   6.995 -1.2052 -0.0034 -1.5848
22913SOL     OW70189   8.437   1.443   2.875 -0.2695  0.6322 -0.2968
22913SOL    HW170190   8.424   1.403   2.960  1.2582  0.5916 -0.0500
22913SOL    HW270191   8.414   1.535   2.888 -2.0275  0.2526 -0.4063
22914SOL     OW70192   5.823   7.965   5.034  0.2110  0.8097  0.0503
22914SOL    HW170193   5.782   7.974   4.948  0.4302  1.8090  0.0385
22914SOL    HW270194   5.763   7.910   5.084  0.3336 -0.2206 -0.8971
22915SOL     OW70195   6.912   7.277   3.092  0.4854  0.6823  0.1359
22915SOL    HW170196   6.830   7.312   3.056 -0.1695 -1.0498 -0.1901
22915SOL    HW270197   6.960   7.246   3.015  1.0915  0.9592  0.4007
22916SOL     OW70198   7.260   6.907   3.215 -0.2076  0.1749 -0.3382
22916SOL    HW170199   7.262   6.944   3.127 -3.0264 -0.8152 -0.9318
22916SOL    HW270200   7.203   6.965   3.265  0.4312  0.0763  0.5472
22917SOL     OW70201   8.514   3.980   0.693 -0.0507  0.3362  0.1124
22917SOL    HW170202   8.480   3.923   0.624 -1.1874  1.7733 -0.5772
22917SOL    HW270203   8.453   3.970   0.765 -0.6578  1.1744 -0.2690
22918SOL     OW70204   9.252   1.422   2.639 -0.0644 -0.5542 -0.3755
22918SOL    HW170205   9.237   1.354   2.705 -0.7703 -0.2739 -0.2371
22918SOL    HW270206   9.166   1.435   2.598 -1.0544  3.0787  2.3390
22919SOL     OW70207   3.224   5.980   6.775  0.2836 -0.4046  0.2515
22919SOL    HW170208   3.253   5.889   6.780 -0.0270 -0.5171  0.0573
22919SOL    HW270209   3.264   6.022   6.851  1.2403 -0.4696 -0.1943
22920SOL     OW70210   7.116   2.026   1.357 -0.0909 -0.6978 -0.4711
22920SOL    HW170211   7.200   2.034   1.404 -0.7111  0.2641  0.5365
22920SOL    HW270212   7.141   2.018   1.265  1.1248 -0.8503 -0.1528
22921SOL     OW70213   1.228   9.054   1.827  0.0504  0.2666  0.0889
22921SOL    HW170214   1.320   9.045   1.802 -0.3207  1.3375 -1.9459
22921SOL    HW270215   1.230   9.085   1.917  1.6190 -1.1034  0.5659
22922SOL     OW70216   1.795   7.669   4.355 -0.0378  0.4697  0.0464
22922SOL    HW170217   1.752   7.602   4.407  1.6433 -0.1534  0.7132
22922SOL    HW270218   1.875   7.627   4.323  1.4847  2.3596  1.1520
22923SOL     OW70219   8.550   7.774   0.092  0.1295 -0.4784 -0.0806
22923SOL    HW170220   8.472   7.766   0.037 -0.5545 -0.7555  0.9170
22923SOL    HW270221   8.548   7.864   0.123 -0.4655 -0.8177  0.9092
22924SOL     OW70222   1.392   2.397   2.621  0.1279  0.1095  0.4907
22924SOL    HW170223   1.442   2.316   2.615  0.2829  0.1162  1.5857
22924SOL    HW270224   1.400   2.436   2.534 -0.9402 -1.6068 -0.4273
22925SOL     OW70225   8.101   3.583   1.060 -0.8505  0.0005 -0.1545
22925SOL    HW170226   8.057   3.538   1.132 -0.4166  0.9111  0.7076
22925SOL    HW270227   8.194   3.571   1.079 -0.7340  0.1840 -0.6075
22926SOL     OW70228   0.668   4.455   5.115 -0.0486 -0.1771 -0.0610
22926SOL    HW170229   0.650   4.396   5.188 -0.0967 -0.7304 -0.5118
22926SOL    HW270230   0.716   4.401   5.051 -1.6422 -0.2517 -1.2593
22927SOL     OW70231   3.053   0.468   7.643 -0.2940  0.0512 -0.7883
22927SOL    HW170232   2.989   0.537   7.624  0.3777  1.3190  1.1964
22927SOL    HW270233   3.127   0.487   7.585 -0.0994  1.0493 -0.2316
22928SOL     OW70234   0.821   2.155   8.170 -0.4145 -0.6820  0.1768
22928SOL    HW170235   0.784   2.209   8.100 -0.2909 -0.0937  0.5573
22928SOL    HW270236   0.745   2.123   8.218 -0.5170 -1.4027 -0.4493
22929SOL     OW70237   4.725   1.040   7.441 -0.3325 -0.0961  0.5133
22929SOL    HW170238   4.780   1.043   7.519 -0.2512  1.8623  0.4176
22929SOL    HW270239   4.640   1.011   7.474  0.5931 -2.8460  0.7054
22930SOL     OW70240   0.790   5.267   9.245 -0.2423  0.2102  0.3764
22930SOL    HW170241   0.743   5.264   9.328 -1.6240  0.9342 -0.3443
22930SOL    HW270242   0.875   5.304   9.268 -0.3480 -0.2202  1.5618
22931SOL     OW70243   8.257   4.089   2.770 -0.0768  0.1545  0.0397
22931SOL    HW170244   8.239   4.097   2.864  1.4996 -3.2226  0.8059
22931SOL    HW270245   8.278   4.178   2.741 -2.2947  1.6030  2.4255
22932SOL     OW70246   1.327   6.945   4.834 -0.3863  0.4238 -0.5157
22932SOL    HW170247   1.412   6.989   4.833  0.6814 -1.4311  1.1859
22932SOL    HW270248   1.327   6.892   4.755  0.6988 -0.6344  0.1566
22933SOL     OW70249   2.353   8.273   2.365  0.1020  0.0885  0.3531
22933SOL    HW170250   2.424   8.220   2.328  1.4362 -0.8467  3.8881
22933SOL    HW270251   2.282   8.210   2.381 -0.7578  0.6242 -1.1157
22934SOL     OW70252   6.644   1.795   3.027  0.4397  0.0162  0.5675
22934SOL    HW170253   6.718   1.737   3.009 -0.0083 -0.0643 -1.1384
22934SOL    HW270254   6.669   1.879   2.989 -0.8966 -0.3954 -1.3702
22935SOL     OW70255   4.858   4.695   5.836 -0.0061 -0.1696 -0.1465
22935SOL    HW170256   4.830   4.640   5.910 -0.2650 -2.6555 -1.9650
22935SOL    HW270257   4.782   4.751   5.818 -0.5002 -0.6113  0.4960
22936SOL     OW70258   4.801   0.614   4.187  0.4861 -0.1602 -0.5825
22936SOL    HW170259   4.771   0.524   4.190 -1.3170  0.4178  0.5451
22936SOL    HW270260   4.880   0.615   4.242  1.2121 -1.2394 -1.5650
22937SOL     OW70261   1.269   3.161   2.656  0.4257  0.4523  0.2471
22937SOL    HW170262   1.188   3.176   2.608  0.9822  0.9717 -0.5435
22937SOL    HW270263   1.296   3.248   2.686  0.0476  0.1350  1.5929
22938SOL     OW70264   8.599   6.164   4.049  0.2274 -0.1499 -0.0186
22938SOL    HW170265   8.674   6.105   4.060  2.2094  2.3121  0.5671
22938SOL    HW270266   8.563   6.175   4.137  0.3640  0.1187  0.0049
22939SOL     OW70267   7.078   4.859   5.268  0.0026 -0.0830  0.0332
22939SOL    HW170268   7.017   4.872   5.194  0.6789 -0.0028 -0.5210
22939SOL    HW270269   7.037   4.791   5.321 -0.6483  0.0728 -0.2555
22940SOL     OW70270   7.869   6.471   1.117 -0.0031  0.0412 -0.0599
22940SOL    HW170271   7.896   6.525   1.043 -1.0660  0.2602 -0.3075
22940SOL    HW270272   7.871   6.381   1.085 -1.6357  0.2255 -0.7567
22941SOL     OW70273   6.459   5.608   1.467  0.0086  0.5047 -0.3437
22941SOL    HW170274   6.552   5.604   1.445 -0.1841  1.4352 -1.3936
22941SOL    HW270275   6.415   5.578   1.387 -0.5929 -0.2773  0.2675
22942SOL     OW70276   5.127   2.287   1.839 -0.0936 -0.4048 -0.4933
22942SOL    HW170277   5.203   2.281   1.897 -1.3662 -0.1101  1.2757
22942SOL    HW270278   5.052   2.264   1.894 -1.6217  1.9808 -1.4237
22943SOL     OW70279   8.080   0.446   4.269  0.0720  0.1877 -0.1852
22943SOL    HW170280   8.118   0.438   4.356  1.9579 -0.1554 -1.0012
22943SOL    HW270281   8.032   0.529   4.271  2.9327  1.9611  0.1789
22944SOL     OW70282   4.530   0.004   5.343  0.0065  0.2113  0.2646
22944SOL    HW170283   4.598   0.071   5.341 -0.7426  0.9446 -1.2459
22944SOL    HW270284   4.479   0.024   5.422  0.0883  1.1083  0.0953
22945SOL     OW70285   5.269   8.465   4.655 -0.2843 -0.2915  0.6788
22945SOL    HW170286   5.276   8.375   4.622 -0.6064  0.4461 -1.6068
22945SOL    HW270287   5.277   8.519   4.576 -1.7311  1.6344  1.7809
22946SOL     OW70288   6.068   5.484   1.957  0.7501 -0.5977  0.0465
22946SOL    HW170289   6.086   5.578   1.964  2.3208 -0.9086  0.6209
22946SOL    HW270290   5.984   5.479   1.911  1.3440  1.0522 -1.3300
22947SOL     OW70291   4.398   0.679   1.151 -0.1684  0.1170  0.3980
22947SOL    HW170292   4.417   0.632   1.070  0.6544 -0.5850  0.9851
22947SOL    HW270293   4.484   0.698   1.189 -0.5111  1.3370  0.6078
22948SOL     OW70294   8.455   7.586   2.379  0.3570  0.1560  0.0242
22948SOL    HW170295   8.493   7.534   2.308 -2.1349 -1.1498 -0.4881
22948SOL    HW270296   8.382   7.533   2.410 -0.5429  2.1216  1.4435
22949SOL     OW70297   6.178   8.040   3.686 -0.1117 -0.0525  0.4917
22949SOL    HW170298   6.169   8.109   3.753  3.4279  0.0159  1.0964
22949SOL    HW270299   6.272   8.037   3.668 -0.5241 -2.6799 -1.7887
22950SOL     OW70300   6.465   7.976   3.703 -0.0613  0.6072 -0.1687
22950SOL    HW170301   6.478   7.887   3.668 -0.4387  0.7159 -0.5878
22950SOL    HW270302   6.526   8.030   3.654  2.2799  0.1701  1.9957
22951SOL     OW70303   3.228   5.998   7.975  0.1715  0.5588  0.3736
22951SOL    HW170304   3.273   5.925   8.018 -0.7043 -0.0829  0.2167
22951SOL    HW270305   3.269   6.076   8.013  0.8659 -0.0006  0.8151
22952SOL     OW70306   3.731   1.302   9.109 -0.1965  0.2788 -0.1021
22952SOL    HW170307   3.825   1.313   9.127 -0.3633  1.1049  0.3324
22952SOL    HW270308   3.689   1.319   9.193 -0.9062  2.7853 -0.8533
22953SOL     OW70309   6.026   6.501   8.880 -0.1553  0.3716 -0.1813
22953SOL    HW170310   6.081   6.456   8.944  0.4396 -0.8205 -1.4715
22953SOL    HW270311   5.964   6.551   8.932  1.6179  1.1046  1.3329
22954SOL     OW70312   4.930   0.577   0.073 -0.1413 -0.5348  0.2388
22954SOL    HW170313   5.003   0.577   0.135 -0.4448 -0.1123  0.6046
22954SOL    HW270314   4.969   0.598  -0.011  0.3927 -1.8396  0.1382
22955SOL     OW70315   2.894   7.436   7.216 -0.0429 -0.3132  0.1294
22955SOL    HW170316   2.818   7.378   7.212 -1.4530  1.5372 -2.1155
22955SOL    HW270317   2.863   7.513   7.263  0.5137  0.3381 -0.5471
22956SOL     OW70318   7.365   3.113   3.510 -0.0657  0.2124 -0.4461
22956SOL    HW170319   7.327   3.108   3.422  0.4355  0.9541 -0.7224
22956SOL    HW270320   7.376   3.022   3.537  0.4924 -0.0391 -1.4796
22957SOL     OW70321   2.053   4.555   4.535 -0.5012 -0.1054 -0.0151
22957SOL    HW170322   2.089   4.643   4.521  0.1773 -0.5901 -1.3725
22957SOL    HW270323   2.041   4.550   4.630  1.5046  0.6533  0.3178
22958SOL     OW70324   0.512   1.496   4.404 -0.3076 -0.1521  0.1894
22958SOL    HW170325   0.438   1.557   4.405 -0.5764 -0.4661  0.0167
22958SOL    HW270326   0.497   1.439   4.479  0.0675  0.1354  0.4862
22959SOL     OW70327   1.355   5.323   4.187 -0.0354  0.1104 -0.4072
22959SOL    HW170328   1.346   5.415   4.208  0.8978  0.5234 -1.7056
22959SOL    HW270329   1.437   5.296   4.227 -0.7714 -0.4386  0.8003
22960SOL     OW70330   3.879   8.712   0.986 -0.3398 -0.3629 -0.0155
22960SOL    HW170331   3.878   8.654   0.911  0.1652 -2.5859  1.6106
22960SOL    HW270332   3.970   8.740   0.995 -0.7429  1.6610 -1.4103
22961SOL     OW70333   8.813   0.967   3.959  0.2685  0.4902  0.1584
22961SOL    HW170334   8.776   1.053   3.979  0.0707  0.6057 -0.6735
22961SOL    HW270335   8.869   0.947   4.034 -0.6989  0.7562  0.9717
22962SOL     OW70336   8.733   2.055   3.767 -0.1161 -0.0922 -0.1546
22962SOL    HW170337   8.719   2.063   3.862  1.8814 -2.0302  0.3734
22962SOL    HW270338   8.686   1.975   3.743 -1.1472  0.7214 -0.9888
22963SOL     OW70339   8.967   9.248   5.216 -0.1495 -0.1300  0.4333
22963SOL    HW170340   9.058   9.263   5.190  0.3867 -1.1246  1.6257
22963SOL    HW270341   8.917   9.255   5.134  1.3974 -2.6225 -0.8325
22964SOL     OW70342   7.622   2.645   7.542  0.0513 -0.1939  0.0397
22964SOL    HW170343   7.628   2.570   7.601 -0.2766 -0.3520 -0.1270
22964SOL    HW270344   7.610   2.720   7.600 -2.1799 -0.5443  0.1378
22965SOL     OW70345   9.037   8.706   9.245  0.0735  0.2539 -0.2785
22965SOL    HW170346   8.957   8.687   9.294 -1.7058  2.1393 -2.2434
22965SOL    HW270347   9.081   8.774   9.296  1.4081 -1.9291  1.6715
22966SOL     OW70348   3.865   3.131   2.319 -0.6878  0.1599  0.2209
22966SOL    HW170349   3.864   3.109   2.226 -1.7148 -1.6897  0.6272
22966SOL    HW270350   3.774   3.146   2.342 -0.3954  1.0698  0.8506
22967SOL     OW70351   4.874   3.951   7.584 -0.0290  0.1035 -0.0452
22967SOL    HW170352   4.872   3.968   7.490  0.1616 -1.4005 -0.3466
22967SOL    HW270353   4.862   3.856   7.591 -0.4322  0.2430  1.4689
22968SOL     OW70354   8.422   1.549   7.908 -0.4451 -0.4304  0.1561
22968SOL    HW170355   8.479   1.515   7.838 -1.8994 -1.5728 -0.5242
22968SOL    HW270356   8.443   1.642   7.912  0.2888 -0.5005 -1.2156
22969SOL     OW70357   7.489   3.111   7.537 -0.3247  0.6893  0.2143
22969SOL    HW170358   7.415   3.162   7.572 -0.9761 -0.5925  0.7575
22969SOL    HW270359   7.515   3.053   7.609  0.1507 -0.0213 -0.5122
22970SOL     OW70360   5.419   2.829   7.683  0.4597 -0.1833  0.2031
22970SOL    HW170361   5.331   2.843   7.718  0.2272 -0.6794 -0.1796
22970SOL    HW270362   5.476   2.831   7.761  0.4588  2.7380  0.2252
22971SOL     OW70363   6.442   4.450   5.291 -0.1735 -0.0639 -0.5902
22971SOL    HW170364   6.363   4.444   5.344  0.8260 -1.4524  0.8156
22971SOL    HW270365   6.410   4.459   5.201 -1.9304 -1.5603 -0.1663
22972SOL     OW70366   5.678   5.174   6.851  0.0606 -0.1602  0.0860
22972SOL    HW170367   5.672   5.172   6.947 -2.4881 -1.8506 -0.0067
22972SOL    HW270368   5.616   5.241   6.825  0.7330  0.2800 -0.4210
22973SOL     OW70369   4.540   6.905   8.084 -0.4488 -0.0751  0.8848
22973SOL    HW170370   4.509   6.938   8.169  1.1431  0.8772  1.1261
22973SOL    HW270371   4.544   6.982   8.028 -0.5866 -0.5535  0.2045
22974SOL     OW70372   6.644   0.474   5.905 -0.4858  0.1833 -0.0952
22974SOL    HW170373   6.638   0.379   5.918  0.2719  0.0663 -0.5854
22974SOL    HW270374   6.726   0.487   5.858  0.1554  1.2217  1.2516
22975SOL     OW70375   3.104   0.655   3.711 -0.2048  0.3781  0.7887
22975SOL    HW170376   3.192   0.686   3.731  0.0031 -0.0125  0.5016
22975SOL    HW270377   3.111   0.559   3.714 -0.5425  0.3403  0.4505
22976SOL     OW70378   3.136   1.538   3.622  0.1422  0.2626  0.1916
22976SOL    HW170379   3.109   1.521   3.532  2.1969  0.5539 -0.5248
22976SOL    HW270380   3.155   1.451   3.658 -0.3066  0.1777  0.2295
22977SOL     OW70381   4.036   6.021   8.890 -0.0922 -0.3774  0.3864
22977SOL    HW170382   3.945   6.039   8.867  0.0434 -1.0069 -0.7381
22977SOL    HW270383   4.073   6.106   8.910 -1.0396 -0.1623  1.3169
22978SOL     OW70384   3.808   5.093   7.005 -0.4058 -0.3367 -0.4069
22978SOL    HW170385   3.736   5.104   7.068 -0.2367  0.2833 -0.3118
22978SOL    HW270386   3.875   5.044   7.053 -1.0973 -1.6840 -0.7702
22979SOL     OW70387   7.183   1.710   3.345  0.1276  0.2996 -0.4302
22979SOL    HW170388   7.159   1.753   3.427 -0.0173  0.0815 -0.3566
22979SOL    HW270389   7.264   1.662   3.365  0.3471  0.6256 -0.5413
22980SOL     OW70390   5.840   1.536   0.105 -0.1671 -0.3961  0.1074
22980SOL    HW170391   5.836   1.510   0.012  0.2572 -1.0741  0.2653
22980SOL    HW270392   5.774   1.481   0.147 -1.3261  0.8874  0.0089
22981SOL     OW70393   4.301   0.991   8.533 -0.3981 -0.1876  0.2447
22981SOL    HW170394   4.253   0.967   8.613  0.5908  0.7660  1.1510
22981SOL    HW270395   4.375   0.930   8.530  0.5374  0.8664  1.0272
22982SOL     OW70396   2.415   3.333   8.052 -0.2744  0.0463  0.3150
22982SOL    HW170397   2.389   3.358   8.141 -0.6534 -0.6575  0.4090
22982SOL    HW270398   2.392   3.410   7.999  0.7051  0.7916  0.9343
22983SOL     OW70399   6.055   5.877   5.144  0.1274 -0.4708  0.2128
22983SOL    HW170400   5.984   5.939   5.127  0.3913 -0.5585 -1.3642
22983SOL    HW270401   6.029   5.832   5.224 -1.0230  0.3161  0.3068
22984SOL     OW70402   6.642   3.854   0.226  0.2827 -0.1397  0.7802
22984SOL    HW170403   6.557   3.878   0.188 -0.0993 -0.0838  1.6469
22984SOL    HW270404   6.702   3.856   0.152 -0.3777  0.3066  0.2379
22985SOL     OW70405   4.512   0.917   4.362  0.6643  0.6492 -0.0472
22985SOL    HW170406   4.425   0.897   4.328  0.1326  0.0602  1.5417
22985SOL    HW270407   4.559   0.833   4.356  0.3526  0.3598  1.1804
22986SOL     OW70408   1.844   3.487   8.277  0.7805  0.7500  0.5965
22986SOL    HW170409   1.779   3.553   8.302 -0.8380 -0.7063  0.3753
22986SOL    HW270410   1.892   3.527   8.205 -1.5102  0.9574 -0.8808
22987SOL     OW70411   4.581   6.746   4.598  0.2277  0.7642 -0.0829
22987SOL    HW170412   4.674   6.723   4.603 -0.3363 -1.6360  2.0274
22987SOL    HW270413   4.551   6.708   4.516  0.4260 -1.8825  0.9694
22988SOL     OW70414   2.720   1.045   2.808  1.1326  0.8068 -0.7174
22988SOL    HW170415   2.644   1.011   2.760  2.6581 -1.9635 -1.4140
22988SOL    HW270416   2.779   1.077   2.739  1.0379  2.0560 -0.2433
22989SOL     OW70417   3.737   7.866   9.108  0.4499  0.1263 -0.5830
22989SOL    HW170418   3.797   7.792   9.098 -0.1901 -0.2917 -1.4758
22989SOL    HW270419   3.656   7.836   9.068 -0.6774  0.3429  1.3822
22990SOL     OW70420   7.775   6.677   5.846 -0.3294  0.2251 -0.7865
22990SOL    HW170421   7.855   6.721   5.819  0.4358  0.4304  1.6048
22990SOL    HW270422   7.707   6.744   5.841 -0.3841  0.1097 -2.5903
22991SOL     OW70423   3.636   0.029   3.479  0.0624  0.5753  0.1605
22991SOL    HW170424   3.638   0.072   3.394 -1.0297  1.2713  0.4725
22991SOL    HW270425   3.594  -0.056   3.462  3.7452 -1.2441 -0.7835
22992SOL     OW70426   8.778   8.546   6.728  0.2154  0.3414 -0.2963
22992SOL    HW170427   8.853   8.524   6.672  1.0807 -0.3061  1.0562
22992SOL    HW270428   8.811   8.534   6.817 -1.1315  1.3065  0.3627
22993SOL     OW70429   7.472   9.086   0.673 -0.3963  0.3445  0.5069
22993SOL    HW170430   7.475   9.019   0.742  0.9520 -0.8638 -0.6599
22993SOL    HW270431   7.549   9.140   0.690 -0.9292  1.0115  0.8485
22994SOL     OW70432   7.203   8.176   3.739  0.7215 -0.7751 -0.1568
22994SOL    HW170433   7.253   8.247   3.781  1.7491  0.3766 -3.0887
22994SOL    HW270434   7.123   8.171   3.791  1.1712  1.6524  0.9557
22995SOL     OW70435   4.540   1.057   1.174  0.2192 -0.4521  0.3197
22995SOL    HW170436   4.452   1.034   1.204  0.1001 -0.9579 -0.4026
22995SOL    HW270437   4.588   0.975   1.176  0.5809 -0.2392  0.3737
22996SOL     OW70438   0.833   2.562   4.588 -0.2022 -0.6708 -0.4801
22996SOL    HW170439   0.773   2.566   4.514  1.0088 -0.8188 -1.5137
22996SOL    HW270440   0.883   2.481   4.575 -1.5989 -2.0367  1.8535
22997SOL     OW70441   7.674   1.854   8.505  0.6797 -0.0472  0.7717
22997SOL    HW170442   7.666   1.782   8.568 -1.6138  0.4924  1.2001
22997SOL    HW270443   7.690   1.931   8.559  0.8952  0.1012  0.4975
22998SOL     OW70444   2.432   4.531   8.209 -0.0169 -0.4509  0.5445
22998SOL    HW170445   2.447   4.498   8.298 -1.8592 -2.7280  0.1088
22998SOL    HW270446   2.518   4.526   8.167  0.7520  0.0807  1.9820
22999SOL     OW70447   3.817   3.271   5.487  0.7930 -0.3591  0.2575
22999SOL    HW170448   3.739   3.324   5.504  0.3228 -0.9128 -0.1085
22999SOL    HW270449   3.802   3.190   5.536  1.1455 -0.4583  0.2008
23000SOL     OW70450   0.623   7.423   8.040  0.1168  0.3348  0.1892
23000SOL    HW170451   0.650   7.351   8.096  0.1275 -0.8056 -1.2171
23000SOL    HW270452   0.704   7.455   8.001 -0.1422 -1.4025 -2.0433
23001SOL     OW70453   1.255   0.386   1.868 -0.0512  0.2466 -0.2031
23001SOL    HW170454   1.232   0.306   1.916  1.1310 -0.5409 -0.8677
23001SOL    HW270455   1.221   0.371   1.780 -0.8624  1.0085 -0.0247
23002SOL     OW70456   6.911   3.483   3.639  0.4059 -0.4801  0.1113
23002SOL    HW170457   6.839   3.427   3.610  0.1074  0.2421 -0.5725
23002SOL    HW270458   6.952   3.513   3.558  0.3624  0.5396  0.4541
23003SOL     OW70459   3.210   6.347   3.331 -0.2600  0.1035 -0.7127
23003SOL    HW170460   3.126   6.346   3.286 -0.5831 -1.0309 -0.1041
23003SOL    HW270461   3.189   6.357   3.423  0.3282  0.8504 -0.6475
23004SOL     OW70462   1.802   1.213   5.089 -0.2322 -0.1263 -0.8854
23004SOL    HW170463   1.831   1.155   5.019 -1.7157 -0.6048 -1.1351
23004SOL    HW270464   1.856   1.291   5.079  2.3247 -1.6604 -0.0942
23005SOL     OW70465   0.460   5.516   6.602  0.5664 -0.3750 -0.0433
23005SOL    HW170466   0.553   5.518   6.624  1.5380  0.9594 -3.5858
23005SOL    HW270467   0.457   5.475   6.515 -1.4631  3.6378 -2.1326
23006SOL     OW70468   6.593   6.537   2.400  0.4335 -0.0304  0.1439
23006SOL    HW170469   6.579   6.631   2.416  0.7219  0.2791 -1.2767
23006SOL    HW270470   6.619   6.502   2.485  2.0356  1.5127  0.3553
23007SOL     OW70471   3.806   6.105   3.116 -0.0248 -0.4789  0.1174
23007SOL    HW170472   3.737   6.054   3.157  0.3386 -0.2232  1.0864
23007SOL    HW270473   3.783   6.108   3.023 -0.9895 -0.8898  0.3374
23008SOL     OW70474   0.954   5.892   7.771  0.2246  0.1934 -0.1136
23008SOL    HW170475   0.868   5.923   7.800 -0.5198 -1.5966 -0.2621
23008SOL    HW270476   0.938   5.803   7.741  1.7601  0.5518 -2.1731
23009SOL     OW70477   9.124   6.520   5.671 -0.1712  0.0316 -0.4199
23009SOL    HW170478   9.152   6.578   5.601 -0.4177 -0.0774 -0.6118
23009SOL    HW270479   9.129   6.573   5.750 -0.0876  0.2168 -0.5496
23010SOL     OW70480   8.848   4.801   5.346  0.0145  0.3327 -0.1856
23010SOL    HW170481   8.788   4.864   5.387  0.7002  1.3178 -0.6432
23010SOL    HW270482   8.935   4.831   5.373  0.3011 -1.4655  1.0240
23011SOL     OW70483   0.980   4.626   6.848  0.0448 -0.0713 -0.3864
23011SOL    HW170484   0.939   4.712   6.863  0.9057  0.4801 -1.1264
23011SOL    HW270485   1.037   4.614   6.924 -2.3721 -1.4556  1.3725
23012SOL     OW70486   1.041   1.380   3.665  0.2448 -0.2226  0.1023
23012SOL    HW170487   1.012   1.356   3.753  1.8084  1.7146  1.2342
23012SOL    HW270488   1.094   1.305   3.636  0.7264 -0.3842  1.3309
23013SOL     OW70489   6.048   6.798   0.058  0.3507  0.6360  0.1048
23013SOL    HW170490   6.097   6.876   0.084  0.7966  0.6032 -0.5967
23013SOL    HW270491   5.963   6.808   0.099  0.1911  1.8055 -0.4681
23014SOL     OW70492   4.785   2.386   6.164  0.1368  0.7393  0.4127
23014SOL    HW170493   4.874   2.356   6.146  0.3119  0.7721  1.1948
23014SOL    HW270494   4.792   2.436   6.246 -0.4007  1.7244 -0.1213
23015SOL     OW70495   8.259   6.714   2.584 -0.2211  0.2901  0.6202
23015SOL    HW170496   8.275   6.796   2.629  3.9855 -0.7944  1.5002
23015SOL    HW270497   8.216   6.658   2.649 -0.6927  0.9241  0.8602
23016SOL     OW70498   0.406   0.334   7.187  0.5650 -0.6098  0.2820
23016SOL    HW170499   0.351   0.368   7.116 -0.3899 -0.8582  0.8903
23016SOL    HW270500   0.482   0.297   7.142 -0.4178 -1.5179 -0.6921
23017SOL     OW70501   1.603   8.709   8.392  0.6717 -0.2338  0.2177
23017SOL    HW170502   1.511   8.687   8.401  0.4794 -0.3254 -1.5029
23017SOL    HW270503   1.605   8.776   8.324  1.8288  0.1352  0.5924
23018SOL     OW70504   0.424   0.975   4.197 -0.5959  0.1830  0.0391
23018SOL    HW170505   0.386   0.889   4.216 -0.2327  0.4710  2.3843
23018SOL    HW270506   0.376   1.006   4.121 -0.1329 -2.4600 -1.4645
23019SOL     OW70507   7.801   4.684   5.443  0.0874 -0.0551 -0.3635
23019SOL    HW170508   7.752   4.682   5.525  1.1321 -0.4857  0.2753
23019SOL    HW270509   7.890   4.658   5.468  0.7651  1.1590 -1.3961
23020SOL     OW70510   6.436   7.280   7.048  0.7832 -0.1745 -0.0279
23020SOL    HW170511   6.342   7.287   7.036  0.7061  0.9647  1.0750
23020SOL    HW270512   6.449   7.202   7.101  0.4441 -0.1379  0.1048
23021SOL     OW70513   7.906   8.135   3.357  0.0548 -0.3465  0.1833
23021SOL    HW170514   7.852   8.200   3.402  0.4959 -0.3940  0.7972
23021SOL    HW270515   7.900   8.159   3.265 -0.3873  0.1163  0.3258
23022SOL     OW70516   1.675   1.804   7.815 -0.2721 -0.0146  0.3886
23022SOL    HW170517   1.600   1.847   7.856 -0.4587  0.5218 -0.4736
23022SOL    HW270518   1.674   1.837   7.725  0.0878 -1.1955 -0.0611
23023SOL     OW70519   3.721   2.273   1.514 -0.0202  0.0669 -0.2242
23023SOL    HW170520   3.776   2.339   1.557 -0.1011  0.2679 -0.4232
23023SOL    HW270521   3.638   2.277   1.561  0.6777 -1.4659  1.2231
23024SOL     OW70522   7.204   9.054   6.513 -0.0772  0.2195 -0.1788
23024SOL    HW170523   7.110   9.059   6.531 -0.4034 -2.4038 -0.6919
23024SOL    HW270524   7.242   9.013   6.591  0.7920  1.8183  0.2854
23025SOL     OW70525   7.835   3.190   6.830 -0.1290 -0.0057  0.8238
23025SOL    HW170526   7.778   3.223   6.761  0.7871  0.7511  0.4089
23025SOL    HW270527   7.923   3.217   6.804  0.5462 -1.8873  1.0092
23026SOL     OW70528   1.626   7.436   7.905  0.3897 -0.2216 -1.1007
23026SOL    HW170529   1.657   7.524   7.923  0.2672  0.1697 -2.6523
23026SOL    HW270530   1.534   7.437   7.932  0.7766 -0.3373  0.2605
23027SOL     OW70531   8.351   5.206   1.942  0.1189 -0.0512 -0.2833
23027SOL    HW170532   8.433   5.249   1.921 -0.4939  1.3889  0.1363
23027SOL    HW270533   8.322   5.168   1.860  2.0216 -2.1066 -0.0881
23028SOL     OW70534   6.494   2.229   5.822 -0.2124 -0.6814  0.1941
23028SOL    HW170535   6.558   2.226   5.893 -0.1040  0.1710  0.1456
23028SOL    HW270536   6.441   2.150   5.834 -0.8404 -0.0468  1.8497
23029SOL     OW70537   3.987   4.287   7.998  0.5423 -0.4785  0.3874
23029SOL    HW170538   4.046   4.301   7.923 -0.2335 -0.3089 -0.1985
23029SOL    HW270539   3.956   4.198   7.987  1.3652 -0.8797  1.1932
23030SOL     OW70540   8.250   3.951   1.447 -0.1636 -0.5174 -0.2514
23030SOL    HW170541   8.168   3.907   1.426 -0.4925 -1.0403  1.9024
23030SOL    HW270542   8.231   4.044   1.436 -0.4760 -0.7236 -1.5457
23031SOL     OW70543   4.835   0.625   0.523 -0.5189  0.3359 -0.1456
23031SOL    HW170544   4.833   0.632   0.428 -1.7090  0.5376 -0.1191
23031SOL    HW270545   4.918   0.666   0.549  0.7176 -1.3596 -1.1981
23032SOL     OW70546   3.369   7.168   6.158  0.0301  0.3346  0.6054
23032SOL    HW170547   3.293   7.195   6.107  0.0391 -0.9745 -0.1695
23032SOL    HW270548   3.333   7.129   6.237 -0.1864 -0.8848 -0.0534
23033SOL     OW70549   5.086   6.510   1.968  0.6748  0.0857  0.1330
23033SOL    HW170550   5.139   6.559   1.905 -0.0573  1.0103  0.2144
23033SOL    HW270551   4.999   6.548   1.961  0.2315 -0.7930  0.6607
23034SOL     OW70552   1.085   5.462   6.169 -0.1567  0.5594 -0.1185
23034SOL    HW170553   1.144   5.534   6.147  1.1416 -0.3622  0.1876
23034SOL    HW270554   1.067   5.473   6.262  1.1994 -0.2626  0.2791
23035SOL     OW70555   2.442   4.335   6.783 -0.0047  0.5644  0.3289
23035SOL    HW170556   2.528   4.295   6.769 -1.1030 -1.5932 -0.7058
23035SOL    HW270557   2.455   4.427   6.759  2.2919  0.6174  1.4613
23036SOL     OW70558   2.227   0.553   4.830 -0.1275  0.1708 -0.2192
23036SOL    HW170559   2.217   0.494   4.755 -1.0873 -1.3272  1.0305
23036SOL    HW270560   2.222   0.641   4.792 -3.1332 -0.4903 -1.7001
23037SOL     OW70561   5.994   1.432   1.171  0.0052 -0.4671  0.0255
23037SOL    HW170562   6.063   1.366   1.162  1.1316  0.6574  0.1879
23037SOL    HW270563   6.012   1.495   1.102  0.9879  1.4216  1.8946
23038SOL     OW70564   2.007   8.388   7.708 -0.2286 -0.2457 -0.0553
23038SOL    HW170565   2.034   8.371   7.618  0.3702  0.2674  0.0231
23038SOL    HW270566   1.948   8.315   7.730  0.9372 -1.2955 -0.2863
23039SOL     OW70567   7.820   5.098   9.151 -0.2374 -0.2103  0.2933
23039SOL    HW170568   7.819   5.187   9.114 -0.1120 -0.1066  0.5363
23039SOL    HW270569   7.895   5.056   9.109 -0.3310 -0.2194  0.1358
23040SOL     OW70570   8.046   6.478   5.009 -0.4341 -0.4339 -0.1791
23040SOL    HW170571   8.050   6.527   4.926 -2.7207 -1.1641 -0.7818
23040SOL    HW270572   8.032   6.387   4.982  0.5664 -0.9675  1.0091
23041SOL     OW70573   1.550   2.740   5.130  0.4592 -0.4614 -0.0517
23041SOL    HW170574   1.586   2.690   5.056  0.6717  0.1871 -0.3927
23041SOL    HW270575   1.621   2.744   5.193  0.8642  0.4335 -0.5371
23042SOL     OW70576   7.709   8.233   0.536 -0.6910 -0.1307 -0.1800
23042SOL    HW170577   7.735   8.213   0.626 -4.0997  1.9940  1.4998
23042SOL    HW270578   7.723   8.328   0.528 -3.0770  0.2424 -0.7633
23043SOL     OW70579   4.179   5.348   8.427 -0.0751 -0.7257  0.3494
23043SOL    HW170580   4.232   5.428   8.419  1.9233 -2.1003 -1.0825
23043SOL    HW270581   4.185   5.324   8.520  1.3869 -0.5366  0.3268
23044SOL     OW70582   1.642   1.754   8.848 -0.0096  0.0727  0.2211
23044SOL    HW170583   1.576   1.689   8.872 -0.1187 -0.0337 -0.3335
23044SOL    HW270584   1.600   1.838   8.866 -0.9481  0.0593 -1.6157
23045SOL     OW70585   1.343   1.376   7.620  0.1102  0.6432 -0.2082
23045SOL    HW170586   1.307   1.306   7.674 -0.5214 -1.0082 -2.6290
23045SOL    HW270587   1.438   1.367   7.630  0.0175  0.0662  0.2204
23046SOL     OW70588   0.540   4.789   1.293 -0.0622 -1.5669 -0.0195
23046SOL    HW170589   0.580   4.789   1.207  0.1881 -0.9046  0.0931
23046SOL    HW270590   0.602   4.742   1.349 -0.3894 -2.3136 -0.2631
23047SOL     OW70591   4.639   6.456   4.156  1.1768  0.1976 -0.8806
23047SOL    HW170592   4.590   6.374   4.154 -1.5963  1.6989  0.2260
23047SOL    HW270593   4.712   6.441   4.096  0.5772 -2.9088 -1.0257
23048SOL     OW70594   2.457   5.819   3.795  0.2065 -0.5066  0.3379
23048SOL    HW170595   2.391   5.750   3.785 -0.2795  0.2994 -3.2218
23048SOL    HW270596   2.515   5.808   3.720  1.1975  1.8664  0.6700
23049SOL     OW70597   2.815   4.803   4.797 -0.7082  0.3201  0.0435
23049SOL    HW170598   2.755   4.876   4.816 -1.5063 -0.8735  2.7084
23049SOL    HW270599   2.758   4.727   4.792  0.2692 -0.3633 -1.1501
23050SOL     OW70600   7.954   4.962   4.200 -0.9167 -0.3824  0.0095
23050SOL    HW170601   7.906   4.900   4.255  1.7904 -1.5962  1.2100
23050SOL    HW270602   8.011   4.908   4.146  0.6274  0.9816  0.1840
23051SOL     OW70603   7.989   7.228   2.097  0.4416  0.5027  0.1290
23051SOL    HW170604   7.902   7.189   2.088  1.1507 -1.9298  2.4826
23051SOL    HW270605   7.974   7.313   2.138 -0.7990 -0.3634  1.5515
23052SOL     OW70606   2.527   4.179   4.839  0.0622  0.2098 -0.2061
23052SOL    HW170607   2.611   4.224   4.838 -0.9326  2.2012 -0.7655
23052SOL    HW270608   2.521   4.141   4.926  2.5829 -2.2100 -0.9583
23053SOL     OW70609   4.644   0.043   3.865 -0.0573  0.2653  0.1087
23053SOL    HW170610   4.647   0.061   3.771  1.4071 -1.0771 -0.1604
23053SOL    HW270611   4.624   0.127   3.906  1.5073  1.3666 -1.2790
23054SOL     OW70612   4.704   8.135   6.788 -0.1706  0.0452  0.3228
23054SOL    HW170613   4.724   8.214   6.838 -1.3976  0.6979 -0.1644
23054SOL    HW270614   4.754   8.066   6.831  1.5095  1.1896  0.3289
23055SOL     OW70615   8.149   8.440   6.461 -0.4196  0.0682  0.0161
23055SOL    HW170616   8.060   8.469   6.478 -0.2359 -0.0968  1.3227
23055SOL    HW270617   8.203   8.515   6.484  0.0236 -1.0230  2.8892
23056SOL     OW70618   5.264   5.502   6.772  0.3984 -0.0278  0.1498
23056SOL    HW170619   5.350   5.468   6.797  1.1543  0.9284 -1.0229
23056SOL    HW270620   5.278   5.543   6.687 -1.9166 -2.5310 -1.5937
23057SOL     OW70621   1.134   3.308   4.121 -0.4480  0.3328  0.0344
23057SOL    HW170622   1.210   3.325   4.064  0.2459 -1.5772  0.3049
23057SOL    HW270623   1.075   3.256   4.066 -0.3718 -0.3972  0.6331
23058SOL     OW70624   0.695   0.020   7.651  0.5795 -0.3550  0.2455
23058SOL    HW170625   0.667   0.111   7.646  0.1439 -0.5515 -1.5949
23058SOL    HW270626   0.662  -0.010   7.736 -0.4960  0.8198  0.2796
23059SOL     OW70627   5.739   6.431   5.220  0.1898 -0.1823 -0.1275
23059SOL    HW170628   5.674   6.484   5.174 -0.0970 -1.6868 -1.5733
23059SOL    HW270629   5.823   6.466   5.191  0.0232  0.3642  0.0357
23060SOL     OW70630   7.032   6.934   4.304 -0.0587 -0.3178  0.2384
23060SOL    HW170631   7.051   7.006   4.364 -2.2477  0.1491  0.4636
23060SOL    HW270632   7.046   6.972   4.217  0.8065 -0.2746  0.3871
23061SOL     OW70633   8.781   3.566   4.517 -0.0855 -0.5792 -0.0235
23061SOL    HW170634   8.754   3.572   4.425  1.4041 -2.8813 -0.6897
23061SOL    HW270635   8.873   3.593   4.517 -0.0209 -0.7750  0.7634
23062SOL     OW70636   7.578   6.713   5.148 -0.1966 -0.1045  0.3406
23062SOL    HW170637   7.494   6.670   5.157 -0.9488  1.3688  0.7410
23062SOL    HW270638   7.610   6.688   5.062 -1.8510  0.6441 -0.5233
23063SOL     OW70639   2.756   2.907   0.674 -0.3773  0.3588 -0.2049
23063SOL    HW170640   2.819   2.972   0.642 -0.7281  0.2898 -1.0593
23063SOL    HW270641   2.759   2.916   0.770  0.9210  0.3608 -0.2204
23064SOL     OW70642   9.248   8.721   3.742  0.6374  0.3329  0.1040
23064SOL    HW170643   9.310   8.677   3.799  0.4135 -1.4551 -0.9439
23064SOL    HW270644   9.182   8.757   3.801  1.0631 -0.3709  1.0378
23065SOL     OW70645   6.115   0.745   3.990  0.2921  0.1908 -0.5192
23065SOL    HW170646   6.068   0.663   3.974 -0.9214  0.7559  0.0129
23065SOL    HW270647   6.152   0.768   3.905  1.4149 -1.3475 -0.4829
23066SOL     OW70648   4.995   6.808   8.939 -0.2194  1.0672 -0.0017
23066SOL    HW170649   4.915   6.773   8.900 -0.2435  2.1544 -0.9839
23066SOL    HW270650   5.014   6.887   8.889  0.8066  1.4915  1.0013
23067SOL     OW70651   1.654   7.027   0.898  0.0274  0.2399 -0.2519
23067SOL    HW170652   1.738   6.985   0.883  0.7470  1.6077 -0.2749
23067SOL    HW270653   1.623   7.051   0.811 -0.7198 -0.8422 -0.2972
23068SOL     OW70654   5.336   7.653   6.494  0.0887  0.0257 -0.4836
23068SOL    HW170655   5.267   7.673   6.430 -2.8763 -1.2141  2.0863
23068SOL    HW270656   5.378   7.575   6.459  0.4664  0.9440 -2.2375
23069SOL     OW70657   0.736   3.186   7.124 -0.1478  0.1001  0.5006
23069SOL    HW170658   0.745   3.172   7.029  1.8482  0.0849  0.6517
23069SOL    HW270659   0.776   3.109   7.164  0.3475  0.7761  1.3454
23070SOL     OW70660   0.752   4.317   4.375 -0.1688 -0.1181 -0.9965
23070SOL    HW170661   0.665   4.316   4.416  1.5308  2.1530  3.2505
23070SOL    HW270662   0.790   4.231   4.397 -0.7504 -0.5144 -1.5067
23071SOL     OW70663   0.170   7.781   5.532 -0.0747  0.2142  0.6889
23071SOL    HW170664   0.198   7.804   5.621 -1.0982  0.7464  0.8945
23071SOL    HW270665   0.091   7.729   5.545  1.0584 -1.7254  0.1422
23072SOL     OW70666   0.653   0.995   5.870 -0.3362 -0.6579 -0.0362
23072SOL    HW170667   0.667   0.922   5.809  1.5966  0.1736 -0.6802
23072SOL    HW270668   0.559   1.015   5.862 -0.8195 -2.7455 -0.1680
23073SOL     OW70669   0.926   4.802   8.037  0.3495 -0.0400 -0.1786
23073SOL    HW170670   0.976   4.845   7.968 -2.3739  0.6701 -1.8542
23073SOL    HW270671   0.907   4.872   8.100 -1.5590  0.6168 -1.4093
23074SOL     OW70672   6.474   6.742   5.979  0.7513 -0.3331  0.2254
23074SOL    HW170673   6.483   6.838   5.980 -1.4454 -0.0806 -0.1783
23074SOL    HW270674   6.494   6.717   5.889 -1.6967  0.1614 -0.5319
23075SOL     OW70675   1.530   0.014   8.502  0.2671 -0.1601  0.6254
23075SOL    HW170676   1.617   0.053   8.496  0.3512 -0.4703 -0.4718
23075SOL    HW270677   1.521  -0.037   8.422 -0.4307 -1.1740  1.3281
23076SOL     OW70678   8.598   3.058   6.325  0.3103 -0.1671 -0.5969
23076SOL    HW170679   8.569   3.016   6.406  1.2373 -0.3374 -0.3473
23076SOL    HW270680   8.517   3.081   6.280 -0.2151  0.3308  0.5816
23077SOL     OW70681   6.882   5.941   8.602 -0.3462  0.2357 -0.4759
23077SOL    HW170682   6.898   5.896   8.684  0.0739 -0.4245 -0.9065
23077SOL    HW270683   6.795   5.980   8.612 -0.5832 -0.4106  0.0241
23078SOL     OW70684   0.697   4.526   2.060  0.1205  0.0605  0.3408
23078SOL    HW170685   0.646   4.555   1.984  0.6376  0.5065  0.1609
23078SOL    HW270686   0.631   4.494   2.122 -0.5400  2.0969  0.7614
23079SOL     OW70687   0.675   7.643   3.735 -0.6274 -0.3734 -0.2168
23079SOL    HW170688   0.712   7.601   3.657  0.5731 -0.6392  0.4731
23079SOL    HW270689   0.635   7.570   3.784 -2.3968 -0.0554 -1.0848
23080SOL     OW70690   3.745   3.088   4.854 -0.0931 -0.1013  0.8076
23080SOL    HW170691   3.817   3.037   4.818  0.0354  0.5025  0.1888
23080SOL    HW270692   3.784   3.141   4.924  0.2656  0.9135 -0.1421
23081SOL     OW70693   7.044   2.665   4.000  0.0599  0.3929  0.0926
23081SOL    HW170694   7.104   2.733   4.027  0.1219 -0.2362  1.6641
23081SOL    HW270695   7.023   2.685   3.909  2.2898  0.8642 -0.3652
23082SOL     OW70696   1.236   9.161   7.857  0.3630 -0.3866 -0.3832
23082SOL    HW170697   1.277   9.159   7.770  0.5583 -2.1468 -0.2854
23082SOL    HW270698   1.303   9.196   7.914  0.2979  0.6156 -0.8987
23083SOL     OW70699   4.174   7.022   4.022  0.8141 -0.5971  0.5068
23083SOL    HW170700   4.240   6.995   3.958  1.3030 -1.4440  1.3470
23083SOL    HW270701   4.139   6.939   4.056  0.7771 -0.1600  1.5604
23084SOL     OW70702   8.157   6.209   6.417  0.1112  0.3916  0.5631
23084SOL    HW170703   8.244   6.200   6.378  0.4403  0.3345  1.2896
23084SOL    HW270704   8.147   6.130   6.471 -0.5655  0.1917  0.1608
23085SOL     OW70705   5.500   3.356   0.145 -0.8318 -0.4745 -0.3294
23085SOL    HW170706   5.490   3.355   0.049 -0.8307 -1.3086 -0.3207
23085SOL    HW270707   5.430   3.413   0.175 -1.5797 -1.1604 -0.7450
23086SOL     OW70708   8.238   3.053   6.826 -0.2136  0.0743  0.4342
23086SOL    HW170709   8.188   3.034   6.905 -0.0008  0.8579  0.7724
23086SOL    HW270710   8.320   3.005   6.837  0.2707  1.0590  1.2173
23087SOL     OW70711   6.772   2.188   1.715  0.4032  0.1355  0.0053
23087SOL    HW170712   6.724   2.133   1.777  0.5479 -1.4481 -1.2202
23087SOL    HW270713   6.738   2.163   1.629  1.8252  0.6139 -0.7318
23088SOL     OW70714   7.006   0.634   9.024  0.6116  0.0650  0.2252
23088SOL    HW170715   6.938   0.625   9.090  1.5095 -1.1388  1.0476
23088SOL    HW270716   7.009   0.727   9.004 -0.4158  0.3031  1.1012
23089SOL     OW70717   2.192   6.630   3.114 -0.0152  0.3231  0.1418
23089SOL    HW170718   2.242   6.653   3.192  0.2145 -1.8428  0.7052
23089SOL    HW270719   2.119   6.577   3.147 -0.8383  0.7278 -0.9709
23090SOL     OW70720   7.545   3.543   0.532 -0.0114  0.3481 -0.0496
23090SOL    HW170721   7.583   3.483   0.596  0.1805  1.6613  1.0946
23090SOL    HW270722   7.563   3.502   0.447  0.3896 -1.0443  0.6825
23091SOL     OW70723   0.319   8.354   6.567 -0.2600 -0.3092  0.2831
23091SOL    HW170724   0.312   8.354   6.471 -1.2602  0.5292  0.3458
23091SOL    HW270725   0.381   8.424   6.587  0.6208 -1.0437  0.2323
23092SOL     OW70726   2.557   3.308   4.122 -0.2093 -0.3671 -0.1729
23092SOL    HW170727   2.510   3.279   4.045 -0.7732 -1.6574  0.6241
23092SOL    HW270728   2.491   3.349   4.177  0.1058  0.1435 -0.1609
23093SOL     OW70729   8.381   0.153   0.490 -0.3647  0.2418 -0.3770
23093SOL    HW170730   8.416   0.064   0.495 -1.4970 -0.1871  0.5255
23093SOL    HW270731   8.455   0.210   0.512  0.1236 -0.5426  0.0411
23094SOL     OW70732   8.016   4.718   2.972  0.3869  0.2827 -0.2277
23094SOL    HW170733   8.005   4.798   3.025  1.3566  1.5541 -1.8467
23094SOL    HW270734   8.107   4.721   2.944 -0.6881  1.1278 -4.1362
23095SOL     OW70735   7.799   0.528   8.383 -0.4213 -0.4403  0.4125
23095SOL    HW170736   7.709   0.556   8.364 -0.1798  0.3650  0.4334
23095SOL    HW270737   7.819   0.568   8.468 -0.7769 -2.3541  1.4361
23096SOL     OW70738   6.264   3.727   2.744 -0.2253 -0.2779 -0.0338
23096SOL    HW170739   6.257   3.769   2.658  1.1507 -2.0777 -1.1066
23096SOL    HW270740   6.352   3.690   2.745 -0.7792 -1.6503  1.5146
23097SOL     OW70741   3.810   2.237   3.457 -0.7393  0.1907 -0.3383
23097SOL    HW170742   3.895   2.218   3.417  0.3698  0.6361  1.6706
23097SOL    HW270743   3.793   2.162   3.514 -0.6648  1.0072  0.8136
23098SOL     OW70744   6.885   4.077   1.110 -0.4207  0.2006  0.6225
23098SOL    HW170745   6.966   4.102   1.067  0.4938  0.7626  2.5584
23098SOL    HW270746   6.851   4.004   1.058  0.0823  1.4391 -1.5570
23099SOL     OW70747   7.929   8.251   2.110  0.3708 -0.1951 -0.0604
23099SOL    HW170748   7.842   8.235   2.145  0.8202 -0.7304  0.8530
23099SOL    HW270749   7.977   8.170   2.126  1.4614  0.5725  0.7832
23100SOL     OW70750   3.176   2.779   4.096  0.2842 -0.4919  0.1037
23100SOL    HW170751   3.272   2.776   4.096  0.2619 -1.6256  0.0011
23100SOL    HW270752   3.151   2.723   4.169 -0.3171 -1.3547 -0.7414
23101SOL     OW70753   3.766   6.067   6.236 -0.4080 -0.0264  0.1739
23101SOL    HW170754   3.816   5.995   6.276  0.3990  0.0575 -0.6379
23101SOL    HW270755   3.768   6.137   6.302  1.9332  0.5472 -0.4037
23102SOL     OW70756   0.213   4.556   8.431  0.4773 -0.3120  0.4943
23102SOL    HW170757   0.306   4.535   8.434  0.1320 -2.5342 -1.2651
23102SOL    HW270758   0.173   4.497   8.495  0.1615 -0.1614  0.4370
23103SOL     OW70759   1.078   5.309   5.058 -0.1637 -0.3687 -0.1217
23103SOL    HW170760   1.028   5.368   5.001  0.9976 -0.2921 -1.1194
23103SOL    HW270761   1.149   5.277   5.002  0.6131 -0.8535  1.1022
23104SOL     OW70762   1.600   8.677   2.685  0.4605 -0.1757  0.2236
23104SOL    HW170763   1.671   8.646   2.628 -0.1293  0.1076 -0.6904
23104SOL    HW270764   1.597   8.613   2.756 -1.4394 -3.0071 -2.1469
23105SOL     OW70765   5.421   9.177   5.706 -0.0541 -0.0027  0.0932
23105SOL    HW170766   5.331   9.152   5.684 -0.3103  1.8532 -1.1316
23105SOL    HW270767   5.470   9.160   5.626  0.4753  0.0332  0.4078
23106SOL     OW70768   4.548   1.358   0.315  0.3959 -0.0523  0.4526
23106SOL    HW170769   4.583   1.361   0.226  1.1051  1.1618  0.7589
23106SOL    HW270770   4.572   1.441   0.353 -0.1861 -0.4328  1.6955
23107SOL     OW70771   3.399   0.785   2.760  0.1571  0.0688 -0.1099
23107SOL    HW170772   3.394   0.878   2.739 -2.9488 -0.1553 -0.8754
23107SOL    HW270773   3.349   0.742   2.690  0.7330 -2.0755  0.7193
23108SOL     OW70774   4.539   7.075   0.112 -0.2879 -0.6256  0.2846
23108SOL    HW170775   4.489   7.142   0.066 -0.1495  0.2471  1.3706
23108SOL    HW270776   4.503   7.074   0.201 -0.0943 -1.7965  0.3756
23109SOL     OW70777   8.656   0.061   1.211 -0.1908 -0.5585  0.4004
23109SOL    HW170778   8.643  -0.033   1.197  0.9583 -0.4858 -1.5774
23109SOL    HW270779   8.635   0.101   1.126 -0.6914  1.0001  1.2122
23110SOL     OW70780   7.405   0.350   6.505  0.0634  0.2028  0.5074
23110SOL    HW170781   7.435   0.386   6.422  2.3973  0.6341  1.4509
23110SOL    HW270782   7.330   0.404   6.529 -0.4031  0.3085 -1.1202
23111SOL     OW70783   8.096   2.626   7.830 -0.0544  0.1932 -0.7731
23111SOL    HW170784   8.073   2.533   7.825 -2.4576  0.6260  0.7348
23111SOL    HW270785   8.192   2.627   7.832  0.1062 -2.5669  2.7907
23112SOL     OW70786   1.796   1.835   8.077 -0.4065  0.4295  0.2113
23112SOL    HW170787   1.797   1.743   8.104 -0.0684  0.2939 -0.2516
23112SOL    HW270788   1.763   1.833   7.987 -1.5023  0.8764  0.5817
23113SOL     OW70789   3.823   3.201   0.015 -0.4324 -0.4642 -0.2734
23113SOL    HW170790   3.731   3.178   0.028 -0.0708 -0.7225  2.1764
23113SOL    HW270791   3.848   3.247   0.095  1.2925  0.5997 -1.3565
23114SOL     OW70792   3.973   6.248   5.070 -0.1845 -0.4210  0.1203
23114SOL    HW170793   4.036   6.308   5.030  0.8880 -1.4567  0.2211
23114SOL    HW270794   3.896   6.303   5.087  1.3764  1.3815  1.8688
23115SOL     OW70795   7.986   4.569   2.282  0.6404  0.2223 -0.0843
23115SOL    HW170796   7.924   4.605   2.219  0.5882  0.7319  0.2588
23115SOL    HW270797   7.948   4.588   2.368  0.8124 -0.2856  0.1123
23116SOL     OW70798   2.620   4.236   2.769  0.2579 -0.0917  0.4296
23116SOL    HW170799   2.680   4.178   2.721  1.3583  1.0128  0.4242
23116SOL    HW270800   2.616   4.198   2.857  1.9832  0.4882  0.8007
23117SOL     OW70801   1.608   1.490   3.022 -0.3297 -0.5205  0.1956
23117SOL    HW170802   1.633   1.475   3.113 -0.2995 -1.2630  0.0692
23117SOL    HW270803   1.629   1.408   2.977  0.6333  0.1744 -0.6996
23118SOL     OW70804   6.042   5.304   5.812  0.8750  0.2517  0.3744
23118SOL    HW170805   6.118   5.261   5.853  2.1685  1.7812 -0.3038
23118SOL    HW270806   6.028   5.383   5.864  1.2584  1.1827 -0.8839
23119SOL     OW70807   0.593   4.969   1.993  0.2179  0.2755  0.1042
23119SOL    HW170808   0.510   4.930   1.963  0.7367 -0.9659  0.1961
23119SOL    HW270809   0.660   4.906   1.965  0.9572  0.4087  1.4928
23120SOL     OW70810   1.340   1.157   0.109 -0.3809  0.0628  0.1398
23120SOL    HW170811   1.289   1.235   0.131  0.3941  0.4249  0.7079
23120SOL    HW270812   1.406   1.150   0.179  0.3386 -0.3955 -0.5572
23121SOL     OW70813   7.484   5.064   5.402  0.0794 -0.5183 -0.0176
23121SOL    HW170814   7.559   5.110   5.364 -0.4276 -1.0222 -1.7263
23121SOL    HW270815   7.479   5.096   5.492  1.6404  0.3802 -0.2165
23122SOL     OW70816   1.100   4.230   1.385  0.2239  0.4142 -0.1927
23122SOL    HW170817   1.130   4.161   1.326 -1.4359 -0.1626 -0.3996
23122SOL    HW270818   1.146   4.212   1.467  0.1399 -0.6918 -0.3739
23123SOL     OW70819   8.206   8.482   7.576  0.0640 -0.2082  0.8889
23123SOL    HW170820   8.253   8.495   7.659  1.1887 -0.3746  0.2991
23123SOL    HW270821   8.122   8.444   7.602  0.8761 -1.4164  1.8821
23124SOL     OW70822   7.414   6.923   0.775 -0.0280 -0.1532  0.4537
23124SOL    HW170823   7.498   6.880   0.759 -0.5621 -0.5239 -1.7189
23124SOL    HW270824   7.419   7.004   0.725 -0.7010  0.1645  0.8909
23125SOL     OW70825   5.688   4.206   0.595  0.7468 -0.3399 -0.4220
23125SOL    HW170826   5.712   4.299   0.596  0.7090 -0.3226  0.6710
23125SOL    HW270827   5.737   4.168   0.668  2.1702 -1.5724 -1.9546
23126SOL     OW70828   2.892   6.136   4.309  0.0053  0.4573 -0.2353
23126SOL    HW170829   2.900   6.159   4.216 -0.3029  0.5183 -0.2453
23126SOL    HW270830   2.798   6.134   4.326  0.0622  0.4953  0.0902
23127SOL     OW70831   6.163   8.000   6.845  0.0220 -0.7765 -0.2710
23127SOL    HW170832   6.186   8.093   6.850 -1.2992 -0.3983 -0.7512
23127SOL    HW270833   6.241   7.958   6.807  1.0540 -0.0594  0.9878
23128SOL     OW70834   1.676   3.592   5.955 -0.2056 -0.0096 -0.0055
23128SOL    HW170835   1.587   3.576   5.987 -0.3546  0.4105 -0.2065
23128SOL    HW270836   1.717   3.505   5.956 -0.7955 -0.3005 -0.4638
23129SOL     OW70837   3.582   4.811   6.389  0.3246 -0.1878  0.2494
23129SOL    HW170838   3.531   4.807   6.470  0.0093  2.9988  0.3330
23129SOL    HW270839   3.647   4.880   6.406  0.6976  0.0638 -1.9865
23130SOL     OW70840   6.331   0.219   3.506 -0.3289 -0.3431 -0.6941
23130SOL    HW170841   6.377   0.136   3.515  2.9840  1.5541  2.9614
23130SOL    HW270842   6.238   0.196   3.510  0.3611 -3.8993 -1.8475
23131SOL     OW70843   0.692   5.077   5.418 -0.1027  0.6784 -0.0964
23131SOL    HW170844   0.776   5.118   5.437  0.6891 -0.8667 -0.1320
23131SOL    HW270845   0.665   5.038   5.502 -0.7718  1.1251 -0.0934
23132SOL     OW70846   3.652   1.912   5.358 -0.4843 -0.2621 -0.2294
23132SOL    HW170847   3.576   1.854   5.349 -0.1727 -0.7895  0.4084
23132SOL    HW270848   3.671   1.941   5.269 -1.7746  0.3346 -0.3422
23133SOL     OW70849   1.319   6.835   6.848 -0.1986  0.2211 -0.4173
23133SOL    HW170850   1.308   6.910   6.790  2.0588 -1.0320 -2.6578
23133SOL    HW270851   1.259   6.769   6.813  1.2786 -0.5914 -1.5603
23134SOL     OW70852   2.838   3.056   6.468  0.0140  0.1531  0.1747
23134SOL    HW170853   2.781   2.986   6.435  0.7868 -1.2426  1.6090
23134SOL    HW270854   2.878   3.094   6.390 -1.2906 -0.2329 -0.7129
23135SOL     OW70855   7.858   4.025   2.317 -0.4641 -0.3010  0.0456
23135SOL    HW170856   7.771   4.054   2.288 -0.7873 -2.7847 -1.8946
23135SOL    HW270857   7.918   4.064   2.254 -0.6474 -1.6682 -1.0349
23136SOL     OW70858   4.885   4.586   2.403  0.0778  0.1265 -0.3820
23136SOL    HW170859   4.848   4.613   2.488  0.6358 -1.3141  0.3470
23136SOL    HW270860   4.950   4.653   2.384  0.5074  0.0544  0.7338
23137SOL     OW70861   9.176   1.080   2.066  0.1174  0.0843 -0.4019
23137SOL    HW170862   9.162   1.100   1.973  0.6508  1.5938 -0.1833
23137SOL    HW270863   9.265   1.108   2.084  0.1928 -0.6606  0.4621
23138SOL     OW70864   3.562   5.323   4.702 -0.2378  0.2349 -0.0458
23138SOL    HW170865   3.503   5.377   4.649  1.6253  2.7669  0.3055
23138SOL    HW270866   3.524   5.323   4.789 -0.1029  1.2778  0.0207
23139SOL     OW70867   5.598   0.320   9.217  0.3821 -0.0139 -0.0574
23139SOL    HW170868   5.630   0.348   9.131 -0.9757 -1.2589 -0.9947
23139SOL    HW270869   5.561   0.400   9.255  0.4092  0.4070 -0.8897
23140SOL     OW70870   8.881   1.140   2.884 -0.0345 -0.1143 -0.1374
23140SOL    HW170871   8.821   1.201   2.928 -0.7356  0.5620 -1.9293
23140SOL    HW270872   8.838   1.054   2.894 -1.0314  0.2777 -0.9065
23141SOL     OW70873   6.457   6.421   7.061 -0.0492  0.0488 -0.3744
23141SOL    HW170874   6.457   6.435   6.966  2.2591  2.2200 -0.1399
23141SOL    HW270875   6.464   6.508   7.099  0.9337 -0.8716  1.7341
23142SOL     OW70876   5.376   7.454   2.204  0.4527 -0.2142 -0.3239
23142SOL    HW170877   5.339   7.519   2.144  3.2307  0.8634 -1.0167
23142SOL    HW270878   5.341   7.371   2.173 -0.7714  0.6417 -1.3534
23143SOL     OW70879   8.789   5.729   5.043 -0.4778 -0.2149 -0.2340
23143SOL    HW170880   8.778   5.820   5.016 -1.8024 -0.1671  0.3390
23143SOL    HW270881   8.860   5.695   4.989  0.1367  1.1984 -0.3450
23144SOL     OW70882   6.076   4.748   3.619 -0.1167 -0.1900  0.0094
23144SOL    HW170883   6.010   4.689   3.654  1.9333 -1.5443  1.8668
23144SOL    HW270884   6.053   4.759   3.527 -2.5298 -1.0919  0.4502
23145SOL     OW70885   6.189   9.138   0.972  0.0470 -0.0800  0.1313
23145SOL    HW170886   6.201   9.229   0.946  0.4760  1.0200  3.7082
23145SOL    HW270887   6.100   9.135   1.008  0.4509 -0.7526  1.1162
23146SOL     OW70888   1.467   7.040   1.127 -0.2667 -0.2187  0.1343
23146SOL    HW170889   1.421   7.120   1.102 -0.1324 -0.1940 -0.0395
23146SOL    HW270890   1.538   7.032   1.063  0.5179  0.2261  0.9256
23147SOL     OW70891   2.742   0.776   0.482  0.3076  0.4667  0.1147
23147SOL    HW170892   2.665   0.778   0.425 -0.8881 -1.2594  1.5669
23147SOL    HW270893   2.737   0.857   0.532  0.5378  1.2742 -1.1095
23148SOL     OW70894   6.983   4.160   5.839  0.0182  0.3481 -0.0791
23148SOL    HW170895   7.056   4.222   5.828 -0.0646  0.4810  0.1140
23148SOL    HW270896   6.927   4.176   5.763  1.7191 -1.8774 -1.9218
23149SOL     OW70897   0.907   2.242   7.772 -0.1766  0.2785 -0.9439
23149SOL    HW170898   0.863   2.290   7.702 -0.1835  0.3529 -0.8882
23149SOL    HW270899   0.863   2.157   7.775 -0.1918  0.2839 -1.0140
23150SOL     OW70900   8.194   5.242   4.182 -0.6023  0.4435  0.7501
23150SOL    HW170901   8.226   5.331   4.197 -0.0236  0.4714 -0.5654
23150SOL    HW270902   8.259   5.185   4.224 -0.5298  0.5972  0.8451
23151SOL     OW70903   5.206   3.730   4.187 -0.0425 -0.6570  0.4827
23151SOL    HW170904   5.211   3.635   4.198 -0.3194 -0.8437 -0.7763
23151SOL    HW270905   5.285   3.763   4.229  0.5237 -1.5371  0.1459
23152SOL     OW70906   5.505   0.121   6.252 -0.1341 -0.1991  0.1338
23152SOL    HW170907   5.513   0.195   6.192 -1.1210 -0.7204 -0.6621
23152SOL    HW270908   5.416   0.126   6.285  0.6743  0.6669  2.3808
23153SOL     OW70909   3.702   6.699   4.567  0.2137 -0.2409 -0.3034
23153SOL    HW170910   3.635   6.764   4.547  0.0423 -0.2110  0.3689
23153SOL    HW270911   3.653   6.620   4.592  0.4159 -0.6702 -1.2146
23154SOL     OW70912   5.843   9.231   7.014  0.3259 -0.2709 -0.0107
23154SOL    HW170913   5.815   9.215   7.105 -1.7204 -0.1373 -0.5636
23154SOL    HW270914   5.910   9.299   7.022 -1.1962  1.1814  1.3069
23155SOL     OW70915   2.131   2.567   8.329  0.4506  0.1916  0.0795
23155SOL    HW170916   2.197   2.610   8.274  1.8526  0.1828  1.6685
23155SOL    HW270917   2.113   2.630   8.399 -0.1105 -0.4027  0.4845
23156SOL     OW70918   3.959   5.425   3.619 -0.5794 -0.1058  0.0170
23156SOL    HW170919   3.941   5.371   3.541  0.7002  1.1006 -1.1643
23156SOL    HW270920   3.872   5.440   3.657 -1.1716 -1.2861 -0.7873
23157SOL     OW70921   0.930   3.514   1.310  0.8009 -0.1116  0.3970
23157SOL    HW170922   0.854   3.506   1.368  0.5306  0.8998  0.1873
23157SOL    HW270923   0.973   3.595   1.338  1.0376  0.0393 -0.3879
23158SOL     OW70924   7.274   2.229   9.000  0.0208 -0.1990 -0.3950
23158SOL    HW170925   7.221   2.235   9.080  0.0820 -1.9541 -0.1852
23158SOL    HW270926   7.211   2.236   8.929 -0.0382  1.3537 -0.2314
23159SOL     OW70927   0.900   8.845   5.484  0.0602 -0.1626 -0.0063
23159SOL    HW170928   0.827   8.883   5.435  0.2646  0.7752  0.3917
23159SOL    HW270929   0.872   8.756   5.504 -0.1634 -0.4791 -1.5524
23160SOL     OW70930   4.998   2.351   4.817  0.1563  0.5250  0.1735
23160SOL    HW170931   4.967   2.273   4.771  2.5321 -0.6868  0.4479
23160SOL    HW270932   4.920   2.387   4.859 -0.8515 -2.5998  1.2916
23161SOL     OW70933   7.720   9.095   6.857 -0.1370  0.1006 -0.3553
23161SOL    HW170934   7.811   9.098   6.825 -0.1835  2.1382 -0.4199
23161SOL    HW270935   7.668   9.127   6.783 -0.9243 -1.0190 -0.3016
23162SOL     OW70936   2.402   5.559   8.212  0.5043  0.0828  0.6155
23162SOL    HW170937   2.335   5.491   8.212 -0.2527  0.8017  1.4818
23162SOL    HW270938   2.482   5.515   8.242  0.4666 -0.8052 -0.5315
23163SOL     OW70939   2.261   3.221   5.889  0.3574 -0.5797 -0.0326
23163SOL    HW170940   2.242   3.230   5.982 -0.1895  1.7015 -0.3124
23163SOL    HW270941   2.284   3.129   5.878 -0.1776 -1.0358  2.2335
23164SOL     OW70942   0.347   4.840   6.143  0.2465 -0.1336 -0.5286
23164SOL    HW170943   0.301   4.792   6.212  1.1264 -0.8312 -0.4147
23164SOL    HW270944   0.440   4.835   6.167  0.2985  3.6380  0.7932
23165SOL     OW70945   4.006   9.167   8.810 -0.8127  0.1770  0.1255
23165SOL    HW170946   3.974   9.077   8.819  1.1619 -0.4920  0.7445
23165SOL    HW270947   4.018   9.197   8.900  0.8673  0.1712 -0.0735
23166SOL     OW70948   6.819   6.003   2.115 -0.0573 -0.1780  0.2260
23166SOL    HW170949   6.871   5.966   2.044 -1.3174 -0.4422 -0.5990
23166SOL    HW270950   6.739   5.950   2.117 -1.2647  1.5454 -0.0129
23167SOL     OW70951   3.092   8.007   1.824 -0.8004  0.3383 -0.4012
23167SOL    HW170952   3.059   8.091   1.854  0.5330  0.7209  0.0343
23167SOL    HW270953   3.132   7.967   1.901 -1.1785 -0.5954 -0.6609
23168SOL     OW70954   4.650   5.254   9.158  0.0771  0.2255 -0.1557
23168SOL    HW170955   4.572   5.306   9.138  0.0117 -0.2177 -1.0848
23168SOL    HW270956   4.723   5.310   9.132  0.1436  1.0538  1.6430
23169SOL     OW70957   4.658   1.914   0.865 -0.2951 -0.7543  0.0211
23169SOL    HW170958   4.616   1.863   0.796 -1.0701  0.9836 -0.8734
23169SOL    HW270959   4.602   1.992   0.873  0.1123 -0.6292  2.2054
23170SOL     OW70960   5.172   3.746   2.909  0.0754  0.2097  0.2092
23170SOL    HW170961   5.257   3.778   2.940 -0.6398 -0.2946  3.0399
23170SOL    HW270962   5.188   3.657   2.880  0.4865  0.0110  1.0243
23171SOL     OW70963   3.800   6.905   2.314 -0.0581 -0.5039  0.0732
23171SOL    HW170964   3.790   6.992   2.276 -0.5843 -0.3437  0.5456
23171SOL    HW270965   3.804   6.846   2.239  1.7050  0.0387 -0.2933
23172SOL     OW70966   8.688   3.644   5.946  0.0860  0.0659 -0.0081
23172SOL    HW170967   8.687   3.606   5.858  2.2437 -2.0904  0.7982
23172SOL    HW270968   8.779   3.668   5.961  0.0669 -0.9795  2.1588
23173SOL     OW70969   2.161   0.755   3.929 -0.6130 -0.3711  0.5619
23173SOL    HW170970   2.177   0.725   4.018 -0.0894  3.4713  1.9447
23173SOL    HW270971   2.067   0.776   3.927 -0.3790  0.7678  0.6912
23174SOL     OW70972   5.911   5.996   0.608 -0.6977 -0.2752 -0.6847
23174SOL    HW170973   5.837   6.055   0.590 -0.7107 -0.0691  0.0450
23174SOL    HW270974   5.899   5.969   0.698  1.3186  1.5207  0.2058
23175SOL     OW70975   0.465   4.547   3.039 -0.1689 -0.0320  0.3462
23175SOL    HW170976   0.440   4.579   3.126  1.6989 -0.0566  0.9313
23175SOL    HW270977   0.427   4.610   2.978 -0.8232  0.4363  1.2279
23176SOL     OW70978   2.131   0.164   2.272  0.1595 -0.1625  0.2510
23176SOL    HW170979   2.205   0.222   2.289  0.3835 -0.8372  1.7628
23176SOL    HW270980   2.139   0.142   2.179  1.2848  0.5594  0.1515
23177SOL     OW70981   7.428   0.683   3.763 -0.6062  0.3296  0.0739
23177SOL    HW170982   7.394   0.648   3.681  0.5579  0.1499 -0.3398
23177SOL    HW270983   7.351   0.724   3.804 -1.9976 -2.4797  0.5199
23178SOL     OW70984   2.663   3.768   8.786  0.0226  0.3333  0.1792
23178SOL    HW170985   2.568   3.776   8.788 -0.0514 -0.6636  1.6962
23178SOL    HW270986   2.687   3.735   8.872  1.7573  0.5578 -0.1752
23179SOL     OW70987   3.118   5.283   5.125 -0.0032  0.0480  0.1333
23179SOL    HW170988   3.113   5.197   5.166 -2.5329 -0.2269 -0.5536
23179SOL    HW270989   3.053   5.336   5.173  0.6150  1.1967 -0.2592
23180SOL     OW70990   4.515   9.201   6.303 -0.2102 -0.2188 -0.3747
23180SOL    HW170991   4.449   9.243   6.248 -0.3181  0.0763 -0.0216
23180SOL    HW270992   4.589   9.262   6.302  0.2589 -0.7859 -1.1867
23181SOL     OW70993   0.505   7.653   8.849 -0.0465  0.0615 -0.1107
23181SOL    HW170994   0.596   7.678   8.866  0.0806 -0.4463 -0.0231
23181SOL    HW270995   0.500   7.639   8.755  0.1335 -0.5356 -0.0382
23182SOL     OW70996   8.787   2.118   1.704 -0.5324 -0.3908 -0.0801
23182SOL    HW170997   8.704   2.140   1.662 -0.2537 -0.3721 -0.6243
23182SOL    HW270998   8.762   2.081   1.789 -1.1599 -1.5114 -0.7316
23183SOL     OW70999   6.795   2.888   4.914  0.2022  0.1760  0.2511
23183SOL    HW171000   6.854   2.963   4.909  3.0026 -1.8730  0.1550
23183SOL    HW271001   6.762   2.890   5.004 -1.9311  2.8876 -0.4501
23184SOL     OW71002   1.644   4.718   0.781 -0.3585 -0.5435 -0.0855
23184SOL    HW171003   1.664   4.757   0.867 -0.9634 -1.0610  0.3043
23184SOL    HW271004   1.679   4.629   0.787  0.8192 -0.1490 -0.8902
23185SOL     OW71005   8.210   4.681   4.663 -0.4420 -0.0243 -0.1541
23185SOL    HW171006   8.196   4.774   4.645 -2.9082 -0.3657 -0.3412
23185SOL    HW271007   8.225   4.676   4.757  0.4831  0.6095 -0.2572
23186SOL     OW71008   7.776   7.024   2.023 -0.0804  0.1516 -0.3240
23186SOL    HW171009   7.716   6.952   2.040 -1.8994  1.5781 -0.2833
23186SOL    HW271010   7.810   7.007   1.935 -1.1939 -0.2995 -0.6887
23187SOL     OW71011   1.585   7.792   5.163 -0.6118 -0.2181  0.2017
23187SOL    HW171012   1.627   7.850   5.225 -1.1122  1.6259 -1.1069
23187SOL    HW271013   1.505   7.763   5.207 -1.0624  1.2134  0.3718
23188SOL     OW71014   1.265   1.486   5.362 -0.2146  0.2095  0.5572
23188SOL    HW171015   1.261   1.526   5.276  1.3244 -2.1646 -0.7246
23188SOL    HW271016   1.330   1.538   5.409  0.4047  0.3420 -0.4224
23189SOL     OW71017   9.117   0.131   4.869 -0.6023 -0.2752  0.9326
23189SOL    HW171018   9.151   0.217   4.892  3.6022 -1.4295 -0.0792
23189SOL    HW271019   9.022   0.138   4.881 -0.2746  3.8821  2.5925
23190SOL     OW71020   8.621   1.541   0.402 -0.0901  0.0648 -0.1563
23190SOL    HW171021   8.643   1.457   0.362  0.8028  0.5248 -0.6531
23190SOL    HW271022   8.702   1.570   0.443 -0.5327  0.4446  0.4626
23191SOL     OW71023   7.603   4.867   4.488 -0.2031 -0.0155  0.0149
23191SOL    HW171024   7.679   4.923   4.475  0.2123 -1.1705 -3.5966
23191SOL    HW271025   7.530   4.918   4.451 -0.3152 -0.6498 -0.6759
23192SOL     OW71026   6.644   4.056   1.502 -0.1761 -0.1055  0.3123
23192SOL    HW171027   6.677   4.000   1.572  2.9413  0.0265 -0.9057
23192SOL    HW271028   6.631   3.996   1.428  0.9303  0.3767 -0.2983
23193SOL     OW71029   0.389   8.999   3.201 -0.0809  1.2788 -0.3377
23193SOL    HW171030   0.300   9.011   3.169 -0.1874 -0.8384 -0.9971
23193SOL    HW271031   0.379   8.970   3.292 -0.2307 -0.7907 -0.9532
23194SOL     OW71032   4.272   0.234   0.139  0.5653 -0.5651  0.2842
23194SOL    HW171033   4.211   0.274   0.202 -2.0971 -1.8507 -1.3040
23194SOL    HW271034   4.327   0.307   0.110  0.6858  0.4028  2.7261
23195SOL     OW71035   6.183   5.540   3.241 -0.3106 -0.2802 -0.0238
23195SOL    HW171036   6.178   5.469   3.177  0.2287  1.0290 -1.5876
23195SOL    HW271037   6.118   5.603   3.212 -0.5556  0.0324  1.1620
23196SOL     OW71038   6.449   1.249   8.246  0.1959  0.0532 -0.1105
23196SOL    HW171039   6.455   1.157   8.270  0.7923  0.2858  0.6546
23196SOL    HW271040   6.381   1.252   8.178 -0.5353 -0.8084  0.5647
23197SOL     OW71041   6.892   5.673   2.754  0.3966 -0.6632  0.3046
23197SOL    HW171042   6.977   5.699   2.789  0.6718  2.2044 -2.1273
23197SOL    HW271043   6.831   5.691   2.826  1.4346  0.6917  0.8987
23198SOL     OW71044   1.388   9.153   5.432 -0.3573 -0.0458 -0.2144
23198SOL    HW171045   1.457   9.104   5.475 -0.3196  0.8293  0.7644
23198SOL    HW271046   1.411   9.245   5.447 -2.4508  0.2954  1.3810
23199SOL     OW71047   5.969   8.506   3.296  0.4767 -0.2710  0.4218
23199SOL    HW171048   6.038   8.470   3.239 -0.3213  0.8893 -1.3620
23199SOL    HW271049   5.904   8.436   3.302  0.5599 -0.3984 -0.1194
23200SOL     OW71050   7.685   1.840   3.640 -0.4957  0.3047 -0.5048
23200SOL    HW171051   7.763   1.854   3.693  0.6845 -1.0601 -1.7943
23200SOL    HW271052   7.654   1.753   3.666 -1.1510  0.5086 -0.5658
23201SOL     OW71053   7.794   5.066   4.575  0.3245 -0.0088 -0.2502
23201SOL    HW171054   7.827   5.047   4.663 -1.2696  1.0181  0.6269
23201SOL    HW271055   7.872   5.068   4.520  1.4184 -0.1727  1.2235
23202SOL     OW71056   2.103   3.672   5.530  0.5494 -0.3438 -0.1462
23202SOL    HW171057   2.113   3.584   5.493 -1.5976 -0.5331 -0.3569
23202SOL    HW271058   2.189   3.713   5.517  1.4644 -2.2343 -0.4328
23203SOL     OW71059   5.043   3.660   0.867 -0.9168 -0.2770  0.1358
23203SOL    HW171060   5.005   3.674   0.780 -0.8436 -0.3343  0.0947
23203SOL    HW271061   4.972   3.681   0.928 -1.4611 -1.6972  0.0358
23204SOL     OW71062   2.916   6.015   0.706 -0.4906 -0.2759  0.2929
23204SOL    HW171063   2.838   6.034   0.654  0.9137 -0.1212 -1.8919
23204SOL    HW271064   2.989   6.022   0.644  1.3413  0.1528  2.3535
23205SOL     OW71065   0.013   0.327   6.281 -0.0756 -0.4832 -0.6588
23205SOL    HW171066   0.039   0.324   6.189  0.8781  0.6417 -0.4444
23205SOL    HW271067   0.039   0.242   6.316 -0.9345 -1.1330 -1.5278
23206SOL     OW71068   6.810   0.303   6.532  0.6803 -0.0690 -0.0043
23206SOL    HW171069   6.823   0.388   6.490  0.3715 -0.3335 -0.6433
23206SOL    HW271070   6.855   0.241   6.475  1.1929 -0.2978  0.6369
23207SOL     OW71071   2.510   8.090   2.221 -1.0129 -0.0994 -0.3245
23207SOL    HW171072   2.542   8.008   2.258 -1.6949  0.0404  0.6144
23207SOL    HW271073   2.589   8.133   2.187 -0.1694  0.1604  1.7872
23208SOL     OW71074   5.000   0.606   4.351 -0.1805 -0.3056 -0.8089
23208SOL    HW171075   5.094   0.612   4.335 -0.0213 -0.6174 -0.0743
23208SOL    HW271076   4.992   0.607   4.447 -0.5760 -4.2055 -0.6265
23209SOL     OW71077   5.397   3.362   3.699  0.5160 -0.1584 -0.0459
23209SOL    HW171078   5.339   3.287   3.711  1.3658 -0.6953  0.7354
23209SOL    HW271079   5.446   3.341   3.619  2.4764 -1.6158  1.4491
23210SOL     OW71080   4.161   2.091   6.163  0.1597 -0.3434 -0.4503
23210SOL    HW171081   4.113   2.091   6.080  2.8652  1.3826 -2.1717
23210SOL    HW271082   4.230   2.026   6.151  0.0249 -0.7510  0.8488
23211SOL     OW71083   3.191   0.931   5.247  0.2475 -0.8288 -0.3612
23211SOL    HW171084   3.241   0.874   5.189  1.6468  0.0089 -0.0122
23211SOL    HW271085   3.247   0.945   5.323 -0.6397 -0.1132  0.1927
23212SOL     OW71086   1.960   0.553   8.121  0.3660 -0.4789  0.2646
23212SOL    HW171087   2.016   0.535   8.197  2.2062  1.0196 -0.6348
23212SOL    HW271088   1.893   0.484   8.123  0.7049 -0.8274  2.8725
23213SOL     OW71089   7.688   5.158   8.541 -0.4289 -0.5174  0.2437
23213SOL    HW171090   7.763   5.161   8.602  0.4254 -2.6786 -0.5939
23213SOL    HW271091   7.728   5.158   8.454 -1.4777 -0.4259 -0.2529
23214SOL     OW71092   6.620   9.258   5.525  0.6936 -0.0608  0.0515
23214SOL    HW171093   6.638   9.288   5.614  3.7560 -3.0673  0.6197
23214SOL    HW271094   6.560   9.185   5.536  1.6346 -0.8957 -0.2224
23215SOL     OW71095   3.114   7.064   4.471  0.3204  0.1745 -0.3151
23215SOL    HW171096   3.085   7.031   4.555  1.7363  1.4254  0.7332
23215SOL    HW271097   3.034   7.086   4.424 -0.5422 -1.7823  0.1313
23216SOL     OW71098   7.337   2.609   0.634 -0.3697  0.1307  0.4180
23216SOL    HW171099   7.365   2.697   0.609 -0.7217  0.2802  0.5389
23216SOL    HW271100   7.303   2.620   0.723 -1.8660  0.1862 -0.1311
23217SOL     OW71101   8.914   2.514   8.028  0.2333  0.0353  0.4173
23217SOL    HW171102   9.001   2.554   8.033 -0.2211  1.1930 -0.5388
23217SOL    HW271103   8.885   2.510   8.119  0.9048  0.5274  0.6628
23218SOL     OW71104   2.870   4.737   0.963 -0.1598 -0.4279  0.4088
23218SOL    HW171105   2.790   4.713   1.009  0.5979 -0.1367  1.9647
23218SOL    HW271106   2.867   4.688   0.881 -1.3356 -1.3755  0.9945
23219SOL     OW71107   6.944   4.424   3.373  0.5854  0.2184 -0.2196
23219SOL    HW171108   6.928   4.510   3.335  0.3547  1.3446  2.2084
23219SOL    HW271109   6.941   4.439   3.468  2.1452 -2.1630  0.2991
23220SOL     OW71110   0.244   1.019   7.520  0.6163 -0.1859  0.0727
23220SOL    HW171111   0.286   1.087   7.574  0.4456 -0.9511  1.1986
23220SOL    HW271112   0.155   1.012   7.554  0.7960 -1.3534  0.3510
23221SOL     OW71113   2.620   2.550   1.010  0.6571  0.7229 -0.2083
23221SOL    HW171114   2.694   2.522   0.955  0.2263  0.9615 -0.9298
23221SOL    HW271115   2.638   2.511   1.096  1.8799  1.1938 -0.2245
23222SOL     OW71116   3.956   3.742   5.309 -0.5125 -0.2895 -0.1048
23222SOL    HW171117   3.950   3.735   5.213  0.8937 -0.4912 -0.2080
23222SOL    HW271118   3.898   3.674   5.342 -1.1717 -0.0824 -0.8095
23223SOL     OW71119   4.535   4.798   4.620  0.6249  0.2114 -0.1432
23223SOL    HW171120   4.528   4.889   4.647 -1.5387  0.1949 -0.4935
23223SOL    HW271121   4.588   4.800   4.541 -0.7787  1.4148 -1.1140
23224SOL     OW71122   4.897   1.049   0.282 -0.0045 -0.3488 -0.0583
23224SOL    HW171123   4.830   1.099   0.329 -1.2920 -0.4943 -1.6435
23224SOL    HW271124   4.923   1.106   0.209  1.2836 -0.4840  0.2671
23225SOL     OW71125   0.074   2.344   1.958 -0.3003 -0.5982  0.0244
23225SOL    HW171126   0.169   2.334   1.965 -0.3767 -1.3088  0.2089
23225SOL    HW271127   0.048   2.279   1.892 -0.4134  1.1615 -1.7411
23226SOL     OW71128   6.133   8.942   6.240  0.4633 -0.5179  0.4442
23226SOL    HW171129   6.183   8.898   6.309  2.1363  1.5095  0.5965
23226SOL    HW271130   6.160   8.898   6.159  0.5925 -1.0578  0.7742
23227SOL     OW71131   7.677   9.261   7.682 -0.6043 -0.3787 -0.0066
23227SOL    HW171132   7.679   9.351   7.716  2.2586 -0.1412 -0.5787
23227SOL    HW271133   7.656   9.271   7.589  1.2229 -0.1060 -0.4223
23228SOL     OW71134   9.108   6.382   5.388 -0.4306  0.0150 -0.0640
23228SOL    HW171135   9.017   6.368   5.363 -0.6344  1.6842 -0.3356
23228SOL    HW271136   9.110   6.371   5.483 -1.0627  0.6796  0.0294
23229SOL     OW71137   3.672   8.409   8.603 -0.4607  0.6775  0.4406
23229SOL    HW171138   3.690   8.317   8.584 -1.3699  0.5824 -0.0425
23229SOL    HW271139   3.688   8.454   8.520 -3.5623  0.3943 -0.4358
23230SOL     OW71140   4.876   5.500   6.556 -0.6632  0.3374  0.1789
23230SOL    HW171141   4.917   5.573   6.510  0.5468 -1.8519 -2.5097
23230SOL    HW271142   4.949   5.456   6.600 -0.8375 -0.8499 -0.6656
23231SOL     OW71143   7.279   6.352   2.537  0.1798 -0.3468  0.8666
23231SOL    HW171144   7.359   6.403   2.538  0.8171 -1.3419  1.6382
23231SOL    HW271145   7.300   6.275   2.484 -0.0767 -0.9040  1.5643
23232SOL     OW71146   7.749   2.150   3.459  0.1341  0.2067 -1.0536
23232SOL    HW171147   7.742   2.065   3.415 -0.2528  0.3788 -1.3343
23232SOL    HW271148   7.697   2.209   3.404 -1.2380  0.2061  0.2051
23233SOL     OW71149   5.558   2.535   4.023 -0.5446  0.8166 -0.0744
23233SOL    HW171150   5.478   2.530   3.971 -1.1799  1.7172  0.7766
23233SOL    HW271151   5.629   2.537   3.959 -1.0477 -1.7270 -0.8399
23234SOL     OW71152   6.707   1.384   5.159  0.0345 -0.3857 -0.3596
23234SOL    HW171153   6.649   1.343   5.094 -0.2884  1.2314 -1.1263
23234SOL    HW271154   6.736   1.466   5.118  2.2269 -0.7262  0.3331
23235SOL     OW71155   4.595   2.910   0.122  0.4449 -0.1212  0.5832
23235SOL    HW171156   4.586   2.998   0.086 -0.8621 -1.0306 -1.5187
23235SOL    HW271157   4.620   2.856   0.047 -0.3680 -1.7848  1.4515
23236SOL     OW71158   5.294   5.982   1.640  0.1421  0.0960 -0.4699
23236SOL    HW171159   5.367   5.938   1.596 -0.3401 -0.7693 -0.4227
23236SOL    HW271160   5.302   5.958   1.732 -1.4594 -1.8734 -0.7797
23237SOL     OW71161   1.908   8.107   7.668 -0.3370 -0.5136  0.2652
23237SOL    HW171162   1.843   8.046   7.632 -2.0262  0.0460  2.1647
23237SOL    HW271163   1.993   8.069   7.644 -1.3429 -2.0083 -1.1265
23238SOL     OW71164   0.617   3.144   8.009 -0.1572  0.3988 -0.3382
23238SOL    HW171165   0.622   3.239   8.017 -0.6308  0.4128 -0.1468
23238SOL    HW271166   0.584   3.128   7.920  0.9744  0.3775 -0.7591
23239SOL     OW71167   6.039   1.316   8.523  0.6295  0.4174  0.2223
23239SOL    HW171168   5.955   1.356   8.546  0.6321  0.1119  0.7920
23239SOL    HW271169   6.034   1.228   8.560  0.1695 -0.5467 -1.9800
23240SOL     OW71170   8.562   5.607   3.633  0.0498 -0.3432  0.5087
23240SOL    HW171171   8.616   5.636   3.706  0.3173  3.8201 -1.0994
23240SOL    HW271172   8.513   5.684   3.606 -1.7681 -2.2554 -2.3078
23241SOL     OW71173   7.063   0.675   1.598 -0.0893 -0.0363 -0.1263
23241SOL    HW171174   7.133   0.651   1.659 -0.3680 -0.9987 -0.1713
23241SOL    HW271175   7.043   0.766   1.620 -0.2220 -0.3784  1.2534
23242SOL     OW71176   6.100   1.429   0.615 -0.4310  0.1670 -0.1052
23242SOL    HW171177   6.118   1.340   0.645  0.5628  0.3199 -0.1884
23242SOL    HW271178   6.135   1.431   0.526  0.0227  0.7718  0.0758
23243SOL     OW71179   2.950   3.517   2.062  0.0427 -0.1353  0.5632
23243SOL    HW171180   2.990   3.596   2.026  0.8957 -1.3687 -1.3366
23243SOL    HW271181   2.857   3.538   2.067 -0.2275  0.0230 -2.8671
23244SOL     OW71182   4.554   2.641   1.899 -0.0071 -0.2812 -0.0300
23244SOL    HW171183   4.530   2.682   1.981  2.5257  0.5451  0.3879
23244SOL    HW271184   4.542   2.709   1.833  0.9978  0.1027  0.1652
23245SOL     OW71185   4.029   6.530   1.384  0.2875 -0.8292  0.3730
23245SOL    HW171186   4.065   6.518   1.472  0.3052 -0.0543  0.4746
23245SOL    HW271187   4.088   6.481   1.327  1.1735 -0.0497  0.6078
23246SOL     OW71188   4.110   1.829   8.383 -0.1846 -0.1407 -0.0870
23246SOL    HW171189   4.034   1.881   8.407  0.5801  0.0067  2.2036
23246SOL    HW271190   4.093   1.742   8.419  1.0754  0.1237  1.2009
23247SOL     OW71191   6.736   0.898   7.473  0.3650  0.0806  0.5412
23247SOL    HW171192   6.641   0.905   7.466  0.4823 -0.0551 -1.5605
23247SOL    HW271193   6.753   0.803   7.471  0.6254  0.1357 -0.9022
23248SOL     OW71194   4.964   2.759   6.989 -0.9016  0.3712 -0.0108
23248SOL    HW171195   4.965   2.773   7.084 -0.5125  1.6464 -0.1902
23248SOL    HW271196   4.882   2.711   6.973 -0.7694 -0.2176  1.0098
23249SOL     OW71197   5.950   5.025   6.461 -0.7437 -0.3659  0.3170
23249SOL    HW171198   5.912   5.022   6.549 -1.4526 -2.2224 -0.0047
23249SOL    HW271199   6.040   5.052   6.475 -0.4047 -2.0691  1.8256
23250SOL     OW71200   0.262   8.418   1.706 -1.0420 -0.2738 -0.2475
23250SOL    HW171201   0.355   8.438   1.712 -0.7759 -1.3097 -0.7507
23250SOL    HW271202   0.243   8.422   1.612 -1.5650  0.1826 -0.1257
23251SOL     OW71203   8.247   0.215   5.479  0.0101  0.1616 -0.2936
23251SOL    HW171204   8.192   0.285   5.443 -1.0923 -0.6948 -0.3290
23251SOL    HW271205   8.184   0.152   5.514  1.0012  0.2464  1.7977
23252SOL     OW71206   0.058   6.869   5.761 -0.6485  0.5446  0.0748
23252SOL    HW171207  -0.012   6.811   5.732  0.6200 -0.1945 -1.7390
23252SOL    HW271208   0.086   6.834   5.845 -1.8271  0.3023  0.3725
23253SOL     OW71209   4.634   7.924   0.047  0.6651  0.1552  0.2247
23253SOL    HW171210   4.628   7.829   0.039 -2.3182  0.3806 -1.3542
23253SOL    HW271211   4.691   7.951  -0.026  0.7569 -0.3367  0.1125
23254SOL     OW71212   7.802   4.750   4.324 -0.2066  0.4708  0.4619
23254SOL    HW171213   7.713   4.751   4.360 -0.4826  2.0331 -0.1917
23254SOL    HW271214   7.845   4.677   4.369 -0.9701  1.4104  2.8908
23255SOL     OW71215   0.764   2.040   5.548  0.1582 -0.3542  0.0801
23255SOL    HW171216   0.721   2.051   5.633  3.2549  0.0936  1.7060
23255SOL    HW271217   0.776   1.945   5.539 -0.1475 -0.3997  0.1219
23256SOL     OW71218   0.622   5.928   8.312 -0.5023  0.1523 -0.8501
23256SOL    HW171219   0.557   5.859   8.318  0.9900 -1.2935 -0.3424
23256SOL    HW271220   0.666   5.913   8.228  2.2918 -1.9582  0.8129
23257SOL     OW71221   6.541   2.967   8.600 -0.4452  0.7401 -0.0067
23257SOL    HW171222   6.611   3.012   8.553  0.2875 -0.7132 -0.3641
23257SOL    HW271223   6.503   3.034   8.657  1.4417  1.4994  0.4237
23258SOL     OW71224   3.570   1.242   6.650  0.1906  0.3038  0.0811
23258SOL    HW171225   3.646   1.296   6.628 -0.6618  1.0027 -1.3140
23258SOL    HW271226   3.495   1.300   6.636 -0.6130 -0.3755  1.4180
23259SOL     OW71227   5.721   6.821   6.660 -0.1263  0.1954 -0.0218
23259SOL    HW171228   5.770   6.889   6.706 -0.2745  0.2219  0.0982
23259SOL    HW271229   5.788   6.759   6.630 -0.0015  0.3391 -0.0406
23260SOL     OW71230   3.503   1.919   1.903 -0.1452 -0.0464  0.2165
23260SOL    HW171231   3.597   1.917   1.923  0.3049  1.9733 -1.4054
23260SOL    HW271232   3.497   1.965   1.820 -2.7645  2.7313  1.7356
23261SOL     OW71233   2.386   1.373   1.566 -0.2671  0.1583 -0.0946
23261SOL    HW171234   2.461   1.341   1.616 -0.0518 -0.2951 -0.6962
23261SOL    HW271235   2.310   1.348   1.618 -0.1421 -1.9669 -0.8637
23262SOL     OW71236   1.847   0.450   1.361  0.2395 -0.2298  0.5241
23262SOL    HW171237   1.870   0.453   1.454  1.2595  1.0542  0.2553
23262SOL    HW271238   1.848   0.541   1.332  0.8248 -0.6664 -0.9530
23263SOL     OW71239   2.987   4.235   6.532 -0.3268  0.2440  0.1862
23263SOL    HW171240   2.918   4.214   6.595  0.1200 -2.0617 -0.0146
23263SOL    HW271241   2.948   4.302   6.475 -1.8879  0.0026  0.9109
23264SOL     OW71242   9.259   6.939   4.543  0.2094 -0.3055 -0.4625
23264SOL    HW171243   9.351   6.938   4.572  0.4773  0.1019 -1.2504
23264SOL    HW271244   9.244   6.852   4.508  0.0365 -0.6395  0.4169
23265SOL     OW71245   3.722   9.201   0.527  0.4387 -0.1807 -0.4735
23265SOL    HW171246   3.689   9.280   0.483 -0.7156 -0.1196  0.4634
23265SOL    HW271247   3.658   9.184   0.596  1.1464 -1.4445 -0.1124
23266SOL     OW71248   7.573   7.929   2.021  0.2309 -0.2433  0.4363
23266SOL    HW171249   7.568   7.900   2.112  0.6735 -0.8862  0.2611
23266SOL    HW271250   7.562   7.850   1.970 -0.9734  0.2471 -0.1005
23267SOL     OW71251   2.836   8.779   7.877  0.1917  0.1617 -0.9730
23267SOL    HW171252   2.835   8.872   7.855  2.2726 -0.1869 -2.9552
23267SOL    HW271253   2.929   8.759   7.892 -0.3484 -1.3547  0.7189
23268SOL     OW71254   4.872   9.207   4.689  0.2373  0.3082  0.2629
23268SOL    HW171255   4.846   9.116   4.701 -0.0473  0.6085  2.2973
23268SOL    HW271256   4.806   9.244   4.632 -0.8484 -0.2506  1.1239
23269SOL     OW71257   0.614   0.817   1.299  0.1881 -0.3095 -0.0383
23269SOL    HW171258   0.609   0.824   1.204  0.6986 -0.7309 -0.1054
23269SOL    HW271259   0.658   0.733   1.314 -1.5340 -1.1340  0.6079
23270SOL     OW71260   5.719   5.664   8.625  0.4272 -0.5536  0.1221
23270SOL    HW171261   5.660   5.599   8.663 -0.0112  0.4117  1.1534
23270SOL    HW271262   5.805   5.624   8.630  0.3077 -0.6614  1.6975
23271SOL     OW71263   5.100   7.022   8.564 -0.2697 -0.2011 -0.3716
23271SOL    HW171264   5.098   7.057   8.653 -0.6794 -0.7581 -0.1569
23271SOL    HW271265   5.015   6.979   8.554  0.4504 -1.6708 -0.4095
23272SOL     OW71266   7.062   2.481   0.806  0.0484  0.6042  0.4848
23272SOL    HW171267   7.132   2.418   0.826  0.5649  1.1763  0.5052
23272SOL    HW271268   7.003   2.433   0.749 -0.3477 -0.3864  1.6770
23273SOL     OW71269   4.484   3.934   5.526  0.8740  0.1898 -0.4408
23273SOL    HW171270   4.462   3.950   5.618  1.2395  0.3002 -0.3704
23273SOL    HW271271   4.467   3.840   5.513 -2.3551  0.7680 -1.1532
23274SOL     OW71272   5.992   1.454   7.996  0.0201  0.5171 -0.2456
23274SOL    HW171273   5.943   1.464   7.914 -1.2964  0.0937  0.4543
23274SOL    HW271274   5.954   1.519   8.054 -0.5966 -0.6395  0.6970
23275SOL     OW71275   6.190   3.914   6.664 -0.2590  0.1672 -0.1288
23275SOL    HW171276   6.193   3.994   6.611  3.5053 -1.7943 -3.2932
23275SOL    HW271277   6.110   3.870   6.635 -1.6121  1.9774  0.6142
23276SOL     OW71278   3.534   1.566   0.085  0.1563 -0.2108 -0.6068
23276SOL    HW171279   3.589   1.493   0.056 -1.6647 -1.0095 -2.2937
23276SOL    HW271280   3.517   1.547   0.177  0.9006 -1.1138 -0.6308
23277SOL     OW71281   2.852   1.975   3.562  0.3733  0.2898 -0.1586
23277SOL    HW171282   2.833   1.926   3.483  1.2607 -0.8367  0.3017
23277SOL    HW271283   2.914   2.043   3.534  2.4860 -1.5131 -0.0586
23278SOL     OW71284   5.514   6.141   2.926  0.1995 -0.5794 -0.1368
23278SOL    HW171285   5.571   6.064   2.924  0.8396 -0.1096 -0.8846
23278SOL    HW271286   5.433   6.110   2.967  0.3464 -1.7191 -0.6522
23279SOL     OW71287   5.819   2.724   2.671  0.3563  0.5075 -0.4745
23279SOL    HW171288   5.882   2.782   2.714  0.9076  2.2262 -3.3471
23279SOL    HW271289   5.868   2.684   2.599 -0.6031 -1.9900  0.1281
23280SOL     OW71290   4.649   0.895   6.541  0.5165  0.0013  0.0296
23280SOL    HW171291   4.713   0.841   6.586 -2.5531 -0.9834  3.7753
23280SOL    HW271292   4.590   0.832   6.499 -0.0225  0.6730 -0.2456
23281SOL     OW71293   6.394   7.220   8.215 -0.3871  0.2291  0.0489
23281SOL    HW171294   6.484   7.199   8.240 -0.0090  2.3468  0.6641
23281SOL    HW271295   6.355   7.256   8.294 -2.3352 -2.0655  0.2528
23282SOL     OW71296   0.127   7.950   5.124 -0.6831  0.0018  0.2764
23282SOL    HW171297   0.213   7.907   5.118 -0.6577  0.1765 -0.9090
23282SOL    HW271298   0.126   7.988   5.212  1.0503  1.1872 -0.1634
23283SOL     OW71299   8.722   3.352   8.468 -0.0209  0.5817 -0.8353
23283SOL    HW171300   8.730   3.287   8.398  1.2985  0.0393 -0.2256
23283SOL    HW271301   8.662   3.312   8.531  1.0590 -0.2587 -0.2905
23284SOL     OW71302   4.662   4.851   5.543 -0.1148 -0.5607  0.4164
23284SOL    HW171303   4.649   4.879   5.452  0.3976 -0.2279  0.4368
23284SOL    HW271304   4.736   4.791   5.539  0.4925  0.1435  0.7220
23285SOL     OW71305   6.030   4.762   0.460 -0.5513 -0.5413  0.4386
23285SOL    HW171306   5.997   4.673   0.476 -1.3446 -0.6748 -1.6684
23285SOL    HW271307   6.074   4.785   0.542 -0.7405 -2.6753  1.2294
23286SOL     OW71308   7.034   5.227   5.969  0.0393  0.0391  0.0232
23286SOL    HW171309   7.109   5.272   5.929 -1.0450  2.8027  0.8127
23286SOL    HW271310   6.969   5.222   5.899  0.1385 -0.1862 -0.0496
23287SOL     OW71311   8.935   3.952   7.334  0.9855  0.5229  0.3604
23287SOL    HW171312   8.892   4.015   7.276  2.2395  0.6804 -0.4287
23287SOL    HW271313   8.946   3.874   7.279 -0.0738 -0.2305  1.1674
23288SOL     OW71314   4.902   7.203   7.096  0.2829  0.7022  0.3040
23288SOL    HW171315   4.874   7.113   7.083 -0.1323  0.8303  0.3036
23288SOL    HW271316   4.826   7.256   7.074  0.4132  1.0372  0.6366
23289SOL     OW71317   4.286   8.505   8.541  0.1832  0.3059  0.8552
23289SOL    HW171318   4.284   8.489   8.447  1.5668 -0.4917  0.9258
23289SOL    HW271319   4.194   8.503   8.568 -0.1322 -1.3344 -0.1904
23290SOL     OW71320   8.304   6.929   3.571  0.1339 -0.4848 -0.3633
23290SOL    HW171321   8.287   7.023   3.571 -0.7925 -0.5967 -2.2477
23290SOL    HW271322   8.393   6.921   3.538 -0.1063 -0.2766 -1.0901
23291SOL     OW71323   0.960   4.717   4.079 -0.0533 -0.2397  0.4308
23291SOL    HW171324   1.038   4.745   4.032 -1.7174  1.5457 -1.4260
23291SOL    HW271325   0.983   4.630   4.113  1.7358 -1.0826 -2.5593
23292SOL     OW71326   0.148   6.194   4.164 -0.2804  0.3216 -0.1887
23292SOL    HW171327   0.234   6.234   4.149 -0.6699  1.1323 -0.3496
23292SOL    HW271328   0.148   6.115   4.111  0.9574 -0.5416  1.0372
23293SOL     OW71329   4.797   7.386   0.987 -0.0192 -0.0436 -0.1201
23293SOL    HW171330   4.793   7.359   1.079  2.7883 -0.5814 -0.0730
23293SOL    HW271331   4.838   7.313   0.942 -2.4169 -0.2953 -2.1273
23294SOL     OW71332   4.314   3.485   4.046 -0.0813  0.6960 -0.0121
23294SOL    HW171333   4.386   3.423   4.054 -0.8394 -0.1195  0.8143
23294SOL    HW271334   4.303   3.497   3.951 -0.6979 -1.4150 -0.2680
23295SOL     OW71335   6.718   7.746   2.431  0.4509  0.2321 -0.1479
23295SOL    HW171336   6.769   7.787   2.501  0.6129  0.3094 -0.3105
23295SOL    HW271337   6.638   7.716   2.474  1.2181 -1.1255  0.4054
23296SOL     OW71338   7.762   2.875   5.991  0.7102  0.4986 -0.2316
23296SOL    HW171339   7.816   2.816   5.939  0.9528  1.5433 -1.2101
23296SOL    HW271340   7.682   2.825   6.009  0.6155  0.1020 -1.6219
23297SOL     OW71341   9.253   4.895   4.337 -0.0450  0.3499 -0.0891
23297SOL    HW171342   9.328   4.905   4.277 -0.5178 -0.0277 -0.7592
23297SOL    HW271343   9.243   4.800   4.347 -0.1036  0.4113  0.4174
23298SOL     OW71344   5.750   1.449   9.084  0.8412 -0.3354 -0.5203
23298SOL    HW171345   5.680   1.508   9.110  1.8263  0.8925 -0.5895
23298SOL    HW271346   5.704   1.371   9.052 -0.4908  0.4382 -0.5827
23299SOL     OW71347   7.934   6.244   3.579  0.1884 -0.3760  0.1507
23299SOL    HW171348   7.917   6.338   3.584  0.4408 -0.2355 -1.1080
23299SOL    HW271349   7.862   6.210   3.526  0.3347 -0.8230  0.2369
23300SOL     OW71350   4.889   3.910   8.587 -0.1677  0.3582 -0.1102
23300SOL    HW171351   4.868   3.997   8.555  1.4264  0.6716 -0.3837
23300SOL    HW271352   4.972   3.921   8.633 -1.7813 -0.2790  3.2610
23301SOL     OW71353   6.919   9.234   4.287 -0.5250 -0.7193 -0.1648
23301SOL    HW171354   6.980   9.247   4.359 -0.2651  0.1862 -0.5343
23301SOL    HW271355   6.933   9.143   4.259 -0.2594 -0.9084  0.5777
23302SOL     OW71356   7.314   5.595   5.572  0.0316 -0.3557  0.1132
23302SOL    HW171357   7.344   5.620   5.485 -0.4666 -0.1560 -0.0007
23302SOL    HW271358   7.220   5.610   5.571  0.1522  0.5487  0.9901
23303SOL     OW71359   6.551   3.970   5.477  0.7975  0.3691 -0.0820
23303SOL    HW171360   6.553   4.061   5.447  0.9998  1.0745  1.9266
23303SOL    HW271361   6.495   3.925   5.413  0.9838  1.8078 -1.3113
23304SOL     OW71362   0.889   4.738   2.392 -0.2223 -0.0479 -0.1593
23304SOL    HW171363   0.980   4.713   2.405 -0.7202 -1.9653 -0.0876
23304SOL    HW271364   0.870   4.714   2.301 -0.2631  1.7372 -0.6594
23305SOL     OW71365   3.755   0.925   2.830 -0.3586 -0.3365 -0.1948
23305SOL    HW171366   3.679   0.971   2.794 -2.0807 -1.3394  1.9456
23305SOL    HW271367   3.776   0.858   2.765 -1.0050  0.2190 -1.0052
23306SOL     OW71368   6.624   4.457   8.209 -0.1608  0.0167 -0.0924
23306SOL    HW171369   6.593   4.373   8.244  0.4963 -0.1303  0.1369
23306SOL    HW271370   6.693   4.485   8.269  0.8493 -0.1454 -1.1451
23307SOL     OW71371   5.915   2.026   7.783 -0.4115 -0.4497  0.1906
23307SOL    HW171372   5.935   2.116   7.807 -1.3754  0.1087 -0.9978
23307SOL    HW271373   5.998   1.989   7.754  0.2055 -0.2974  1.6948
23308SOL     OW71374   6.263   4.356   0.986  0.1151  0.0696  1.0488
23308SOL    HW171375   6.260   4.283   0.925 -0.0882 -0.7941  2.0763
23308SOL    HW271376   6.335   4.337   1.045 -0.5746  0.1766  1.9513
23309SOL     OW71377   3.403   6.326   8.642 -0.2288 -0.5962  0.1852
23309SOL    HW171378   3.333   6.328   8.576  1.5340  2.4302 -1.8419
23309SOL    HW271379   3.473   6.274   8.603  0.1175 -0.3999  0.5335
23310SOL     OW71380   8.023   0.537   0.890 -0.5778 -0.0216  0.7143
23310SOL    HW171381   8.051   0.605   0.829 -0.1248 -0.2539  0.6611
23310SOL    HW271382   7.934   0.514   0.861  0.1835 -1.1914 -0.7992
23311SOL     OW71383   5.118   1.567   1.953  0.1555 -0.6918 -0.5272
23311SOL    HW171384   5.048   1.618   1.911  1.2793  0.6676 -0.7969
23311SOL    HW271385   5.160   1.521   1.880  0.8619  0.1418 -0.6615
23312SOL     OW71386   8.879   7.147   6.703 -0.3458 -0.0588 -0.0414
23312SOL    HW171387   8.845   7.191   6.625  0.7293  1.8606  0.5031
23312SOL    HW271388   8.809   7.154   6.768 -1.0908 -1.3109 -0.6863
23313SOL     OW71389   3.008   8.799   7.422 -0.2152 -0.3268  0.4957
23313SOL    HW171390   3.015   8.757   7.336 -1.1298  1.7697 -0.6875
23313SOL    HW271391   2.915   8.795   7.443 -0.2167  0.4566  0.6739
23314SOL     OW71392   3.632   8.097   2.850  0.4079  0.3651  0.0219
23314SOL    HW171393   3.579   8.088   2.929 -0.4929  0.4204 -0.5606
23314SOL    HW271394   3.615   8.017   2.800 -0.1523  0.9558 -0.7633
23315SOL     OW71395   3.847   3.479   4.610 -0.6477 -0.0652  0.0525
23315SOL    HW171396   3.786   3.536   4.656 -0.9024 -1.4032  1.4502
23315SOL    HW271397   3.792   3.416   4.564 -0.3473  0.0984 -0.5491
23316SOL     OW71398   1.971   0.660   0.767  0.7601  0.2834  0.6346
23316SOL    HW171399   1.909   0.656   0.694  1.1286 -1.5530  0.3736
23316SOL    HW271400   1.917   0.678   0.844 -0.1723 -1.5417  0.4544
23317SOL     OW71401   7.977   0.649   4.704  0.1631 -0.1126 -0.0394
23317SOL    HW171402   7.911   0.718   4.696 -0.2116 -0.5035 -0.4074
23317SOL    HW271403   7.952   0.585   4.637  1.0828 -0.1296 -0.3826
23318SOL     OW71404   7.636   1.544   7.882 -0.2865  0.0065 -0.6583
23318SOL    HW171405   7.681   1.484   7.942 -1.2746 -0.0106  0.0879
23318SOL    HW271406   7.687   1.625   7.885 -0.6819  0.2246  0.7108
23319SOL     OW71407   3.678   5.475   3.726  0.2886  0.2952  0.1042
23319SOL    HW171408   3.618   5.441   3.660 -0.3946  1.3089  0.1732
23319SOL    HW271409   3.684   5.405   3.792  1.7733 -1.1550 -1.4698
23320SOL     OW71410   2.009   5.053   5.188 -0.1487  0.0293  0.3770
23320SOL    HW171411   2.025   5.103   5.109 -2.0418  0.3348  0.1461
23320SOL    HW271412   1.962   5.113   5.246 -0.6241 -0.8267  0.9040
23321SOL     OW71413   2.817   7.043   6.418  0.1349 -0.1136  0.2533
23321SOL    HW171414   2.847   7.080   6.334  1.9433 -2.2029 -0.1020
23321SOL    HW271415   2.723   7.063   6.420  0.0373  0.0484 -2.2673
23322SOL     OW71416   6.854   5.388   5.473 -0.8343  0.3670 -0.0443
23322SOL    HW171417   6.835   5.416   5.563  0.6035 -0.5083  0.5811
23322SOL    HW271418   6.949   5.376   5.472 -1.0204 -1.3127 -1.1890
23323SOL     OW71419   2.113   0.152   6.099 -0.0491 -0.4963  0.4296
23323SOL    HW171420   2.095   0.058   6.101 -0.6155 -0.4333 -0.9754
23323SOL    HW271421   2.188   0.162   6.041  0.0427 -0.0801  0.6123
23324SOL     OW71422   7.523   3.340   2.587  0.2678 -0.0053  0.0469
23324SOL    HW171423   7.530   3.283   2.664  0.3000  0.1020  0.1244
23324SOL    HW271424   7.545   3.283   2.513 -1.3781 -0.5452 -0.0673
23325SOL     OW71425   0.738   5.738   4.623  0.2317 -0.0425  0.5295
23325SOL    HW171426   0.747   5.699   4.710 -0.2087 -0.1232  0.5442
23325SOL    HW271427   0.672   5.807   4.635 -0.0648 -0.2660  0.1950
23326SOL     OW71428   8.009   2.353   0.354 -0.7575 -0.2106  0.4987
23326SOL    HW171429   7.983   2.434   0.397  1.0805  0.2550  0.8119
23326SOL    HW271430   7.990   2.367   0.261 -0.8546  0.4114  0.6110
23327SOL     OW71431   6.601   8.354   7.091  0.4981  0.3291 -0.1264
23327SOL    HW171432   6.620   8.368   6.999 -0.3938  2.5454 -0.0445
23327SOL    HW271433   6.505   8.357   7.097  0.5742  1.3859  0.9946
23328SOL     OW71434   3.253   2.088   2.614 -0.1724  0.0004  0.1860
23328SOL    HW171435   3.240   1.993   2.618 -2.4198  0.3024  2.6576
23328SOL    HW271436   3.165   2.124   2.604  0.5426  1.8881  0.2697
23329SOL     OW71437   0.987   6.742   2.761 -0.3595  0.4368  0.0529
23329SOL    HW171438   0.966   6.665   2.708  0.1032  1.5843 -1.9234
23329SOL    HW271439   1.069   6.774   2.724  0.7839  0.4949  2.4783
23330SOL     OW71440   1.074   7.517   6.410 -0.1614  0.3601 -0.2152
23330SOL    HW171441   1.006   7.463   6.371  2.2141 -2.1123 -1.2328
23330SOL    HW271442   1.046   7.607   6.392 -2.6855 -0.5490 -1.3108
23331SOL     OW71443   1.463   4.738   6.067 -0.0326  0.7358 -0.2431
23331SOL    HW171444   1.463   4.833   6.057  0.7624  0.8979  1.0723
23331SOL    HW271445   1.444   4.724   6.160  3.7185 -0.2094  0.5327
23332SOL     OW71446   3.303   1.186   3.155 -0.0670 -0.2410 -0.5292
23332SOL    HW171447   3.300   1.137   3.237  1.1424  1.2551  0.4761
23332SOL    HW271448   3.335   1.122   3.091  1.8756 -0.7311  0.8153
23333SOL     OW71449   6.209   2.592   5.281 -0.2031 -0.3094 -0.5234
23333SOL    HW171450   6.217   2.497   5.291  1.3957 -0.0920  0.7049
23333SOL    HW271451   6.174   2.622   5.365 -0.3091  0.2307 -0.7549
23334SOL     OW71452   4.675   3.204   0.896 -0.3387  0.0653  0.1998
23334SOL    HW171453   4.666   3.299   0.884 -0.6247  0.2670  1.7754
23334SOL    HW271454   4.588   3.170   0.875 -1.4033  0.6173  3.0992
23335SOL     OW71455   1.195   4.123   6.470 -0.1190 -0.2250  0.0630
23335SOL    HW171456   1.261   4.129   6.401  0.7235  0.6922  0.9085
23335SOL    HW271457   1.157   4.211   6.475  0.5850  0.0435  1.4449
23336SOL     OW71458   7.792   0.137   0.085  0.6286 -0.7692 -0.8240
23336SOL    HW171459   7.791   0.224   0.046  1.4897 -1.2831 -2.0331
23336SOL    HW271460   7.803   0.154   0.179  1.2337  0.4075 -1.0832
23337SOL     OW71461   4.735   2.889   8.362 -0.0567  0.3095  0.7370
23337SOL    HW171462   4.668   2.822   8.351  0.7617 -0.2878 -0.9434
23337SOL    HW271463   4.807   2.845   8.405  0.8778 -0.2367 -1.2588
23338SOL     OW71464   2.245   1.109   2.987  0.3404  0.8649 -0.1733
23338SOL    HW171465   2.241   1.204   3.000 -0.2147  0.5939  2.0893
23338SOL    HW271466   2.316   1.080   3.044 -1.1987 -0.3199  1.2249
23339SOL     OW71467   3.574   1.051   5.586 -0.5213 -0.2710  0.2644
23339SOL    HW171468   3.594   1.119   5.523  2.4733 -1.0194  0.2524
23339SOL    HW271469   3.608   1.084   5.669 -1.2739 -0.7362  0.7729
23340SOL     OW71470   6.272   1.837   6.824 -0.2829  0.1830  0.3025
23340SOL    HW171471   6.269   1.918   6.876  0.2461  0.4199 -0.0298
23340SOL    HW271472   6.231   1.771   6.880 -1.1441  0.7770  0.4042
23341SOL     OW71473   5.952   3.750   1.094 -0.0789  0.5502  0.3532
23341SOL    HW171474   6.022   3.691   1.123  0.8486  1.9039  0.9383
23341SOL    HW271475   5.907   3.776   1.175 -1.3512 -0.3481 -0.0152
23342SOL     OW71476   7.039   2.993   3.036  0.1054 -0.2424 -0.1269
23342SOL    HW171477   7.054   2.982   2.942  1.2435 -0.8967  0.1095
23342SOL    HW271478   6.949   3.027   3.042 -0.1260 -0.5495 -1.4259
23343SOL     OW71479   6.186   6.550   9.265 -0.7853  0.2128 -0.1194
23343SOL    HW171480   6.112   6.520   9.318 -0.4232  1.5021  1.1909
23343SOL    HW271481   6.169   6.643   9.251 -0.7639 -0.0601 -2.1495
23344SOL     OW71482   0.717   4.899   7.364 -0.3244  0.1486 -0.6561
23344SOL    HW171483   0.778   4.899   7.438  0.8391 -1.0662 -1.5591
23344SOL    HW271484   0.731   4.814   7.322 -2.2264  0.0978 -1.2533
23345SOL     OW71485   4.948   4.033   0.331 -0.2640  0.3523  0.6456
23345SOL    HW171486   4.878   4.011   0.268  0.0865  0.3948  0.2350
23345SOL    HW271487   5.010   3.960   0.323 -0.3121  0.2625  1.0866
23346SOL     OW71488   4.129   1.842   1.153 -0.3109 -0.1374  0.1504
23346SOL    HW171489   4.131   1.896   1.074  1.0989 -0.0184  0.2413
23346SOL    HW271490   4.118   1.753   1.122 -0.4587 -0.0199 -0.1370
23347SOL     OW71491   2.615   5.092   7.322  0.1664 -0.5943  0.2543
23347SOL    HW171492   2.679   5.061   7.257 -0.0707  0.1173 -0.3316
23347SOL    HW271493   2.596   5.015   7.375 -1.3790 -1.8713 -1.9599
23348SOL     OW71494   6.373   8.689   5.167 -0.2006 -0.2225 -0.4223
23348SOL    HW171495   6.302   8.722   5.111 -0.8533 -0.9741 -0.0720
23348SOL    HW271496   6.341   8.604   5.197  1.3676 -1.1444 -1.2124
23349SOL     OW71497   6.362   4.823   1.030  0.2576 -0.1098  0.1219
23349SOL    HW171498   6.330   4.906   0.996  2.1859  0.4589 -0.4614
23349SOL    HW271499   6.285   4.766   1.033 -0.8172  1.2299 -0.8892
23350SOL     OW71500   2.786   7.160   8.955  0.4561 -0.0237 -0.2159
23350SOL    HW171501   2.875   7.190   8.975  1.0376 -0.6708 -1.6711
23350SOL    HW271502   2.759   7.110   9.032  2.1018 -1.3711 -0.4531
23351SOL     OW71503   2.239   4.154   2.137  0.3553 -0.0595 -0.5017
23351SOL    HW171504   2.259   4.178   2.227 -3.8925 -0.3981  0.7251
23351SOL    HW271505   2.281   4.222   2.084 -1.0843  3.1339  2.1119
23352SOL     OW71506   8.545   2.846   7.990 -0.2744 -0.3760  0.0451
23352SOL    HW171507   8.493   2.780   8.036 -0.3312  0.1449  0.7356
23352SOL    HW271508   8.636   2.826   8.014 -0.0910 -1.4466 -1.3659
23353SOL     OW71509   5.034   0.234   1.402  0.5432  0.3900 -0.4289
23353SOL    HW171510   5.116   0.196   1.371  0.6879 -0.4131  0.8644
23353SOL    HW271511   5.047   0.247   1.496 -0.7347  0.4255 -0.2347
23354SOL     OW71512   6.463   4.924   6.812  0.1981 -0.6215  0.2645
23354SOL    HW171513   6.434   4.998   6.759  0.4811 -0.1908  0.7083
23354SOL    HW271514   6.518   4.872   6.753 -0.3122 -0.6866 -0.1599
23355SOL     OW71515   6.720   2.441   1.413  0.4356  0.4183  0.2351
23355SOL    HW171516   6.774   2.386   1.356 -0.5116 -1.5069  1.0930
23355SOL    HW271517   6.634   2.440   1.373  0.2692  0.8148  0.5714
23356SOL     OW71518   8.826   2.692   1.367  0.4182 -0.2425  0.2369
23356SOL    HW171519   8.920   2.672   1.364  1.5011  4.0071  0.0176
23356SOL    HW271520   8.811   2.748   1.291 -2.0599  0.2495  1.0035
23357SOL     OW71521   2.545   0.889   3.046  0.0152  0.3462 -0.4690
23357SOL    HW171522   2.617   0.919   3.101 -0.9668  1.0604  0.4565
23357SOL    HW271523   2.524   0.801   3.079 -0.8751  0.9523  0.6394
23358SOL     OW71524   8.992   2.789   8.350  0.0232  0.1961  0.5649
23358SOL    HW171525   9.080   2.780   8.387 -0.1986  0.6867  1.2496
23358SOL    HW271526   9.006   2.828   8.264  0.5797 -1.3301 -0.0669
23359SOL     OW71527   5.528   6.470   3.299 -0.0715  0.3337  0.1945
23359SOL    HW171528   5.529   6.393   3.356  0.6481  0.7181  0.7195
23359SOL    HW271529   5.445   6.464   3.252 -1.1939  0.5222  2.0253
23360SOL     OW71530   3.620   5.273   3.297 -0.1227 -0.2963 -0.5488
23360SOL    HW171531   3.705   5.293   3.337 -0.6904  0.4659  0.3317
23360SOL    HW271532   3.641   5.247   3.208  1.2742 -2.7412  0.3881
23361SOL     OW71533   0.105   0.635   1.149  0.6054 -0.1298  0.1928
23361SOL    HW171534   0.108   0.556   1.097 -0.5382 -0.3654  0.4568
23361SOL    HW271535   0.027   0.682   1.119  0.2160 -0.0150  1.2980
23362SOL     OW71536   7.245   1.631   6.963  0.2590  0.0029  0.0476
23362SOL    HW171537   7.288   1.632   7.048  0.5388 -0.2927 -0.0900
23362SOL    HW271538   7.271   1.548   6.924 -0.4962 -0.2141 -0.0068
23363SOL     OW71539   8.167   2.677   0.438  0.7898 -0.2657  0.4030
23363SOL    HW171540   8.128   2.690   0.352  0.7603 -1.7538  0.1663
23363SOL    HW271541   8.239   2.616   0.423  0.0423 -1.4924  1.5778
23364SOL     OW71542   0.577   8.912   6.384  0.7325  0.0527 -0.1721
23364SOL    HW171543   0.622   8.990   6.419  0.3374 -0.1279  0.7760
23364SOL    HW271544   0.541   8.941   6.300  1.8861  0.4416 -0.5507
23365SOL     OW71545   1.796   1.056   8.874  0.3195  0.0788  0.1689
23365SOL    HW171546   1.788   1.151   8.868 -0.4216 -0.0497 -1.8764
23365SOL    HW271547   1.886   1.041   8.903  0.4037  1.3916  0.6629
23366SOL     OW71548   7.501   7.049   0.455 -0.0043 -0.3825 -0.2732
23366SOL    HW171549   7.427   7.034   0.396  1.2222  0.3730 -2.0434
23366SOL    HW271550   7.563   6.978   0.435  0.1272 -0.5405  0.6364
23367SOL     OW71551   5.912   1.533   4.689  0.4085 -0.7905  0.3619
23367SOL    HW171552   5.991   1.573   4.654  0.8544 -1.6330  0.3664
23367SOL    HW271553   5.846   1.602   4.685  1.3132  0.1431  1.0245
23368SOL     OW71554   3.896   7.183   2.243  0.4107  0.2816 -0.0017
23368SOL    HW171555   3.867   7.274   2.249 -0.7426  0.0126 -0.9705
23368SOL    HW271556   3.890   7.163   2.149  2.6095 -0.1947 -0.0893
23369SOL     OW71557   5.259   1.266   8.912 -0.8388  0.1111  0.8397
23369SOL    HW171558   5.214   1.270   8.828  0.0690 -1.3456  0.2345
23369SOL    HW271559   5.191   1.250   8.977 -1.2797 -1.4679  0.0214
23370SOL     OW71560   2.485   7.831   0.657 -0.6774 -0.0873  0.4964
23370SOL    HW171561   2.478   7.758   0.594 -0.6495 -0.4831  0.9496
23370SOL    HW271562   2.580   7.845   0.665 -0.6818 -0.0200  0.4316
23371SOL     OW71563   6.250   5.451   0.886 -0.0084 -0.0435  0.4274
23371SOL    HW171564   6.278   5.483   0.971 -1.0933  0.6104  0.5617
23371SOL    HW271565   6.215   5.528   0.841 -0.4870 -0.5920 -0.1639
23372SOL     OW71566   1.026   5.684   4.652 -0.0218 -0.6525 -0.3023
23372SOL    HW171567   1.071   5.611   4.609  0.0982 -1.0041  0.4067
23372SOL    HW271568   1.029   5.663   4.745  1.5084  1.0722  0.0892
23373SOL     OW71569   6.632   3.849   9.124  0.1726 -0.5002  0.1754
23373SOL    HW171570   6.721   3.814   9.116  0.2426 -0.3379  0.2474
23373SOL    HW271571   6.623   3.908   9.050  0.3067 -0.1189  0.4629
23374SOL     OW71572   4.123   3.550   0.477  0.2744  0.1847  0.8169
23374SOL    HW171573   4.062   3.623   0.492  1.2856  0.9381  1.4241
23374SOL    HW271574   4.201   3.573   0.528  0.6550 -1.2933  0.9548
23375SOL     OW71575   5.768   1.017   6.504 -0.1830 -0.5470  0.2782
23375SOL    HW171576   5.772   1.111   6.487  0.1324 -0.7879 -1.1440
23375SOL    HW271577   5.696   0.986   6.448  0.0764 -1.2267  0.3112
23376SOL     OW71578   4.082   1.637   6.213 -0.0938 -0.1662 -0.4594
23376SOL    HW171579   4.153   1.614   6.154  0.9478 -0.4905  0.8525
23376SOL    HW271580   4.035   1.556   6.228  1.5665 -0.8606  1.5611
23377SOL     OW71581   6.279   0.141   0.773 -0.0278 -0.2583  0.2897
23377SOL    HW171582   6.277   0.180   0.686 -1.8016 -0.5194  0.1853
23377SOL    HW271583   6.251   0.211   0.831  1.4459  0.0084  0.7344
23378SOL     OW71584   2.117   6.507   0.195  0.2561 -0.4353 -0.1505
23378SOL    HW171585   2.088   6.495   0.104  0.7538  0.4672 -0.4367
23378SOL    HW271586   2.137   6.600   0.202 -0.7032 -0.2940  1.1677
23379SOL     OW71587   8.827   1.190   7.112 -0.2344 -0.4427  0.2465
23379SOL    HW171588   8.856   1.171   7.022  0.7278  0.3668  0.3734
23379SOL    HW271589   8.812   1.103   7.150 -0.4320 -0.8055 -0.6150
23380SOL     OW71590   7.367   2.774   9.239  0.6039  0.2001  0.6124
23380SOL    HW171591   7.347   2.861   9.275 -3.8628 -1.3232  2.5290
23380SOL    HW271592   7.405   2.726   9.312  0.1169 -0.3279  0.5247
23381SOL     OW71593   1.498   3.962   8.362 -0.4241  0.3647 -0.1470
23381SOL    HW171594   1.570   3.957   8.425 -0.2723  1.0601 -0.2601
23381SOL    HW271595   1.420   3.944   8.415  0.0271 -4.7457 -0.7044
23382SOL     OW71596   0.194   6.107   5.532  0.1363 -0.5388  0.2250
23382SOL    HW171597   0.125   6.156   5.576 -0.7389 -1.1090 -0.4802
23382SOL    HW271598   0.221   6.041   5.595 -0.2211 -0.5420  0.3747
23383SOL     OW71599   8.190   6.228   4.513 -0.7941 -0.1249 -0.4102
23383SOL    HW171600   8.162   6.153   4.565 -0.7347  0.3632  0.3491
23383SOL    HW271601   8.135   6.225   4.435 -1.2584 -0.5752 -0.0760
23384SOL     OW71602   7.130   3.647   1.039  0.0206  0.0995  0.4374
23384SOL    HW171603   7.115   3.638   1.133 -0.1272 -2.8727  0.2224
23384SOL    HW271604   7.200   3.584   1.019  0.3679  0.9856 -1.3821
23385SOL     OW71605   0.884   8.515   3.695  0.6559 -0.6741  0.1813
23385SOL    HW171606   0.893   8.565   3.777  0.2122  0.2948 -0.3400
23385SOL    HW271607   0.924   8.430   3.714  1.1621 -0.2289  1.1936
23386SOL     OW71608   0.198   1.485   7.015 -0.1269  0.1672 -0.0754
23386SOL    HW171609   0.234   1.461   7.101 -2.0851  1.2256  1.1375
23386SOL    HW271610   0.262   1.452   6.952  1.2572 -0.9035  1.7660
23387SOL     OW71611   8.050   0.438   3.650 -0.1861  0.8636 -0.2020
23387SOL    HW171612   8.103   0.460   3.726  0.3160  0.3209 -0.3865
23387SOL    HW271613   8.098   0.476   3.576 -0.1004  0.4598 -0.3577
23388SOL     OW71614   3.132   5.689   4.484  0.2318  0.2080 -0.9174
23388SOL    HW171615   3.065   5.625   4.509 -0.8955  0.6222 -2.7107
23388SOL    HW271616   3.091   5.774   4.498  0.5762  0.4781 -1.5076
23389SOL     OW71617   0.548   5.113   7.442  0.1770 -0.2306  0.4826
23389SOL    HW171618   0.610   5.160   7.387 -1.6767  0.2664 -1.2836
23389SOL    HW271619   0.580   5.022   7.442 -0.7241 -0.7023 -3.0656
23390SOL     OW71620   0.224   6.433   8.829  0.5411 -0.0206  0.2566
23390SOL    HW171621   0.230   6.380   8.749  2.9299 -0.5985  0.7234
23390SOL    HW271622   0.181   6.376   8.892 -0.3128  0.0101 -0.2855
23391SOL     OW71623   1.778   3.139   3.544  0.2705 -0.0820  0.3340
23391SOL    HW171624   1.853   3.192   3.572 -0.8568  0.7764  1.8531
23391SOL    HW271625   1.722   3.133   3.621 -2.8451  2.1542 -1.5165
23392SOL     OW71626   7.981   4.164   3.427  0.1252 -0.1286 -0.0633
23392SOL    HW171627   7.908   4.147   3.367  2.1374  0.2823 -2.8257
23392SOL    HW271628   7.985   4.260   3.434 -0.4854 -0.1765  1.3438
23393SOL     OW71629   1.078   8.201   8.752 -0.2818 -0.2373 -0.0005
23393SOL    HW171630   1.077   8.112   8.787 -0.4462 -0.1803  0.1388
23393SOL    HW271631   1.046   8.192   8.662 -0.0357 -0.3570 -0.0774
23394SOL     OW71632   8.733   0.551   4.456 -0.1400 -0.5104 -0.4104
23394SOL    HW171633   8.824   0.539   4.427  0.9720  2.6278  1.2820
23394SOL    HW271634   8.734   0.524   4.548 -0.9312 -0.4546 -0.3818
23395SOL     OW71635   7.365   3.462   7.057 -0.6993  0.0003 -0.1302
23395SOL    HW171636   7.391   3.532   7.116 -0.3115  1.0091 -1.4442
23395SOL    HW271637   7.273   3.445   7.079 -0.0154 -1.1012  2.1206
23396SOL     OW71638   8.497   4.034   7.304  0.1097 -0.3433  0.4769
23396SOL    HW171639   8.466   3.963   7.248  1.4832 -1.2289  0.7673
23396SOL    HW271640   8.589   4.013   7.320  0.3573  1.1302  1.1720
23397SOL     OW71641   8.675   7.581   4.931 -0.3492 -0.3833  0.6177
23397SOL    HW171642   8.614   7.585   4.858 -0.7811  1.1294  1.0281
23397SOL    HW271643   8.761   7.600   4.892 -0.4236 -0.6121  0.3422
23398SOL     OW71644   7.667   1.360   2.050  0.4048 -0.0028  0.8493
23398SOL    HW171645   7.589   1.390   2.003  1.8709 -0.3887 -2.0016
23398SOL    HW271646   7.634   1.291   2.108 -1.1389 -1.8738 -2.0110
23399SOL     OW71647   7.299   3.708   3.301 -0.0192  0.2413 -0.0072
23399SOL    HW171648   7.289   3.630   3.355 -1.4159 -1.1757 -2.1339
23399SOL    HW271649   7.222   3.762   3.322 -1.6042 -1.1745 -1.7642
23400SOL     OW71650   0.512   0.402   9.146 -0.7985  0.5304 -0.5549
23400SOL    HW171651   0.527   0.412   9.052 -2.0437 -1.8628 -1.0930
23400SOL    HW271652   0.565   0.327   9.171 -0.7048  0.9632  0.6011
23401SOL     OW71653   8.002   3.859   8.760 -0.2069  0.0442  0.2006
23401SOL    HW171654   7.968   3.924   8.822 -0.5536 -0.3047  0.3776
23401SOL    HW271655   7.927   3.804   8.739 -0.0286  0.0015 -0.3344
23402SOL     OW71656   3.583   8.207   1.879  0.4668  0.1784  0.0119
23402SOL    HW171657   3.515   8.256   1.833  0.8265 -0.3495 -1.1025
23402SOL    HW271658   3.535   8.147   1.936  0.0130  1.8273  1.4688
23403SOL     OW71659   7.735   4.552   6.486  0.1744  0.1852  0.4414
23403SOL    HW171660   7.680   4.492   6.536 -1.0398  0.6398 -0.3040
23403SOL    HW271661   7.703   4.545   6.396  1.9952 -0.2578 -0.2137
23404SOL     OW71662   3.258   3.279   9.192  0.7235  0.0539  0.6860
23404SOL    HW171663   3.260   3.226   9.112  0.1112  0.0115  0.6947
23404SOL    HW271664   3.219   3.362   9.165 -0.8079 -0.4566  1.2126
23405SOL     OW71665   1.466   2.509   9.054 -0.2741 -0.0007 -0.6315
23405SOL    HW171666   1.525   2.581   9.074 -0.0997  1.0162 -4.1843
23405SOL    HW271667   1.521   2.431   9.057 -0.0745  0.1559  1.4321
23406SOL     OW71668   8.540   6.847   4.651  0.0862  0.1588  0.2664
23406SOL    HW171669   8.508   6.797   4.726 -1.3529 -0.2479 -0.5705
23406SOL    HW271670   8.632   6.865   4.671 -0.0020 -0.7897  1.6557
23407SOL     OW71671   0.830   6.376   6.280 -0.6157 -0.1318 -0.0787
23407SOL    HW171672   0.804   6.292   6.243 -0.4094  0.3010 -1.2531
23407SOL    HW271673   0.750   6.429   6.277 -0.5994 -0.0954  0.1076
23408SOL     OW71674   0.052   7.557   3.907  0.0133  1.1347  0.3141
23408SOL    HW171675   0.009   7.510   3.835  1.0732 -0.6463  0.7772
23408SOL    HW271676  -0.021   7.592   3.958 -0.8188  0.5776 -0.4434
23409SOL     OW71677   2.321   0.619   2.322 -0.0459  0.3087 -0.1269
23409SOL    HW171678   2.390   0.632   2.257  0.6987 -1.6727  0.1841
23409SOL    HW271679   2.285   0.533   2.302 -1.0646  0.4562  0.9497
23410SOL     OW71680   7.214   5.002   8.319  0.6851  0.3581 -0.3128
23410SOL    HW171681   7.188   5.093   8.335 -0.2668 -0.0774  0.7207
23410SOL    HW271682   7.277   4.982   8.388 -0.7294 -0.4076  0.8111
23411SOL     OW71683   1.256   3.210   4.366  0.3978 -0.4041 -0.4874
23411SOL    HW171684   1.188   3.158   4.409  0.2123  0.4602  0.2822
23411SOL    HW271685   1.214   3.243   4.286 -0.1475  0.2716  0.0719
23412SOL     OW71686   3.441   5.967   3.734  0.4343  0.6331  0.4199
23412SOL    HW171687   3.374   5.984   3.800 -0.2057  0.7445 -0.2456
23412SOL    HW271688   3.511   5.921   3.781  0.7337  2.1748  1.5287
23413SOL     OW71689   3.505   1.503   5.775 -0.5327 -0.2303 -0.5073
23413SOL    HW171690   3.544   1.433   5.723  2.1972  0.0196  1.0418
23413SOL    HW271691   3.548   1.498   5.860 -1.2977  2.4202  0.1428
23414SOL     OW71692   5.844   1.194   0.914  0.4396 -0.3903  0.0372
23414SOL    HW171693   5.765   1.143   0.934  0.6569 -0.0317  2.0190
23414SOL    HW271694   5.814   1.262   0.855 -1.0228  0.4185  1.6235
23415SOL     OW71695   2.065   6.422   5.781  0.6811  0.6794  0.2239
23415SOL    HW171696   2.051   6.330   5.803 -0.9340  1.1283  1.3179
23415SOL    HW271697   2.108   6.459   5.859  0.8667  0.9432 -0.0020
23416SOL     OW71698   8.834   3.809   3.821  0.0844  0.0390  0.4893
23416SOL    HW171699   8.840   3.902   3.797  2.1170  0.1070  1.0787
23416SOL    HW271700   8.814   3.764   3.740  0.8270  0.8401 -0.1599
23417SOL     OW71701   7.883   5.455   9.239 -0.0134 -0.2328  0.1605
23417SOL    HW171702   7.933   5.423   9.315 -1.3141 -0.0393  1.1196
23417SOL    HW271703   7.804   5.401   9.238  0.6886 -1.3252 -2.0377
23418SOL     OW71704   0.015   2.237   0.797 -0.5775  0.0463 -0.0840
23418SOL    HW171705   0.006   2.187   0.878 -1.2195  1.3592  0.6981
23418SOL    HW271706   0.108   2.236   0.778 -0.5223 -1.0199  0.1670
23419SOL     OW71707   7.286   8.717   3.553 -0.2404 -0.2573  0.2065
23419SOL    HW171708   7.259   8.753   3.469 -0.6437 -0.3117  0.3110
23419SOL    HW271709   7.252   8.778   3.618 -3.2356 -2.0859  0.5497
23420SOL     OW71710   6.403   0.424   2.106  0.1321 -0.2772 -0.0379
23420SOL    HW171711   6.331   0.362   2.096  0.6341 -0.6544 -1.5930
23420SOL    HW271712   6.474   0.386   2.054  0.4587  1.5680 -1.0360
23421SOL     OW71713   2.093   2.519   4.423 -0.4506  0.1859 -0.6156
23421SOL    HW171714   2.077   2.598   4.372 -0.4707  0.2310 -0.5397
23421SOL    HW271715   2.181   2.490   4.397 -1.3826 -1.1617 -2.5220
23422SOL     OW71716   4.152   1.026   8.775  0.3911 -0.0075 -0.5870
23422SOL    HW171717   4.118   1.055   8.859  2.0796 -0.8905  0.4654
23422SOL    HW271718   4.109   0.942   8.759  2.0645 -1.2313  0.8477
23423SOL     OW71719   6.986   4.808   9.033 -0.0695  0.0452 -0.5309
23423SOL    HW171720   6.961   4.786   8.943 -0.7309 -0.7945 -0.1585
23423SOL    HW271721   6.968   4.901   9.041 -1.5773 -0.2016 -0.7847
23424SOL     OW71722   9.205   1.458   4.546  0.0004  0.1637  0.5969
23424SOL    HW171723   9.291   1.481   4.581 -0.1779  1.7048  0.0876
23424SOL    HW271724   9.219   1.373   4.505  1.4227  0.6018  0.0910
23425SOL     OW71725   1.171   9.060   6.183 -0.1134 -0.1961 -0.5586
23425SOL    HW171726   1.178   9.100   6.270  0.6895 -2.9446  0.7412
23425SOL    HW271727   1.090   9.096   6.147 -0.4898  0.9928  1.3257
23426SOL     OW71728   7.921   3.108   3.397  0.5578  0.4384 -0.2240
23426SOL    HW171729   7.919   3.018   3.364 -1.2820  0.2360  0.3402
23426SOL    HW271730   8.007   3.141   3.372  0.7823 -1.0626 -1.5438
23427SOL     OW71731   1.608   6.723   3.832  0.3703 -0.0351 -0.0209
23427SOL    HW171732   1.581   6.643   3.788  1.7590  0.2252 -1.4579
23427SOL    HW271733   1.657   6.694   3.909 -0.4090 -0.5256  0.2983
23428SOL     OW71734   4.019   2.801   7.905 -0.4684 -0.6911 -0.5610
23428SOL    HW171735   4.042   2.772   7.817 -1.3235 -1.5574 -0.5242
23428SOL    HW271736   3.927   2.775   7.915  0.3606 -3.2323  1.5935
23429SOL     OW71737   3.386   3.514   5.544  0.1015  0.4735  0.3135
23429SOL    HW171738   3.410   3.514   5.637 -0.0278  0.5212  0.3476
23429SOL    HW271739   3.437   3.587   5.506 -0.9076  1.3674  0.6287
23430SOL     OW71740   6.060   8.427   0.162  0.2707 -0.2117 -0.2817
23430SOL    HW171741   6.129   8.492   0.173 -0.2728  0.1022  1.6402
23430SOL    HW271742   6.084   8.380   0.082  2.9959 -0.4434  0.5468
23431SOL     OW71743   2.222   1.487   5.559  0.3309  0.1993  0.6047
23431SOL    HW171744   2.296   1.546   5.558  0.2928  0.2397  0.0346
23431SOL    HW271745   2.209   1.462   5.468 -0.4145  0.2685  0.6814
23432SOL     OW71746   0.850   1.491   7.599  0.7673 -0.0376  0.1854
23432SOL    HW171747   0.884   1.525   7.682  0.4411  0.4815  0.1108
23432SOL    HW271748   0.912   1.523   7.533  1.0305 -0.4560  0.2238
23433SOL     OW71749   7.921   5.386   1.402 -0.0646  0.6740 -0.2097
23433SOL    HW171750   7.853   5.374   1.468 -0.4953 -1.8459 -0.9702
23433SOL    HW271751   7.874   5.381   1.318  0.7465  1.4926 -0.7314
23434SOL     OW71752   7.954   1.201   6.066  0.3967  0.3467 -0.4922
23434SOL    HW171753   7.910   1.190   6.151  1.0400 -1.1816 -0.3200
23434SOL    HW271754   8.028   1.258   6.085  1.5820 -1.3966  0.4183
23435SOL     OW71755   6.035   6.853   1.068 -0.5714 -0.2052  0.0836
23435SOL    HW171756   6.014   6.785   1.132 -0.0618  0.4739  0.9990
23435SOL    HW271757   6.115   6.821   1.026 -0.5068 -0.3307  0.2943
23436SOL     OW71758   0.934   8.597   7.615 -0.0497  0.0625  0.1979
23436SOL    HW171759   0.925   8.633   7.527 -0.5587 -0.7606 -0.1012
23436SOL    HW271760   0.845   8.597   7.650  0.2544  1.0978  1.0178
23437SOL     OW71761   4.799   8.437   0.674 -0.5741  0.3863  0.1684
23437SOL    HW171762   4.875   8.382   0.655 -0.6796 -0.2020  1.3898
23437SOL    HW271763   4.794   8.440   0.769  0.5304  4.0251  0.2722
23438SOL     OW71764   6.463   7.371   2.423 -0.4233 -0.1612 -0.0986
23438SOL    HW171765   6.431   7.324   2.500  1.2515 -1.2641 -0.0163
23438SOL    HW271766   6.547   7.329   2.403  0.2153  1.5535 -1.2077
23439SOL     OW71767   5.641   5.949   5.613 -0.1236 -0.5636 -0.2153
23439SOL    HW171768   5.661   5.933   5.705  0.5592 -1.3679 -0.4885
23439SOL    HW271769   5.566   6.008   5.614 -1.1375 -1.8201  0.8528
23440SOL     OW71770   6.957   1.388   8.312  0.2019  0.0221  0.7159
23440SOL    HW171771   6.904   1.456   8.271  0.5952  0.2847  0.6453
23440SOL    HW271772   7.028   1.435   8.356 -0.1961 -0.2493  1.6889
23441SOL     OW71773   7.253   4.347   1.011  0.0040  0.1178 -0.1602
23441SOL    HW171774   7.337   4.389   1.032 -0.0987  1.2343 -1.7748
23441SOL    HW271775   7.263   4.257   1.041  1.2137  0.6241  1.0645
23442SOL     OW71776   5.672   0.372   0.635  0.4937 -0.2646 -0.0514
23442SOL    HW171777   5.607   0.353   0.702  0.5014  0.0735  0.0573
23442SOL    HW271778   5.678   0.292   0.583 -0.7337  0.0246 -0.6826
23443SOL     OW71779   7.140   4.314   0.239  0.0184 -0.4187  0.1253
23443SOL    HW171780   7.219   4.283   0.283 -1.0526 -1.6052  1.2888
23443SOL    HW271781   7.076   4.245   0.253 -1.4606  0.8380 -0.1696
23444SOL     OW71782   4.039   0.692   1.384 -0.5879 -1.0328  0.2467
23444SOL    HW171783   3.987   0.756   1.433 -3.1856 -3.3075  0.7018
23444SOL    HW271784   3.987   0.673   1.307  1.4528 -0.6718 -1.2955
23445SOL     OW71785   1.321   3.983   1.490  0.8686 -0.0818  0.0603
23445SOL    HW171786   1.279   3.905   1.526 -0.6720  0.3279 -0.7369
23445SOL    HW271787   1.299   3.980   1.396  2.5854  0.2082 -0.3726
23446SOL     OW71788   3.053   4.691   5.489  0.0230 -0.1632 -0.4405
23446SOL    HW171789   3.009   4.665   5.408 -0.8449 -1.3570  0.3998
23446SOL    HW271790   2.991   4.748   5.533 -0.9171 -2.1694  0.9362
23447SOL     OW71791   6.314   1.785   0.381  0.0975  0.3025  0.1863
23447SOL    HW171792   6.306   1.740   0.297  0.2276 -0.6081  0.6485
23447SOL    HW271793   6.338   1.716   0.443 -1.0401  0.7696  1.1791
23448SOL     OW71794   1.079   4.344   2.710  0.0199  0.7039 -0.2290
23448SOL    HW171795   1.158   4.394   2.689  1.4734 -1.4126 -0.1436
23448SOL    HW271796   1.090   4.261   2.664 -0.2329 -1.1814  2.8083
23449SOL     OW71797   2.052   7.517   7.265  0.2167  0.3703  0.4161
23449SOL    HW171798   2.042   7.539   7.173  1.1963  0.7139  0.3810
23449SOL    HW271799   2.031   7.424   7.270 -2.0842  0.8108  0.2488
23450SOL     OW71800   9.081   6.846   3.861 -0.3476 -0.3881  0.5815
23450SOL    HW171801   9.066   6.785   3.788 -0.0209 -0.5981  0.6879
23450SOL    HW271802   9.053   6.797   3.938  0.7860 -0.7648  0.7789
23451SOL     OW71803   7.917   5.413   0.307  0.3898  0.1801  0.6355
23451SOL    HW171804   7.882   5.479   0.366 -1.0484  0.1392 -0.1377
23451SOL    HW271805   8.006   5.397   0.339  0.1480  1.2024  1.8863
23452SOL     OW71806   4.862   6.859   1.377  0.2538 -0.3315  0.1305
23452SOL    HW171807   4.768   6.868   1.391  0.2966  1.7577 -0.5986
23452SOL    HW271808   4.888   6.787   1.435 -1.7460 -0.8853  0.4262
23453SOL     OW71809   6.319   7.778   8.315  0.2421  0.2913 -0.0270
23453SOL    HW171810   6.319   7.688   8.346 -1.2958 -0.0600 -0.9556
23453SOL    HW271811   6.410   7.807   8.326  0.8447 -1.4830 -0.0483
23454SOL     OW71812   1.061   3.187   9.019  0.1696  0.4945 -0.0762
23454SOL    HW171813   1.119   3.127   8.971 -1.0345  0.6155 -1.7854
23454SOL    HW271814   1.092   3.184   9.109  0.3639 -2.4229 -0.1657
23455SOL     OW71815   1.114   3.508   3.400  0.2610  0.0087  0.0863
23455SOL    HW171816   1.126   3.602   3.412  0.6216 -0.0458  0.1573
23455SOL    HW271817   1.178   3.483   3.334 -0.9195  0.0922 -1.1339
23456SOL     OW71818   7.160   2.507   6.464 -0.0355 -0.2665 -0.1782
23456SOL    HW171819   7.177   2.502   6.370  0.3104  0.2519 -0.1510
23456SOL    HW271820   7.075   2.466   6.476 -0.3056  0.1156 -0.7875
23457SOL     OW71821   2.805   3.170   7.422  0.1849  0.2538 -0.3420
23457SOL    HW171822   2.888   3.123   7.425 -1.0165 -2.0392 -0.2686
23457SOL    HW271823   2.767   3.158   7.509 -0.0648  1.6653 -0.2272
23458SOL     OW71824   0.112   6.323   7.943  0.2019  0.2577 -0.0879
23458SOL    HW171825   0.040   6.310   7.880  1.7003  0.0776 -1.8497
23458SOL    HW271826   0.188   6.346   7.889  1.6669 -0.2635  1.6405
23459SOL     OW71827   7.245   6.535   3.055  0.1288  0.0214  0.3717
23459SOL    HW171828   7.296   6.463   3.092 -1.0123 -0.1538  1.6642
23459SOL    HW271829   7.220   6.588   3.130 -1.0192  0.4726 -0.3038
23460SOL     OW71830   2.451   2.639   0.618  0.5500  0.1949 -0.0663
23460SOL    HW171831   2.359   2.629   0.642  1.0215 -0.5111  1.6572
23460SOL    HW271832   2.473   2.729   0.642  0.3881  0.2647 -0.1810
23461SOL     OW71833   2.542   7.206   6.509  0.1673  0.2973  0.0885
23461SOL    HW171834   2.538   7.281   6.568  0.1764  0.0678  0.3841
23461SOL    HW271835   2.482   7.141   6.548  1.7946 -0.6989  1.0579
23462SOL     OW71836   1.123   6.107   1.114  0.1200  0.4310 -0.1150
23462SOL    HW171837   1.070   6.116   1.035 -2.9589  2.9070  1.9765
23462SOL    HW271838   1.081   6.034   1.162 -0.0586  0.9724  0.5746
23463SOL     OW71839   2.227   2.324   0.794  0.1159 -0.5592  0.0061
23463SOL    HW171840   2.291   2.322   0.866 -0.0197  0.7033  0.1917
23463SOL    HW271841   2.144   2.348   0.836 -0.0162 -0.0493 -0.5221
23464SOL     OW71842   4.477   7.614   6.030 -0.2167  0.0927  0.1217
23464SOL    HW171843   4.490   7.615   5.935  0.3154 -0.0305  0.1850
23464SOL    HW271844   4.434   7.530   6.047  0.1063 -0.0978  0.0301
23465SOL     OW71845   8.147   6.460   2.094 -0.2162  0.0185  0.0223
23465SOL    HW171846   8.199   6.432   2.168 -0.9292  0.8601  0.8697
23465SOL    HW271847   8.209   6.469   2.022  0.4524 -0.9843  0.4580
23466SOL     OW71848   8.239   0.279   8.542  0.0278 -0.2717  0.0438
23466SOL    HW171849   8.168   0.227   8.506  0.0177 -0.2939  0.0952
23466SOL    HW271850   8.304   0.283   8.472 -1.3406  2.4236 -1.2328
23467SOL     OW71851   1.979   4.464   5.412 -0.1962 -0.8374  0.3844
23467SOL    HW171852   2.040   4.390   5.406  0.5377 -0.2509  0.5043
23467SOL    HW271853   1.963   4.489   5.321 -1.6985 -2.1367  0.2600
23468SOL     OW71854   4.309   6.684   3.693  0.4114  0.7904  0.6669
23468SOL    HW171855   4.338   6.653   3.779  1.0893  0.6516  0.3981
23468SOL    HW271856   4.230   6.635   3.674  0.3365  0.7220  1.1503
23469SOL     OW71857   8.636   1.509   3.426 -0.6868 -0.0104  0.2895
23469SOL    HW171858   8.657   1.470   3.511  0.0855 -0.1335  0.0463
23469SOL    HW271859   8.656   1.602   3.437  2.2125 -0.4398 -0.5981
23470SOL     OW71860   5.654   5.974   2.625  0.1955 -0.1003 -0.0201
23470SOL    HW171861   5.717   5.916   2.582  0.0087 -0.4792  0.2178
23470SOL    HW271862   5.644   5.939   2.713  1.0196  1.0186  0.5507
23471SOL     OW71863   6.729   8.954   2.049  0.0236 -0.1647  0.0248
23471SOL    HW171864   6.645   8.910   2.061  1.2480 -2.1942  1.8075
23471SOL    HW271865   6.707   9.047   2.042 -2.3342 -0.6171  0.7936
23472SOL     OW71866   7.272   7.011   1.654 -0.0073  0.4125  0.0018
23472SOL    HW171867   7.317   6.943   1.603  1.8138  1.5332  0.0041
23472SOL    HW271868   7.304   6.997   1.744  0.7526  1.5132 -0.0758
23473SOL     OW71869   0.182   3.900   6.987 -0.1324  0.0656  0.0182
23473SOL    HW171870   0.196   3.868   6.898 -0.0761  0.5010 -0.1333
23473SOL    HW271871   0.255   3.960   7.003 -1.1181  1.4205 -0.3334
23474SOL     OW71872   6.101   8.891   5.534  0.0245 -0.1503  0.5692
23474SOL    HW171873   6.190   8.923   5.518  0.2211 -1.1670 -0.4861
23474SOL    HW271874   6.073   8.937   5.613  0.9503  1.2462  0.1216
23475SOL     OW71875   1.149   6.717   7.587 -0.7427 -0.0904  0.5332
23475SOL    HW171876   1.166   6.704   7.494  2.7957  0.3902  0.9644
23475SOL    HW271877   1.093   6.643   7.612  1.0576 -2.2339 -1.3051
23476SOL     OW71878   4.638   4.403   0.424 -0.2397  0.3305 -0.2081
23476SOL    HW171879   4.593   4.392   0.341  0.8962 -0.4255 -0.7443
23476SOL    HW271880   4.674   4.317   0.444  0.1999  0.6990  0.6516
23477SOL     OW71881   0.593   3.120   4.947  0.8512  0.0923  1.0193
23477SOL    HW171882   0.594   3.024   4.945 -0.9978  0.0356  1.2738
23477SOL    HW271883   0.566   3.142   5.036  1.5064  0.8715  1.0331
23478SOL     OW71884   8.407   4.441   5.414 -0.0044  0.0355  0.0549
23478SOL    HW171885   8.394   4.346   5.418  0.2054 -0.1227 -2.0103
23478SOL    HW271886   8.334   4.473   5.362  0.3966  0.8920  0.0040
23479SOL     OW71887   9.261   6.548   6.646  0.3610  0.2466 -0.0060
23479SOL    HW171888   9.246   6.595   6.728 -1.0058 -1.3176  0.7122
23479SOL    HW271889   9.255   6.615   6.578  0.9457  1.4833  1.1221
23480SOL     OW71890   3.043   6.383   7.033 -0.2075  0.6605  0.2814
23480SOL    HW171891   3.099   6.432   6.972  0.3404 -0.4845 -0.1738
23480SOL    HW271892   2.954   6.405   7.007 -0.1026 -1.8485 -2.8126
23481SOL     OW71893   3.131   3.360   6.829 -0.5731  0.1465  0.3733
23481SOL    HW171894   3.223   3.385   6.838 -0.7133  1.3217 -1.1050
23481SOL    HW271895   3.132   3.281   6.776 -0.3137 -1.4017  2.5356
23482SOL     OW71896   7.137   2.676   2.272  0.0459  1.0835  0.4990
23482SOL    HW171897   7.196   2.654   2.345 -2.5461  1.3561  2.8392
23482SOL    HW271898   7.099   2.760   2.298 -1.9492  0.5349 -0.4995
23483SOL     OW71899   0.359   2.737   3.950  0.0584  0.2473  0.0190
23483SOL    HW171900   0.453   2.729   3.938  0.3834  0.8156  1.8197
23483SOL    HW271901   0.335   2.660   4.003  0.3937  2.2934  3.4912
23484SOL     OW71902   1.842   4.228   6.586 -0.1206 -0.5498  0.1749
23484SOL    HW171903   1.907   4.298   6.580  0.2660 -0.9080  0.1180
23484SOL    HW271904   1.863   4.171   6.512 -1.2638 -0.0328 -0.5674
23485SOL     OW71905   4.372   0.390   5.875 -0.2152  0.2233  0.7499
23485SOL    HW171906   4.449   0.387   5.933  0.6696  0.2925 -0.3902
23485SOL    HW271907   4.409   0.391   5.787 -1.5410  0.2843  0.1814
23486SOL     OW71908   4.292   1.758   6.382 -0.1299  0.1504 -0.3364
23486SOL    HW171909   4.344   1.678   6.377 -0.9366 -0.3629 -0.7760
23486SOL    HW271910   4.216   1.741   6.326 -0.4116  1.1532 -0.2880
23487SOL     OW71911   6.998   7.258   6.498 -0.1049 -0.5820  0.6871
23487SOL    HW171912   6.909   7.291   6.488  0.7999  1.1793 -3.9088
23487SOL    HW271913   6.993   7.167   6.470 -0.4841 -0.5696  0.7094
23488SOL     OW71914   5.014   1.079   5.419 -0.2580 -0.0812  0.1177
23488SOL    HW171915   4.975   1.003   5.463 -0.8006 -0.0966 -0.3796
23488SOL    HW271916   5.108   1.068   5.431 -0.3917  0.6326  2.4973
23489SOL     OW71917   3.894   3.686   6.404  0.1523  0.0994  0.3161
23489SOL    HW171918   3.969   3.632   6.377 -0.7887 -1.8487  1.4402
23489SOL    HW271919   3.921   3.725   6.487  0.4868  0.6364 -0.0408
23490SOL     OW71920   9.122   7.676   6.205 -0.1601  0.1166 -0.3441
23490SOL    HW171921   9.115   7.750   6.144 -0.5523  1.3162  1.0995
23490SOL    HW271922   9.213   7.648   6.199 -0.0291  0.6537 -0.9881
23491SOL     OW71923   7.591   7.283   1.368  0.1659 -0.4674  0.3630
23491SOL    HW171924   7.506   7.270   1.412 -0.5952  1.3884 -0.4612
23491SOL    HW271925   7.573   7.348   1.300  1.4605 -2.7120 -2.3185
23492SOL     OW71926   5.825   1.389   4.981  0.3433 -0.2187 -0.2400
23492SOL    HW171927   5.813   1.321   4.914  0.6748 -1.0763  0.5563
23492SOL    HW271928   5.883   1.454   4.939  0.8007 -0.8978 -0.6829
23493SOL     OW71929   3.431   2.948   0.781  0.0203 -0.0989  0.3789
23493SOL    HW171930   3.376   2.930   0.858 -0.9780  1.1364 -0.0231
23493SOL    HW271931   3.379   2.916   0.707 -0.1832  1.1158 -0.0101
23494SOL     OW71932   4.536   1.975   8.559 -0.1717  0.1641  0.1115
23494SOL    HW171933   4.610   1.988   8.619  1.5551  2.4292 -2.2881
23494SOL    HW271934   4.576   1.974   8.472 -2.8237 -0.3957 -1.1876
23495SOL     OW71935   4.493   0.074   0.160 -0.0863 -0.5691 -0.0028
23495SOL    HW171936   4.420   0.130   0.135  1.6509  1.4260 -0.9606
23495SOL    HW271937   4.499   0.083   0.255  0.1335  0.8977 -0.1399
23496SOL     OW71938   7.772   3.708   4.263  0.3276  0.5840  0.0192
23496SOL    HW171939   7.709   3.721   4.193 -0.4365 -0.0776  0.5608
23496SOL    HW271940   7.741   3.631   4.310 -0.7244  2.4629  2.6809
23497SOL     OW71941   1.193   5.508   9.054  0.3467  0.8766  0.0308
23497SOL    HW171942   1.239   5.583   9.092  2.6465 -1.8469  3.3142
23497SOL    HW271943   1.119   5.495   9.112  1.2365 -0.5892  0.9058
23498SOL     OW71944   6.080   2.596   7.334 -0.2132 -0.3525  0.1106
23498SOL    HW171945   6.139   2.649   7.279 -0.8882 -1.3280 -1.6081
23498SOL    HW271946   6.139   2.552   7.396  0.6530  0.1246 -0.3469
23499SOL     OW71947   7.570   5.645   8.018  0.3330 -0.0944 -0.1145
23499SOL    HW171948   7.593   5.736   8.036 -1.2685  0.6800 -1.7028
23499SOL    HW271949   7.475   5.643   8.016  0.2874 -1.1438 -2.8969
23500SOL     OW71950   0.329   0.704   5.591  0.3919  0.1072  0.0064
23500SOL    HW171951   0.348   0.630   5.534  0.4868  0.9665 -1.1025
23500SOL    HW271952   0.234   0.705   5.599  0.4371 -0.7233  0.8587
23501SOL     OW71953   0.717   3.102   6.863  0.5871 -0.1441  0.2453
23501SOL    HW171954   0.767   3.021   6.868  4.0506  1.7792  0.5997
23501SOL    HW271955   0.743   3.141   6.779 -0.9302  0.6532  0.1059
23502SOL     OW71956   8.238   8.280   1.061 -0.3525 -0.0181 -0.4202
23502SOL    HW171957   8.293   8.211   1.099 -1.5356 -0.5984  0.3066
23502SOL    HW271958   8.280   8.361   1.088  1.0730 -0.4277 -1.2959
23503SOL     OW71959   5.682   8.023   6.632  0.0214  0.7526  0.4219
23503SOL    HW171960   5.665   8.093   6.568 -0.8426  1.7488  1.6888
23503SOL    HW271961   5.774   8.000   6.618  0.1687  1.7592 -0.4031
23504SOL     OW71962   3.655   8.328   3.388  0.3828  0.4043 -1.3035
23504SOL    HW171963   3.739   8.348   3.431  0.4573 -2.4432  0.0860
23504SOL    HW271964   3.679   8.287   3.305  0.4202 -0.8688 -0.6830
23505SOL     OW71965   4.101   6.939   1.938  0.0801 -0.3295  0.4127
23505SOL    HW171966   4.130   6.937   2.029 -0.2933  0.2397  0.5464
23505SOL    HW271967   4.012   6.972   1.942 -0.7880 -2.4758  0.0505
23506SOL     OW71968   8.357   4.307   1.039 -0.4389  0.9041 -0.3274
23506SOL    HW171969   8.282   4.274   1.089  2.0810 -2.0260  1.8754
23506SOL    HW271970   8.402   4.366   1.099  2.3250 -2.2324  0.9720
23507SOL     OW71971   4.185   0.444   8.691 -0.0404  0.2188  0.0627
23507SOL    HW171972   4.187   0.355   8.655 -0.1259 -0.1022  0.8295
23507SOL    HW271973   4.270   0.481   8.667  0.8829 -0.8245  1.5613
23508SOL     OW71974   7.165   0.257   5.394  0.0600 -0.1465  0.3913
23508SOL    HW171975   7.139   0.247   5.485  2.7211 -2.2131  1.0670
23508SOL    HW271976   7.181   0.350   5.383 -1.1563  0.2574  1.7482
23509SOL     OW71977   6.440   0.414   1.404 -0.0565 -0.0326  0.0401
23509SOL    HW171978   6.395   0.413   1.320 -0.7703 -0.7510  0.4232
23509SOL    HW271979   6.388   0.357   1.461  0.9321 -0.3117  0.6985
23510SOL     OW71980   4.315   1.137   5.811 -0.0284  0.2029 -0.8034
23510SOL    HW171981   4.311   1.231   5.830  0.8912  0.3400 -1.2670
23510SOL    HW271982   4.406   1.113   5.825 -0.0027 -0.3719 -1.8520
23511SOL     OW71983   5.680   2.266   5.094 -0.4680 -0.1793  0.0770
23511SOL    HW171984   5.652   2.229   5.010 -2.1615  2.1800 -0.4752
23511SOL    HW271985   5.774   2.248   5.097 -0.5191 -1.1081 -1.8789
23512SOL     OW71986   4.022   7.001   2.688 -0.1434 -0.1182  0.8934
23512SOL    HW171987   4.088   7.053   2.735 -0.0934  0.7421 -0.0897
23512SOL    HW271988   4.012   7.046   2.604 -0.6000 -1.3272  0.2784
23513SOL     OW71989   5.454   2.915   4.706 -0.0530 -0.1206  0.6225
23513SOL    HW171990   5.515   2.865   4.651  0.9662  2.6581 -0.9423
23513SOL    HW271991   5.510   2.964   4.766 -0.9483  0.1188  1.2864
23514SOL     OW71992   6.626   1.034   0.224 -0.1803 -0.0000  0.8885
23514SOL    HW171993   6.576   1.104   0.267 -0.4499  0.1654  0.3123
23514SOL    HW271994   6.644   0.971   0.294 -0.6788  0.2291  1.2279
23515SOL     OW71995   0.131   8.471   6.731  0.4611  0.1788  0.6702
23515SOL    HW171996   0.082   8.391   6.752 -2.0256  1.3493 -0.2856
23515SOL    HW271997   0.167   8.454   6.644  3.2986 -1.2848  1.9767
23516SOL     OW71998   5.951   8.268   4.875 -0.0061 -0.2923  0.8747
23516SOL    HW171999   6.031   8.317   4.896  0.5170 -0.8001  0.1174
23516SOL    HW272000   5.890   8.335   4.844  0.5863 -0.0678  0.1649
23517SOL     OW72001   6.265   4.254   1.566  0.4783 -0.1642 -0.4400
23517SOL    HW172002   6.207   4.181   1.544 -0.4337  0.0510  1.1268
23517SOL    HW272003   6.336   4.214   1.616  0.0128  0.0031  0.3624
23518SOL     OW72004   5.564   4.521   2.866 -0.1548  0.3105  0.1313
23518SOL    HW172005   5.625   4.569   2.923  0.8724 -2.0574  1.1819
23518SOL    HW272006   5.607   4.521   2.780 -0.6133  1.9718 -0.1298
23519SOL     OW72007   8.651   5.238   3.104  0.2749  0.1247  0.5759
23519SOL    HW172008   8.721   5.214   3.164  0.5228 -0.2930  0.1193
23519SOL    HW272009   8.571   5.234   3.157  0.4731 -0.3871  0.8336
23520SOL     OW72010   1.994   3.381   8.611 -0.6127  0.3491  0.0627
23520SOL    HW172011   1.967   3.326   8.538  0.5621 -2.0825  1.2982
23520SOL    HW272012   1.933   3.359   8.682  0.2389  0.1126  0.7549
23521SOL     OW72013   8.355   4.860   8.405 -0.0840  0.2900  0.4569
23521SOL    HW172014   8.389   4.902   8.326  1.1050  1.9660  1.7713
23521SOL    HW272015   8.422   4.796   8.429 -0.7925 -0.7504 -0.2582
23522SOL     OW72016   7.437   0.724   3.343 -0.1191 -0.4462  0.1824
23522SOL    HW172017   7.429   0.820   3.344  0.6391 -0.1710 -3.7937
23522SOL    HW272018   7.348   0.693   3.323 -0.6945 -0.7779  2.9231
23523SOL     OW72019   8.095   6.157   5.469  0.2436  0.1337  0.5828
23523SOL    HW172020   8.115   6.210   5.392  1.4587 -1.1713 -0.0480
23523SOL    HW272021   8.141   6.201   5.540  1.0313  0.0666  0.1220
23524SOL     OW72022   2.973   6.468   0.019 -0.1219  0.1278 -0.0777
23524SOL    HW172023   3.063   6.440   0.006  0.5339  2.2596 -0.6089
23524SOL    HW272024   2.927   6.390   0.048  1.8859 -1.0213  0.1874
23525SOL     OW72025   5.455   8.432   0.964 -0.7685  0.0211 -0.0534
23525SOL    HW172026   5.461   8.492   0.890  0.2088  0.4204  0.3264
23525SOL    HW272027   5.418   8.352   0.928  0.3642 -0.0398 -1.1418
23526SOL     OW72028   3.265   6.680   7.084  0.6381  0.0918  0.1581
23526SOL    HW172029   3.292   6.655   7.172  0.7671  0.1068  0.1224
23526SOL    HW272030   3.324   6.751   7.059 -0.2055  0.9627  0.5550
23527SOL     OW72031   4.697   5.363   4.922  0.1306 -0.4774  0.0757
23527SOL    HW172032   4.736   5.367   5.009  0.1338 -1.0797  0.1077
23527SOL    HW272033   4.627   5.298   4.930 -0.1924 -0.1746 -0.2471
23528SOL     OW72034   5.902   5.240   2.766  0.0725  0.2952 -0.2792
23528SOL    HW172035   5.859   5.167   2.721  1.0033 -0.1646 -0.4315
23528SOL    HW272036   5.905   5.310   2.701 -1.2869  0.6759  0.0232
23529SOL     OW72037   5.765   3.659   0.350 -0.2225  0.3266  0.2812
23529SOL    HW172038   5.763   3.728   0.416 -2.7649  0.4886  0.1100
23529SOL    HW272039   5.851   3.668   0.308 -0.2624  3.0266  0.6315
23530SOL     OW72040   3.312   8.218   2.878 -0.1395 -0.1067 -0.4133
23530SOL    HW172041   3.231   8.168   2.868 -1.5062  1.4402  1.9248
23530SOL    HW272042   3.284   8.309   2.884  1.3770  0.2955  3.3306
23531SOL     OW72043   6.575   2.205   4.213 -0.0131 -0.4950  0.0803
23531SOL    HW172044   6.611   2.293   4.226  0.5369 -0.5524 -0.9278
23531SOL    HW272045   6.498   2.218   4.158  0.7255 -0.7300 -1.0462
23532SOL     OW72046   1.572   4.421   6.971 -0.3178  0.0103  0.1177
23532SOL    HW172047   1.545   4.405   7.062 -2.2339  0.5254 -0.3234
23532SOL    HW272048   1.557   4.338   6.926 -3.7149  0.9162 -0.6621
23533SOL     OW72049   2.901   8.570   1.404  0.0229 -0.5327 -0.4628
23533SOL    HW172050   2.912   8.572   1.309  0.5690 -2.1425 -0.4574
23533SOL    HW272051   2.819   8.523   1.418 -0.1399 -0.1580 -0.1378
23534SOL     OW72052   0.146   4.307   2.461 -0.4832 -0.0910  0.1643
23534SOL    HW172053   0.112   4.259   2.536  0.5443  0.5668  1.0791
23534SOL    HW272054   0.175   4.239   2.400 -1.3342 -0.6287  0.3463
23535SOL     OW72055   2.451   1.818   0.046  0.1062 -0.2746 -0.6253
23535SOL    HW172056   2.418   1.763  -0.025 -1.0720 -0.2775 -0.0879
23535SOL    HW272057   2.515   1.875   0.003 -0.1108 -0.7131 -1.5673
23536SOL     OW72058   2.974   3.602   4.463  0.3899 -0.0687  0.1603
23536SOL    HW172059   2.927   3.685   4.449 -0.2409 -0.5036 -0.3360
23536SOL    HW272060   2.949   3.548   4.388  0.9485 -0.6439  0.3850
23537SOL     OW72061   7.301   2.143   5.029  0.4062  0.1827 -0.4715
23537SOL    HW172062   7.387   2.167   5.062  1.4018  0.1351 -2.8044
23537SOL    HW272063   7.291   2.050   5.052  1.7345 -0.2642 -1.5616
23538SOL     OW72064   3.100   8.444   5.268 -0.1660 -0.0708  0.4101
23538SOL    HW172065   3.080   8.532   5.299 -1.6631  0.1527 -1.0224
23538SOL    HW272066   3.015   8.400   5.265  0.3608 -1.0804 -0.2775
23539SOL     OW72067   7.014   7.034   6.952  0.2370  0.1939 -0.3841
23539SOL    HW172068   7.006   6.998   6.863  1.0299 -0.3362 -0.2451
23539SOL    HW272069   7.054   7.120   6.940  0.3946  0.0993 -0.5334
23540SOL     OW72070   0.370   5.852   6.201 -0.0079  0.5079 -0.0056
23540SOL    HW172071   0.456   5.864   6.159 -0.7896  2.4193 -1.1651
23540SOL    HW272072   0.375   5.903   6.281 -0.0457  0.5916 -0.0563
23541SOL     OW72073   2.551   9.074   2.316 -0.1059 -0.4796  0.0783
23541SOL    HW172074   2.545   9.168   2.334 -3.1742 -0.4769 -0.4089
23541SOL    HW272075   2.582   9.069   2.225  1.0464 -0.0075  0.4272
23542SOL     OW72076   2.963   9.191   8.843  0.0436 -0.1451  0.7888
23542SOL    HW172077   2.924   9.143   8.916 -1.0398 -1.0216 -0.3239
23542SOL    HW272078   3.004   9.124   8.788  0.9020  0.5057  0.6114
23543SOL     OW72079   4.293   2.413   6.498 -0.1310  0.4355  0.0721
23543SOL    HW172080   4.356   2.441   6.432  0.9002 -0.6365  0.5765
23543SOL    HW272081   4.222   2.478   6.492  0.8087  1.4289 -0.7812
23544SOL     OW72082   3.744   5.964   8.906  0.3180  0.1723  0.0564
23544SOL    HW172083   3.660   6.010   8.898 -1.3132 -2.8122 -2.9176
23544SOL    HW272084   3.748   5.937   8.998 -2.3701 -0.1452  0.1667
23545SOL     OW72085   6.679   7.865   8.742  0.3733  0.1379 -0.3119
23545SOL    HW172086   6.631   7.785   8.722  1.0564 -0.3712  0.0758
23545SOL    HW272087   6.633   7.902   8.818  1.0926 -0.8012  0.6088
23546SOL     OW72088   4.092   7.929   6.830  0.1843  0.3715 -0.5377
23546SOL    HW172089   4.110   7.835   6.830  1.5315  0.6066  0.4288
23546SOL    HW272090   4.010   7.937   6.781  0.3046 -1.2477 -1.0767
23547SOL     OW72091   0.220   5.321   0.152  0.3626  0.2804 -0.1747
23547SOL    HW172092   0.266   5.392   0.107 -1.4015  2.4363  1.1862
23547SOL    HW272093   0.147   5.299   0.095 -0.4458  1.2702  0.4460
23548SOL     OW72094   1.052   2.281   9.186 -0.0705  0.5502  0.6290
23548SOL    HW172095   1.032   2.283   9.280  1.6928  3.2472  1.0479
23548SOL    HW272096   1.112   2.354   9.173  1.6623 -1.2003 -2.1978
23549SOL     OW72097   7.388   6.684   6.815  0.3241  0.1918 -0.1723
23549SOL    HW172098   7.299   6.700   6.846  0.2183  1.7498 -1.1787
23549SOL    HW272099   7.383   6.600   6.769 -0.4987  0.0206  0.2200
23550SOL     OW72100   4.494   8.489   6.620 -0.2695  0.0455 -0.0080
23550SOL    HW172101   4.437   8.445   6.683 -2.2402  1.1731 -0.9311
23550SOL    HW272102   4.460   8.579   6.615  0.4648  0.2579 -1.9327
23551SOL     OW72103   2.746   2.533   2.112  0.0175 -0.3909 -1.2397
23551SOL    HW172104   2.799   2.485   2.176 -2.7150 -2.1069 -0.0550
23551SOL    HW272105   2.809   2.580   2.058  2.6412 -1.7230  0.4739
23552SOL     OW72106   9.164   8.185   4.533 -0.3488 -0.4086 -0.0236
23552SOL    HW172107   9.100   8.224   4.474  0.3832  1.6238  0.4518
23552SOL    HW272108   9.239   8.163   4.477 -0.9002 -1.5092 -0.3506
23553SOL     OW72109   7.462   3.732   0.965 -0.0482 -0.0701 -0.0904
23553SOL    HW172110   7.367   3.739   0.975 -0.0803  0.4212 -0.7399
23553SOL    HW272111   7.478   3.746   0.872  0.5448 -1.4802 -0.2265
23554SOL     OW72112   6.340   7.053   7.210  0.6531 -0.9144  0.1337
23554SOL    HW172113   6.347   6.994   7.135 -1.5730 -2.6521  1.1605
23554SOL    HW272114   6.246   7.056   7.230  1.1107 -0.1695  2.5581
23555SOL     OW72115   6.831   2.692   2.695 -0.3877  0.2408 -0.0401
23555SOL    HW172116   6.918   2.671   2.661  0.1326  1.9279  0.1614
23555SOL    HW272117   6.833   2.660   2.786  0.0520  0.3593 -0.0070
23556SOL     OW72118   7.149   9.242   1.255  0.1947 -0.0428  0.0116
23556SOL    HW172119   7.202   9.171   1.220  0.7189 -0.2875  1.2587
23556SOL    HW272120   7.062   9.203   1.268  0.6711 -0.6940  1.3922
23557SOL     OW72121   1.021   7.347   3.767  1.0509  0.0182 -0.4038
23557SOL    HW172122   0.973   7.380   3.691 -1.9597 -1.3241  0.7516
23557SOL    HW272123   1.082   7.417   3.789 -0.6747  2.0802 -1.7732
23558SOL     OW72124   2.463   7.541   8.644 -0.7380 -0.0385  0.1960
23558SOL    HW172125   2.551   7.563   8.673 -0.6681 -1.0148  0.7452
23558SOL    HW272126   2.425   7.490   8.716 -1.8207  0.5235  0.0473
23559SOL     OW72127   5.454   8.800   6.591 -0.4620 -0.6662 -0.1587
23559SOL    HW172128   5.468   8.881   6.544  0.5608 -0.4963  0.4023
23559SOL    HW272129   5.393   8.750   6.537 -1.2939  0.5631 -0.3878
23560SOL     OW72130   1.876   7.538   8.805  0.1119  0.6242 -0.2407
23560SOL    HW172131   1.795   7.522   8.853 -0.1014  0.3026 -0.7004
23560SOL    HW272132   1.867   7.627   8.772  0.1001  0.7163  0.0131
23561SOL     OW72133   7.427   6.470   5.128  0.4597 -0.1091 -0.2480
23561SOL    HW172134   7.467   6.415   5.060 -1.1387 -0.9943 -0.5370
23561SOL    HW272135   7.362   6.413   5.169  1.2789  0.4575  1.9633
23562SOL     OW72136   5.640   3.040   2.937  0.1250 -0.0218  0.5716
23562SOL    HW172137   5.554   3.040   2.894 -0.1890  0.0953  1.1792
23562SOL    HW272138   5.629   2.979   3.011  0.4936  0.1684  0.7837
23563SOL     OW72139   0.726   6.767   7.878  0.7166 -0.0913  0.3509
23563SOL    HW172140   0.769   6.706   7.938 -1.0430 -1.4242  0.3766
23563SOL    HW272141   0.667   6.711   7.827  0.0785  1.4202 -0.6358
23564SOL     OW72142   8.007   7.882   3.365 -0.6465 -0.1879 -0.1588
23564SOL    HW172143   7.956   7.803   3.384 -2.3800 -0.5212 -4.8275
23564SOL    HW272144   7.944   7.953   3.366 -0.3595  0.1249 -1.7468
23565SOL     OW72145   7.608   0.045   7.173  0.4589  0.0011  0.2569
23565SOL    HW172146   7.571   0.024   7.088 -0.2760  0.3960  0.4763
23565SOL    HW272147   7.637   0.136   7.165  0.8767 -0.1263  0.2691
23566SOL     OW72148   3.971   8.845   7.739  0.4660  0.2083 -0.4367
23566SOL    HW172149   3.883   8.860   7.774  0.4246 -1.1381  0.0867
23566SOL    HW272150   4.009   8.933   7.732 -1.2779  0.9188 -1.6931
23567SOL     OW72151   1.227   2.087   5.813  0.7969 -0.5511  0.3850
23567SOL    HW172152   1.237   1.992   5.801 -0.1757 -0.6238  0.0859
23567SOL    HW272153   1.292   2.125   5.754  1.8906 -1.0323  1.2354
23568SOL     OW72154   9.150   6.918   5.327  0.3456  0.0753  0.2505
23568SOL    HW172155   9.229   6.971   5.317 -0.2129  1.1306  1.1971
23568SOL    HW272156   9.079   6.982   5.333 -0.6428 -0.8618 -0.9394
23569SOL     OW72157   0.131   5.170   4.333 -0.3161 -0.0188 -0.0991
23569SOL    HW172158   0.076   5.248   4.342 -0.1948  0.2427 -1.4443
23569SOL    HW272159   0.108   5.116   4.409 -2.2548  0.1784 -0.5019
23570SOL     OW72160   2.359   2.461   4.965 -0.4267  0.2335  0.3938
23570SOL    HW172161   2.347   2.529   5.032  1.4540 -0.1009  1.1344
23570SOL    HW272162   2.448   2.474   4.933  0.3121 -2.3133  1.1258
23571SOL     OW72163   2.638   0.119   4.500  0.0716 -0.1960 -0.0391
23571SOL    HW172164   2.704   0.181   4.530  0.8569  0.7294 -3.2873
23571SOL    HW272165   2.554   0.162   4.521  0.5834  1.0797 -0.4804
23572SOL     OW72166   2.195   4.341   1.677 -0.4928 -0.0373  0.0704
23572SOL    HW172167   2.277   4.332   1.726 -0.4777  0.0960  0.0722
23572SOL    HW272168   2.127   4.328   1.742 -0.4839 -1.7193 -0.2332
23573SOL     OW72169   2.058   2.022   5.903 -0.0657  0.3641  0.1505
23573SOL    HW172170   1.994   2.046   5.970 -1.8070  1.2535 -1.7456
23573SOL    HW272171   2.114   2.099   5.896 -0.3644  0.5713  0.0359
23574SOL     OW72172   1.907   5.947   9.092  0.2495  0.0737  0.0059
23574SOL    HW172173   1.954   5.989   9.164  3.1488 -0.6456 -1.2888
23574SOL    HW272174   1.867   5.870   9.131  1.3378 -0.0290  0.9776
23575SOL     OW72175   8.124   7.589   2.616  0.1976 -0.1673 -0.5443
23575SOL    HW172176   8.076   7.586   2.698 -2.6966  0.3892 -2.0950
23575SOL    HW272177   8.140   7.682   2.601  0.1015 -0.2137 -0.9420
23576SOL     OW72178   2.193   8.773   6.153  0.4155 -0.3646 -0.2768
23576SOL    HW172179   2.192   8.778   6.249  3.4897  0.3716 -0.1883
23576SOL    HW272180   2.285   8.780   6.129 -0.2885 -0.0444 -3.3456
23577SOL     OW72181   4.500   4.218   1.452  0.1496  0.4768 -0.6253
23577SOL    HW172182   4.487   4.213   1.357 -2.5380  1.2417 -0.3788
23577SOL    HW272183   4.424   4.267   1.484  1.9436  1.9070  1.7439
23578SOL     OW72184   3.594   5.399   0.229  0.3518 -0.3506  0.7493
23578SOL    HW172185   3.507   5.374   0.261 -0.3902  1.0737 -0.0599
23578SOL    HW272186   3.637   5.438   0.305  0.1514 -0.7374  1.0650
23579SOL     OW72187   5.188   8.749   5.971  0.4452  0.1659  0.4823
23579SOL    HW172188   5.265   8.806   5.961 -0.9858  2.5086  1.8681
23579SOL    HW272189   5.181   8.736   6.066 -0.1396 -1.1222  0.2827
23580SOL     OW72190   5.052   0.841   2.567  0.2039 -0.0286  0.2390
23580SOL    HW172191   4.999   0.919   2.548  0.5481  0.2474  0.4015
23580SOL    HW272192   5.125   0.874   2.619  0.3484 -0.4645  0.3147
23581SOL     OW72193   0.820   2.111   3.604 -0.6538  0.5293  0.1509
23581SOL    HW172194   0.768   2.031   3.593 -0.6518  0.4396  0.7776
23581SOL    HW272195   0.901   2.094   3.557 -1.8728  1.3662 -2.4802
23582SOL     OW72196   6.400   0.783   1.607  0.1213 -0.2095 -0.0768
23582SOL    HW172197   6.397   0.739   1.692  0.5429 -1.2901 -0.6068
23582SOL    HW272198   6.487   0.764   1.573 -0.0845  0.1119 -0.8038
23583SOL     OW72199   6.817   6.525   1.279  0.4437  0.7871 -0.1019
23583SOL    HW172200   6.879   6.506   1.209  0.1542 -2.5407  0.3881
23583SOL    HW272201   6.731   6.513   1.239  0.1308  2.5684 -0.0504
23584SOL     OW72202   6.822   2.598   9.153  0.1219 -0.1608 -0.0401
23584SOL    HW172203   6.907   2.641   9.165  0.1012 -0.0178 -0.3769
23584SOL    HW272204   6.770   2.626   9.228  0.0513  0.5578 -0.3464
23585SOL     OW72205   8.329   8.388   5.257 -0.1395 -0.3332 -0.7124
23585SOL    HW172206   8.294   8.462   5.306  1.4951  0.7983 -1.1913
23585SOL    HW272207   8.266   8.374   5.187  0.0725  1.3183 -1.2567
23586SOL     OW72208   7.523   4.284   2.993  0.0589 -0.7195 -0.6676
23586SOL    HW172209   7.496   4.375   2.986  1.3220 -0.3727 -1.3959
23586SOL    HW272210   7.539   4.270   3.086  1.6423  0.3846 -0.7230
23587SOL     OW72211   9.141   1.535   2.987  0.0984 -0.0976  0.1648
23587SOL    HW172212   9.229   1.564   3.012  0.0726  0.1865 -0.0703
23587SOL    HW272213   9.095   1.615   2.965 -0.4358 -0.1812  0.9505
23588SOL     OW72214   6.056   2.724   0.841 -0.0091  0.9633  0.3386
23588SOL    HW172215   6.000   2.647   0.851  0.6874  0.4688  0.5793
23588SOL    HW272216   5.997   2.795   0.819 -0.5766  0.1709 -0.7794
23589SOL     OW72217   2.460   2.280   5.592 -0.2018 -0.0610  0.4413
23589SOL    HW172218   2.445   2.218   5.521  0.0346 -0.6145  0.8676
23589SOL    HW272219   2.543   2.252   5.631 -0.5584 -0.0444  1.2201
23590SOL     OW72220   2.181   4.762   4.235 -0.3632 -0.0542 -0.4457
23590SOL    HW172221   2.234   4.693   4.274 -0.3509 -0.1003 -0.5440
23590SOL    HW272222   2.228   4.843   4.255  0.7702 -0.2359 -2.1837
23591SOL     OW72223   1.141   6.104   8.783 -0.1378  0.3315  0.0101
23591SOL    HW172224   1.156   6.142   8.697 -0.1512 -0.0746 -0.1712
23591SOL    HW272225   1.214   6.136   8.836 -0.4368  1.0407 -0.0003
23592SOL     OW72226   3.890   4.541   6.079  0.7533  0.3619  0.2008
23592SOL    HW172227   3.882   4.570   5.988  1.2870  0.4031  0.1624
23592SOL    HW272228   3.984   4.528   6.092  0.4832 -2.7015 -0.1906
23593SOL     OW72229   3.431   3.166   3.182  0.8740  0.3362 -0.2546
23593SOL    HW172230   3.433   3.071   3.177  3.7794  0.2537  0.7753
23593SOL    HW272231   3.340   3.189   3.165 -0.8900 -2.8518  3.3213
23594SOL     OW72232   6.802   5.492   6.305  0.3861 -0.0626  0.2506
23594SOL    HW172233   6.839   5.422   6.357  0.3002 -0.8045 -0.6585
23594SOL    HW272234   6.760   5.550   6.368  0.0974 -1.0467  0.9828
23595SOL     OW72235   7.522   3.638   4.536 -0.2006 -0.3748 -0.3637
23595SOL    HW172236   7.565   3.591   4.465 -1.3467 -0.7820 -0.8088
23595SOL    HW272237   7.435   3.600   4.541 -0.2440 -0.1382  1.0694
23596SOL     OW72238   3.614   6.510   7.572 -0.4697 -0.8572 -0.0736
23596SOL    HW172239   3.519   6.511   7.565 -0.4528 -0.7534 -0.2774
23596SOL    HW272240   3.641   6.599   7.549 -0.4651 -0.2777  1.9484
23597SOL     OW72241   7.943   7.658   8.117 -0.1030  0.4671  0.3666
23597SOL    HW172242   7.998   7.720   8.069  1.2026 -0.6200  0.3855
23597SOL    HW272243   7.854   7.691   8.107  0.0198  0.0379 -3.2535
23598SOL     OW72244   7.766   9.142   9.045  0.2954  0.0223 -0.1932
23598SOL    HW172245   7.693   9.186   9.089  0.7843 -1.3956  2.1539
23598SOL    HW272246   7.740   9.050   9.040  1.4297 -0.3003 -0.3976
23599SOL     OW72247   7.294   2.244   0.810  0.3660  0.0153  0.3249
23599SOL    HW172248   7.374   2.282   0.844  0.3917  0.7079 -0.4691
23599SOL    HW272249   7.319   2.156   0.781  0.2385 -0.7695  2.4470
23600SOL     OW72250   5.767   4.668   0.987  0.1700 -0.0919 -0.0425
23600SOL    HW172251   5.707   4.741   0.972  0.0892  0.0172  0.7375
23600SOL    HW272252   5.828   4.671   0.913 -0.6975 -0.1290 -0.7750
23601SOL     OW72253   7.707   6.276   5.490 -0.3953 -1.0248  0.5844
23601SOL    HW172254   7.638   6.258   5.553 -0.3534 -0.9888  0.6405
23601SOL    HW272255   7.775   6.211   5.509 -0.4392 -1.0989  0.4897
23602SOL     OW72256   6.662   4.443   1.755 -0.5229 -0.2945  0.2886
23602SOL    HW172257   6.719   4.410   1.686  0.7267  0.7323  0.8107
23602SOL    HW272258   6.715   4.506   1.803 -2.3273  1.3030  0.3177
23603SOL     OW72259   5.778   7.018   3.025  0.5112 -0.1755  0.1584
23603SOL    HW172260   5.748   6.985   2.941  0.3793 -0.5417  0.3450
23603SOL    HW272261   5.724   6.973   3.090 -1.5805  2.3909  0.3619
23604SOL     OW72262   4.969   8.762   5.558  0.0886  0.6064  0.3714
23604SOL    HW172263   4.895   8.819   5.577 -0.9812 -0.6542  0.1186
23604SOL    HW272264   5.038   8.822   5.528 -1.5546  1.6202 -1.6270
23605SOL     OW72265   3.262   2.764   6.079  0.0200  0.7326 -0.3010
23605SOL    HW172266   3.245   2.684   6.130  1.7062 -0.8621 -2.0728
23605SOL    HW272267   3.331   2.809   6.128 -1.4401  1.6062  1.1027
23606SOL     OW72268   1.880   5.118   6.551  0.3279 -0.5303  0.3180
23606SOL    HW172269   1.951   5.112   6.616  0.8131 -0.5570 -0.2107
23606SOL    HW272270   1.870   5.211   6.536  1.7559 -0.5854 -1.2253
23607SOL     OW72271   6.250   4.532   0.533 -0.4730 -0.0011  0.2156
23607SOL    HW172272   6.325   4.590   0.520  0.5013 -1.1827  0.3658
23607SOL    HW272273   6.217   4.556   0.620 -1.0659  1.3789 -0.3698
23608SOL     OW72274   2.673   1.919   1.704  0.3091  0.5740  0.3583
23608SOL    HW172275   2.684   1.841   1.650 -0.6289  0.2362  0.6412
23608SOL    HW272276   2.600   1.898   1.762 -1.1419  2.3141 -0.7539
23609SOL     OW72277   8.602   8.754   6.571 -0.7561  0.7102 -0.4339
23609SOL    HW172278   8.557   8.819   6.517  0.1874  2.0224  0.2893
23609SOL    HW272279   8.690   8.789   6.581  0.1583 -1.2938 -0.9857
23610SOL     OW72280   6.373   4.077   6.963 -0.2914  0.3355  0.0944
23610SOL    HW172281   6.405   4.163   6.937  0.6310 -0.2981 -0.9423
23610SOL    HW272282   6.418   4.015   6.905  1.6270 -1.1521  2.8963
23611SOL     OW72283   5.239   5.701   8.757  0.1616  0.2509 -0.0978
23611SOL    HW172284   5.173   5.756   8.800 -0.3080 -0.1534 -0.2873
23611SOL    HW272285   5.295   5.763   8.709 -0.2086  0.5840 -0.1038
23612SOL     OW72286   7.080   9.014   8.690  0.5830  0.1308 -0.4862
23612SOL    HW172287   7.019   9.074   8.646 -0.9751 -1.3041 -0.3762
23612SOL    HW272288   7.027   8.971   8.756  1.6284 -1.4665 -0.6429
23613SOL     OW72289   3.958   7.764   5.471 -0.0406 -0.4945  0.3856
23613SOL    HW172290   3.933   7.838   5.416  1.5104  0.4329  0.8841
23613SOL    HW272291   4.048   7.782   5.497 -0.8725 -0.5521  3.7567
23614SOL     OW72292   7.461   0.117   5.037 -0.1875 -0.0310 -0.1838
23614SOL    HW172293   7.506   0.034   5.022 -0.6307 -0.5286  1.1246
23614SOL    HW272294   7.502   0.152   5.116 -2.0297 -0.4731  1.0184
23615SOL     OW72295   9.244   4.183   4.978  0.6041 -0.3488 -0.4926
23615SOL    HW172296   9.312   4.247   4.957 -2.2132  2.8341 -0.6768
23615SOL    HW272297   9.252   4.170   5.072  1.2596  0.2447 -0.4574
23616SOL     OW72298   8.657   1.826   6.533 -0.4300  0.1792  0.6372
23616SOL    HW172299   8.662   1.745   6.482  0.2582  0.7966 -0.3117
23616SOL    HW272300   8.564   1.849   6.533 -0.3952  0.3644 -0.6676
23617SOL     OW72301   8.795   3.426   4.219  0.0310 -0.1054  0.1592
23617SOL    HW172302   8.776   3.337   4.188  0.8356 -0.4341  0.5850
23617SOL    HW272303   8.850   3.464   4.150 -0.3132  0.0682 -0.0226
23618SOL     OW72304   2.940   0.877   7.446  0.0458 -0.4136 -0.2642
23618SOL    HW172305   2.878   0.944   7.416  0.3039  0.8926  1.8955
23618SOL    HW272306   3.005   0.872   7.376  0.0913  1.7495 -0.4634
23619SOL     OW72307   8.814   3.664   8.488  0.1821 -0.3869  0.1229
23619SOL    HW172308   8.826   3.569   8.487 -0.7282 -0.5219  1.2197
23619SOL    HW272309   8.840   3.692   8.400 -0.6195 -1.7792 -0.5896
23620SOL     OW72310   7.163   2.069   7.428 -0.2580 -0.1617  0.1534
23620SOL    HW172311   7.134   2.153   7.392 -1.9969 -1.0592 -0.6441
23620SOL    HW272312   7.222   2.033   7.362  0.7038  0.5217  0.6165
23621SOL     OW72313   6.214   8.108   7.495 -0.2235 -0.1882  0.4110
23621SOL    HW172314   6.299   8.151   7.495 -0.3653  0.0950  0.1249
23621SOL    HW272315   6.231   8.019   7.526  0.2131 -0.2050  0.1242
23622SOL     OW72316   0.432   0.995   6.606 -0.1440  0.1943 -0.3984
23622SOL    HW172317   0.524   0.981   6.630 -0.1392  2.2352  1.1230
23622SOL    HW272318   0.435   1.061   6.537 -0.4509 -0.6430 -1.2315
23623SOL     OW72319   9.170   0.463   9.243 -0.1321 -0.1352 -0.1042
23623SOL    HW172320   9.141   0.536   9.298 -1.5026 -0.5540 -0.2428
23623SOL    HW272321   9.249   0.497   9.200  0.0996  0.7327  0.9505
23624SOL     OW72322   8.289   4.815   7.463  0.4000  0.0112 -0.1957
23624SOL    HW172323   8.275   4.864   7.382  1.6666  1.2660  0.2925
23624SOL    HW272324   8.210   4.832   7.515 -0.1694 -0.3378 -0.9305
23625SOL     OW72325   1.795   2.167   8.499  0.3815  0.2044 -0.1205
23625SOL    HW172326   1.704   2.193   8.488  0.2453 -0.7325 -1.4828
23625SOL    HW272327   1.816   2.118   8.419  1.5629 -1.0861  0.9289
23626SOL     OW72328   5.020   8.059   7.608  0.4516  0.2688 -0.1510
23626SOL    HW172329   5.039   8.013   7.689 -0.4959 -1.0270 -0.6380
23626SOL    HW272330   5.006   8.150   7.635  3.1303  0.5123  0.7317
23627SOL     OW72331   6.181   2.086   1.363 -0.0226 -0.1207  0.3117
23627SOL    HW172332   6.261   2.046   1.398 -0.0028  0.0483  0.4602
23627SOL    HW272333   6.127   2.011   1.335  0.5153 -0.2028 -0.5192
23628SOL     OW72334   0.686   2.682   8.806 -0.9915  0.2082  0.4532
23628SOL    HW172335   0.652   2.768   8.832 -1.2473 -0.0755  1.0475
23628SOL    HW272336   0.778   2.699   8.783 -0.5270  0.3253  2.2768
23629SOL     OW72337   7.560   9.156   6.646  0.2523 -0.0359  0.0260
23629SOL    HW172338   7.508   9.228   6.610  1.7231  0.4743 -1.2055
23629SOL    HW272339   7.572   9.095   6.573  0.4663 -0.6812  0.5856
23630SOL     OW72340   7.323   2.650   4.337  0.4222 -0.0917 -1.0762
23630SOL    HW172341   7.249   2.616   4.388 -0.0408 -1.5082 -2.5948
23630SOL    HW272342   7.398   2.597   4.366  0.7842  1.0537  0.1546
23631SOL     OW72343   6.297   7.741   4.214 -0.1873  0.3294  0.7144
23631SOL    HW172344   6.308   7.733   4.119 -1.8836  0.7640  0.4450
23631SOL    HW272345   6.381   7.715   4.251  1.1880  2.1066 -0.9954
23632SOL     OW72346   5.767   6.172   5.319 -0.1067 -0.0668 -0.2280
23632SOL    HW172347   5.684   6.128   5.337 -0.3110  0.9709  1.5412
23632SOL    HW272348   5.742   6.253   5.273 -0.1444  0.4516  0.6749
23633SOL     OW72349   3.347   0.959   1.836 -0.1192  0.0179 -0.2167
23633SOL    HW172350   3.436   0.976   1.806 -0.4435  0.5747 -0.9037
23633SOL    HW272351   3.298   0.939   1.756 -0.2166 -2.1884  0.3419
23634SOL     OW72352   5.053   8.204   4.601 -0.4250 -0.4564  0.0082
23634SOL    HW172353   5.055   8.254   4.519 -1.7194  1.6818  1.2176
23634SOL    HW272354   4.974   8.151   4.595 -0.3740 -0.5062 -0.2312
23635SOL     OW72355   4.817   7.240   7.358 -0.5018 -0.1129  0.6310
23635SOL    HW172356   4.868   7.170   7.398  0.9364 -0.3005 -1.3435
23635SOL    HW272357   4.865   7.262   7.278 -1.6339  2.2150  0.4838
23636SOL     OW72358   4.589   1.709   4.162  0.5040 -0.5451  0.0073
23636SOL    HW172359   4.619   1.800   4.175  0.3464 -0.4885 -0.0218
23636SOL    HW272360   4.634   1.660   4.231 -0.1510 -0.2800  0.6411
23637SOL     OW72361   9.175   0.237   8.069 -0.5039  0.1993  0.1923
23637SOL    HW172362   9.166   0.194   7.984  3.7682 -0.2448 -0.2658
23637SOL    HW272363   9.142   0.174   8.132 -2.2928 -0.1165 -0.9912
23638SOL     OW72364   8.003   8.840   8.500  1.0088  0.4113  0.5689
23638SOL    HW172365   7.992   8.855   8.594 -1.8029  0.1210  0.3504
23638SOL    HW272366   8.043   8.753   8.494  4.1054  1.6456  1.4848
23639SOL     OW72367   2.731   6.830   4.948 -0.0066 -0.0635 -0.2898
23639SOL    HW172368   2.821   6.843   4.976  0.7852 -1.6934 -1.8207
23639SOL    HW272369   2.723   6.735   4.936 -1.5004  0.1683 -1.5019
23640SOL     OW72370   5.648   9.230   8.691 -0.3517 -0.5008 -0.4087
23640SOL    HW172371   5.700   9.259   8.766 -2.1814 -0.1848  0.8176
23640SOL    HW272372   5.574   9.291   8.689 -2.6801 -3.1087  0.2934
23641SOL     OW72373   4.983   2.398   4.355  0.6107  0.3996 -0.2418
23641SOL    HW172374   5.036   2.318   4.355  0.5659  0.3432  1.3702
23641SOL    HW272375   4.918   2.383   4.285  1.0155 -0.6882 -0.4063
23642SOL     OW72376   3.639   4.626   4.531 -0.5023  0.1000 -0.3700
23642SOL    HW172377   3.629   4.642   4.625 -2.4100  0.2141 -0.5440
23642SOL    HW272378   3.635   4.713   4.491  1.0665  0.1198 -0.5307
23643SOL     OW72379   1.636   3.274   8.038  0.1364 -0.6718 -0.1014
23643SOL    HW172380   1.651   3.361   8.001  1.5753 -0.9038 -0.1221
23643SOL    HW272381   1.642   3.215   7.963 -0.0166 -0.8685  0.0398
23644SOL     OW72382   8.202   1.652   3.301 -0.1644  0.2254  0.7049
23644SOL    HW172383   8.214   1.642   3.395  0.6698  0.8660  0.6786
23644SOL    HW272384   8.169   1.741   3.290 -0.4582  0.0834  0.4043
23645SOL     OW72385   5.107   8.027   6.325 -0.4749 -0.1870  0.5778
23645SOL    HW172386   5.164   8.031   6.248 -0.1360 -1.8458  0.7015
23645SOL    HW272387   5.153   7.968   6.385 -0.3975  1.5737  2.3759
23646SOL     OW72388   1.079   0.482   3.606 -0.4067  0.3282  0.2414
23646SOL    HW172389   1.160   0.469   3.655 -0.1982  0.4220 -0.0787
23646SOL    HW272390   1.021   0.413   3.638  0.6866 -1.4838 -1.4481
23647SOL     OW72391   5.546   2.101   6.145 -0.1936 -0.1732  0.0746
23647SOL    HW172392   5.631   2.059   6.138  0.6717  1.5622 -0.2900
23647SOL    HW272393   5.491   2.036   6.189  0.9256 -1.8508 -0.8860
23648SOL     OW72394   3.189   7.515   4.861  0.2446 -0.7261 -0.3165
23648SOL    HW172395   3.229   7.433   4.831  1.2499 -0.0746 -0.8045
23648SOL    HW272396   3.183   7.569   4.782  0.6620  0.1017  0.2046
23649SOL     OW72397   2.397   8.266   8.636 -0.1467  0.2006 -0.0183
23649SOL    HW172398   2.336   8.307   8.698  0.2616  4.2899 -2.0201
23649SOL    HW272399   2.482   8.304   8.659  0.4147 -0.0739 -1.5822
23650SOL     OW72400   9.034   6.051   9.110  0.3833 -0.5353  0.1716
23650SOL    HW172401   9.129   6.048   9.106  0.3412 -0.6511 -1.4475
23650SOL    HW272402   9.007   6.084   9.025 -1.0888 -2.2666 -0.1054
23651SOL     OW72403   0.140   1.761   3.760  0.1311 -0.1845  0.0082
23651SOL    HW172404   0.090   1.834   3.726 -0.1110 -0.6894 -0.7545
23651SOL    HW272405   0.226   1.798   3.781 -0.5755  0.7082  1.4407
23652SOL     OW72406   6.214   1.145   1.448 -0.1782  0.2595  0.6489
23652SOL    HW172407   6.186   1.078   1.511  1.1373 -1.4473 -0.4564
23652SOL    HW272408   6.228   1.224   1.500  0.2828 -0.9240  2.4045
23653SOL     OW72409   0.038   4.220   5.240 -0.1644 -0.6934  0.4742
23653SOL    HW172410   0.134   4.222   5.238 -0.1191 -0.4580  2.1375
23653SOL    HW272411   0.013   4.300   5.286 -1.2707  0.2572 -1.5986
23654SOL     OW72412   1.972   2.940   2.895 -0.0559 -0.6140  0.0583
23654SOL    HW172413   1.979   2.973   2.806  1.1271 -1.4598 -0.1838
23654SOL    HW272414   2.027   2.999   2.947  0.2891 -0.8849  0.0034
23655SOL     OW72415   7.786   4.469   4.155 -0.7115 -0.7428 -0.3624
23655SOL    HW172416   7.709   4.451   4.210  0.8168 -1.0129  1.8231
23655SOL    HW272417   7.841   4.391   4.165 -0.0722 -0.5106 -1.8105
23656SOL     OW72418   7.518   0.200   8.384  0.1115 -0.0535 -0.1900
23656SOL    HW172419   7.510   0.284   8.338  1.4511  0.8456  1.1235
23656SOL    HW272420   7.594   0.158   8.344  0.0527 -0.1814 -0.1669
23657SOL     OW72421   0.794   8.995   2.811  0.1986  0.0868 -0.0822
23657SOL    HW172422   0.834   8.914   2.778  1.8976  0.9724 -0.2985
23657SOL    HW272423   0.783   9.050   2.734  1.4300  1.0162  0.3729
23658SOL     OW72424   4.988   2.522   5.589  0.9062 -0.1326  0.7182
23658SOL    HW172425   5.020   2.479   5.668  3.6483  0.2782 -0.0459
23658SOL    HW272426   5.040   2.602   5.583  1.8383 -0.8097 -2.1469
23659SOL     OW72427   5.448   1.504   1.342 -0.1784  0.6313  0.0332
23659SOL    HW172428   5.436   1.599   1.340  0.9287  0.7883 -2.1275
23659SOL    HW272429   5.499   1.484   1.263 -0.3995 -1.7679  0.4069
23660SOL     OW72430   3.263   8.373   6.175  0.4637  0.0859  0.5796
23660SOL    HW172431   3.202   8.346   6.244  0.1470  0.6502  0.5271
23660SOL    HW272432   3.314   8.295   6.156 -0.2027 -0.3752  0.6717
23661SOL     OW72433   3.845   7.452   6.398  0.4178  0.5888  0.4755
23661SOL    HW172434   3.754   7.480   6.405 -0.5669 -2.0166 -0.4166
23661SOL    HW272435   3.888   7.486   6.476 -1.4510  1.4261  1.1811
23662SOL     OW72436   6.224   7.294   9.049  0.5858 -0.3161  1.1307
23662SOL    HW172437   6.293   7.350   9.013  1.8322 -1.2216  2.0212
23662SOL    HW272438   6.240   7.208   9.010 -1.1222 -0.1545  0.0120
23663SOL     OW72439   0.108   7.576   7.684  0.2008 -0.0263 -0.5040
23663SOL    HW172440   0.041   7.513   7.711 -1.0419  1.4934  0.0886
23663SOL    HW272441   0.067   7.661   7.694  2.3425  1.0001  0.1973
23664SOL     OW72442   0.159   0.346   5.408  0.1243  0.3167 -0.5508
23664SOL    HW172443   0.179   0.433   5.372  0.9424  0.0601 -0.7355
23664SOL    HW272444   0.202   0.346   5.494 -1.5226  0.7987  0.3142
23665SOL     OW72445   4.988   6.780   1.153 -0.2988 -0.3022  0.4035
23665SOL    HW172446   4.928   6.807   1.083  0.6669 -0.0522 -0.3529
23665SOL    HW272447   4.935   6.782   1.232 -1.2832 -0.0708 -0.2415
23666SOL     OW72448   8.867   0.930   2.434 -0.6380 -0.7976 -0.4501
23666SOL    HW172449   8.896   0.952   2.346  1.1412 -1.6394 -0.1159
23666SOL    HW272450   8.851   1.014   2.476 -1.1478 -0.3846 -1.4425
23667SOL     OW72451   5.589   3.741   5.979 -0.3051 -0.1231  0.0856
23667SOL    HW172452   5.549   3.793   5.910  0.8579 -0.1002 -0.6012
23667SOL    HW272453   5.517   3.717   6.037 -1.2014  0.3643 -0.8123
23668SOL     OW72454   2.726   0.036   3.928  0.2532  0.3108 -0.1137
23668SOL    HW172455   2.808  -0.014   3.930 -0.2931 -0.9424 -3.0671
23668SOL    HW272456   2.658  -0.031   3.930 -0.5689  1.0782 -1.1560
23669SOL     OW72457   3.432   5.769   4.028 -0.3190  0.1020  0.1361
23669SOL    HW172458   3.386   5.842   3.985 -1.8671 -0.9358 -0.0459
23669SOL    HW272459   3.513   5.758   3.978 -0.3731  1.2611 -0.2307
23670SOL     OW72460   1.637   8.465   2.895 -0.1251  0.8768 -0.3462
23670SOL    HW172461   1.689   8.476   2.975 -1.0462  0.6509  0.3051
23670SOL    HW272462   1.673   8.387   2.854 -0.4148  0.2864  0.4889
23671SOL     OW72463   1.709   1.905   4.525  0.1516  0.6003 -0.4844
23671SOL    HW172464   1.687   1.985   4.477 -0.5870 -0.2460 -1.6271
23671SOL    HW272465   1.804   1.905   4.531  0.1225  2.1481  0.6134
23672SOL     OW72466   7.094   0.624   0.955  0.1605 -0.2992  0.0533
23672SOL    HW172467   7.144   0.605   1.035 -0.5173 -1.0875  0.3062
23672SOL    HW272468   7.145   0.692   0.911 -1.0284  2.5237  2.6783
23673SOL     OW72469   5.166   8.468   0.773 -0.3906  0.3182  0.1346
23673SOL    HW172470   5.181   8.381   0.810  0.6405 -0.2257 -1.4651
23673SOL    HW272471   5.249   8.513   0.782 -1.0143  1.3018  1.2684
23674SOL     OW72472   9.090   5.138   5.148 -0.8144  0.8109 -0.3460
23674SOL    HW172473   9.096   5.061   5.091  1.8816 -0.8060  1.8603
23674SOL    HW272474   9.005   5.177   5.128 -1.9744 -2.3159 -2.0975
23675SOL     OW72475   9.230   1.564   8.114 -0.8988 -0.5530  0.3539
23675SOL    HW172476   9.169   1.491   8.115 -0.9276 -0.5324  1.8540
23675SOL    HW272477   9.188   1.631   8.169  0.7228 -0.7724  1.9362
23676SOL     OW72478   7.746   6.606   9.207  0.1939 -0.6475  0.7982
23676SOL    HW172479   7.831   6.578   9.174  0.2704  0.3048  0.1290
23676SOL    HW272480   7.686   6.535   9.186  0.6888 -1.0126  0.6199
23677SOL     OW72481   7.539   9.121   6.205  0.4696  0.5477  0.0504
23677SOL    HW172482   7.617   9.152   6.251  0.0902 -0.0710  1.1546
23677SOL    HW272483   7.571   9.055   6.144  0.8380  0.4478  0.3485
23678SOL     OW72484   3.847   2.828   8.417 -0.0599  0.0003 -0.1843
23678SOL    HW172485   3.871   2.805   8.507  0.2926  0.8897 -0.0423
23678SOL    HW272486   3.875   2.918   8.407  1.7128 -0.6750 -1.8433
23679SOL     OW72487   4.956   6.346   7.137 -0.0103  0.1425 -0.5101
23679SOL    HW172488   4.980   6.425   7.088 -1.0412  0.7958 -0.0237
23679SOL    HW272489   4.909   6.380   7.214  0.8894 -0.8814  0.5315
23680SOL     OW72490   3.187   0.593   2.055 -0.3455  0.0535 -0.3462
23680SOL    HW172491   3.281   0.602   2.072 -0.0227 -1.7994 -0.9175
23680SOL    HW272492   3.149   0.572   2.140 -0.1792  0.3347 -0.1990
23681SOL     OW72493   3.532   4.783   3.388  0.3615  0.3834 -0.3382
23681SOL    HW172494   3.519   4.873   3.356 -0.5399 -0.5683 -2.8723
23681SOL    HW272495   3.462   4.772   3.453  2.3035  2.4037  2.3267
23682SOL     OW72496   5.295   1.080   5.392 -0.1000  0.3832 -0.4963
23682SOL    HW172497   5.305   0.985   5.393 -1.8019  0.1541  0.7671
23682SOL    HW272498   5.365   1.112   5.448  0.0303 -0.2087 -0.3069
23683SOL     OW72499   5.468   7.426   6.402  0.0016 -0.3632  0.0778
23683SOL    HW172500   5.455   7.344   6.355 -2.7710 -0.2876  0.4993
23683SOL    HW272501   5.504   7.399   6.487 -0.4785 -1.1259  0.0561
23684SOL     OW72502   0.299   4.601   3.441  0.5752 -0.5038 -0.0792
23684SOL    HW172503   0.327   4.665   3.376  1.6379  2.0224  2.6322
23684SOL    HW272504   0.376   4.546   3.456  1.2676  0.6778  0.9168
23685SOL     OW72505   4.253   8.833   5.502 -0.2008  0.7276 -0.2592
23685SOL    HW172506   4.300   8.904   5.545 -0.1457  0.4629  0.1212
23685SOL    HW272507   4.315   8.798   5.438  1.6155 -2.0519  2.6838
23686SOL     OW72508   7.034   1.410   7.168 -0.2921 -0.2561  0.3018
23686SOL    HW172509   6.996   1.365   7.093 -0.0542 -1.6093  0.9715
23686SOL    HW272510   7.028   1.347   7.240  1.2682  0.2905  0.9533
23687SOL     OW72511   5.014   0.904   3.040  0.2762  0.0558 -0.1173
23687SOL    HW172512   4.980   0.943   3.120 -0.8318 -1.5214  0.2189
23687SOL    HW272513   4.941   0.904   2.979  1.2070  1.5751 -1.2987
23688SOL     OW72514   3.174   6.238   4.630 -0.3464 -0.2565  0.3098
23688SOL    HW172515   3.158   6.148   4.659 -1.9265 -0.2790 -0.5393
23688SOL    HW272516   3.239   6.272   4.692  0.0613 -1.8840  0.8094
23689SOL     OW72517   2.450   0.836   2.798 -0.0231  0.5767  0.3571
23689SOL    HW172518   2.436   0.931   2.793 -0.6026  0.4481 -1.6782
23689SOL    HW272519   2.489   0.822   2.884  0.7832  2.7463  0.4277
23690SOL     OW72520   4.178   5.260   7.641  0.2374  0.1293 -0.0211
23690SOL    HW172521   4.151   5.194   7.704  0.6011 -0.0075 -0.0028
23690SOL    HW272522   4.247   5.309   7.686  0.6196 -0.0805 -0.3718
23691SOL     OW72523   5.776   0.283   2.291  0.4691 -0.0409  0.1948
23691SOL    HW172524   5.778   0.349   2.223  0.1153 -0.0073  0.2145
23691SOL    HW272525   5.792   0.331   2.372  0.1067  0.0375  0.2209
23692SOL     OW72526   8.740   0.265   0.017 -0.3537  0.5538 -0.1625
23692SOL    HW172527   8.722   0.297  -0.072 -3.6102  1.4712  0.6823
23692SOL    HW272528   8.761   0.173   0.005 -1.2376  0.5328 -1.8851
23693SOL     OW72529   3.272   5.306   1.236  0.5140 -0.3330 -0.4220
23693SOL    HW172530   3.200   5.251   1.204  0.1545 -0.0341 -0.1504
23693SOL    HW272531   3.293   5.269   1.322 -0.2299  0.3913  0.0869
23694SOL     OW72532   0.516   2.084   2.326 -0.2228  0.1695 -0.1353
23694SOL    HW172533   0.447   2.034   2.282  0.9449 -1.2166 -0.4558
23694SOL    HW272534   0.504   2.173   2.294  0.7961 -0.7900 -3.6576
23695SOL     OW72535   1.896   6.504   5.597  0.0469  0.2171 -0.9077
23695SOL    HW172536   1.974   6.492   5.652 -1.1681  0.2841  0.9090
23695SOL    HW272537   1.823   6.482   5.654 -1.2248 -1.7061 -3.1041
23696SOL     OW72538   6.171   5.349   0.589 -0.2493  0.4579  0.3605
23696SOL    HW172539   6.158   5.320   0.499 -0.3844 -0.0262  0.5312
23696SOL    HW272540   6.123   5.285   0.642  1.1165 -0.1677  0.8865
23697SOL     OW72541   8.069   3.199   3.707  0.5928 -0.6174 -0.2582
23697SOL    HW172542   8.020   3.263   3.656  1.1468 -0.2665 -0.3561
23697SOL    HW272543   8.002   3.144   3.747  0.0747  0.4548  0.3971
23698SOL     OW72544   6.310   4.630   8.264 -0.5628 -0.1406  0.0676
23698SOL    HW172545   6.300   4.669   8.177  1.7352  1.2760  0.3603
23698SOL    HW272546   6.253   4.682   8.320  0.8653  1.5097  0.0565
23699SOL     OW72547   1.178   7.702   5.508  0.2211  0.3805 -0.4222
23699SOL    HW172548   1.138   7.708   5.421 -0.3585  1.0678 -0.1227
23699SOL    HW272549   1.123   7.641   5.556 -0.0339  0.7508 -0.2406
23700SOL     OW72550   3.166   8.813   2.907  0.2414 -0.0981  0.1615
23700SOL    HW172551   3.072   8.795   2.900  0.3917 -1.0205  0.3775
23700SOL    HW272552   3.195   8.824   2.816 -0.3160  1.6139  0.1480
23701SOL     OW72553   9.039   0.445   4.484  0.2651 -0.0360  1.3239
23701SOL    HW172554   9.127   0.409   4.490  0.3168 -0.7484 -1.6903
23701SOL    HW272555   8.991   0.381   4.431 -1.5544  1.1973  1.3932
23702SOL     OW72556   2.470   4.099   3.531 -0.4930  0.1593 -0.2573
23702SOL    HW172557   2.565   4.112   3.535 -0.4761 -0.2166  1.0279
23702SOL    HW272558   2.436   4.183   3.501  0.2823  0.0789 -1.4401
23703SOL     OW72559   6.541   4.330   5.772 -0.1361  0.0540 -0.3920
23703SOL    HW172560   6.623   4.296   5.737  0.4144  1.3002 -0.3686
23703SOL    HW272561   6.493   4.253   5.802  1.1150 -0.6760 -0.2328
23704SOL     OW72562   6.686   0.869   4.692  0.5028 -0.3081  0.0837
23704SOL    HW172563   6.618   0.929   4.721  0.2886 -0.7897  0.5868
23704SOL    HW272564   6.753   0.873   4.760  0.3461 -0.8711  0.2730
23705SOL     OW72565   3.345   1.638   7.446 -0.3982  0.0059 -0.0194
23705SOL    HW172566   3.319   1.702   7.379  1.8823  0.5136 -0.5179
23705SOL    HW272567   3.388   1.569   7.396  0.2464 -0.2049  0.8158
23706SOL     OW72568   5.301   3.451   5.353  0.1973 -0.2019  0.0256
23706SOL    HW172569   5.392   3.420   5.350  0.3804  0.2198  1.0960
23706SOL    HW272570   5.295   3.501   5.434 -0.9708 -0.1394 -0.0872
23707SOL     OW72571   7.190   8.270   3.485  0.2793  0.2405  0.5611
23707SOL    HW172572   7.131   8.345   3.478  1.3812  1.1171  0.3673
23707SOL    HW272573   7.192   8.249   3.578  1.1408  1.4565  0.8406
23708SOL     OW72574   6.770   0.369   1.269 -0.0402  0.0744 -0.1730
23708SOL    HW172575   6.684   0.404   1.291  0.2945  0.7642  0.0891
23708SOL    HW272576   6.817   0.443   1.230  1.5097  0.6625  2.5827
23709SOL     OW72577   0.509   9.262   3.765  0.1125  0.1227  0.6474
23709SOL    HW172578   0.551   9.182   3.732 -0.5859 -0.2966  0.7673
23709SOL    HW272579   0.522   9.325   3.694  1.0557  0.0455  0.7321
23710SOL     OW72580   1.500   6.714   1.297 -0.2076  0.9726  0.4288
23710SOL    HW172581   1.463   6.771   1.230 -3.0092  0.4159  1.3705
23710SOL    HW272582   1.425   6.667   1.332  1.6333 -1.2270  1.6513
23711SOL     OW72583   8.163   4.765   1.971 -0.2791  0.0404 -0.0782
23711SOL    HW172584   8.096   4.832   1.989  0.0907  0.8698 -1.6068
23711SOL    HW272585   8.217   4.763   2.050 -0.7224  1.0545  0.2692
23712SOL     OW72586   4.887   9.013   3.402  0.2533 -0.6726 -0.4074
23712SOL    HW172587   4.892   9.109   3.406  0.5694 -0.6608 -0.9899
23712SOL    HW272588   4.806   8.992   3.450 -1.3026  0.0835 -2.5418
23713SOL     OW72589   1.705   4.608   7.351 -0.4453 -0.0156  0.7502
23713SOL    HW172590   1.731   4.678   7.291  0.3332  0.6383  1.8144
23713SOL    HW272591   1.785   4.588   7.400  0.0325 -3.3149 -1.0962
23714SOL     OW72592   6.853   7.567   1.937  0.1240 -0.0420  0.3249
23714SOL    HW172593   6.825   7.538   2.024 -2.0694 -2.0717 -0.9124
23714SOL    HW272594   6.948   7.556   1.938  0.0718 -0.8455  2.1915
23715SOL     OW72595   4.213   4.773   7.936  0.4342 -0.7414 -0.4441
23715SOL    HW172596   4.228   4.761   8.030  1.4434 -0.3736 -0.5499
23715SOL    HW272597   4.122   4.804   7.930 -0.0351 -1.9040  0.3079
23716SOL     OW72598   2.897   5.243   6.770  0.4281 -0.1071  0.4842
23716SOL    HW172599   2.949   5.261   6.848  0.8660  0.6018  0.0373
23716SOL    HW272600   2.806   5.251   6.799  0.5639 -0.7426  1.1242
23717SOL     OW72601   4.078   1.052   2.339  0.1965 -0.1557  0.1634
23717SOL    HW172602   4.080   1.061   2.434  0.3472  0.0654  0.1420
23717SOL    HW272603   4.079   1.143   2.307 -0.1769 -0.2211 -0.0437
23718SOL     OW72604   8.129   7.552   3.275  0.2366  0.2644  0.4237
23718SOL    HW172605   8.186   7.619   3.238 -1.6059  1.7463  0.1141
23718SOL    HW272606   8.127   7.483   3.208 -0.5727  1.4947 -0.8698
23719SOL     OW72607   2.846   4.431   8.345 -0.3472 -0.5317 -0.1466
23719SOL    HW172608   2.827   4.521   8.372  1.0212 -0.5699  1.0748
23719SOL    HW272609   2.928   4.409   8.389 -1.2905 -2.8334  0.6271
23720SOL     OW72610   0.528   7.382   7.440 -0.3980 -0.1696  0.1333
23720SOL    HW172611   0.451   7.438   7.445 -1.6051 -1.7076 -0.3884
23720SOL    HW272612   0.507   7.308   7.497  1.0381 -0.2585  0.5888
23721SOL     OW72613   1.717   2.092   2.540 -0.4211 -0.2094 -0.1763
23721SOL    HW172614   1.703   2.147   2.463  0.7994 -1.5688 -1.4121
23721SOL    HW272615   1.639   2.037   2.545 -1.3605  1.1174  0.7007
23722SOL     OW72616   6.072   7.168   3.994 -0.4329 -0.5488  0.9928
23722SOL    HW172617   6.044   7.111   4.066 -1.4364 -0.1605  0.9287
23722SOL    HW272618   6.008   7.239   3.994  0.5889  0.3957  0.8444
23723SOL     OW72619   8.548   0.832   3.641 -0.2498 -0.0230 -0.1637
23723SOL    HW172620   8.624   0.789   3.602 -0.5363  0.6430 -1.5540
23723SOL    HW272621   8.480   0.765   3.640  0.3902 -0.7547  1.4776
23724SOL     OW72622   4.388   9.114   1.392  0.2324  0.2166 -0.4848
23724SOL    HW172623   4.480   9.089   1.380  0.0239 -1.9319  1.7625
23724SOL    HW272624   4.391   9.209   1.408  2.1415  0.0808  0.1881
23725SOL     OW72625   1.241   6.570   4.368 -0.6497 -0.1274 -0.1833
23725SOL    HW172626   1.157   6.587   4.412 -0.7499 -2.1065  0.5118
23725SOL    HW272627   1.290   6.517   4.431  0.7303  0.1377 -0.9997
23726SOL     OW72628   0.418   1.300   3.589  0.6774  0.3787  0.1737
23726SOL    HW172629   0.434   1.275   3.498 -0.1926  1.2516 -0.2307
23726SOL    HW272630   0.371   1.225   3.626  0.6766  0.1884 -0.2093
23727SOL     OW72631   6.431   2.716   2.317 -0.0320  0.5596  0.0286
23727SOL    HW172632   6.497   2.755   2.259  1.7907 -3.2616 -0.8203
23727SOL    HW272633   6.478   2.701   2.400 -0.0227 -1.2909 -0.2598
23728SOL     OW72634   8.611   1.426   7.755  0.1566  0.2157 -0.4182
23728SOL    HW172635   8.703   1.408   7.774  0.5255  1.5310 -0.9003
23728SOL    HW272636   8.564   1.351   7.793  1.3139  0.1075  0.8727
23729SOL     OW72637   3.588   5.601   5.363  0.2076 -0.6041  0.1140
23729SOL    HW172638   3.595   5.522   5.310 -0.0439 -0.9023  0.5089
23729SOL    HW272639   3.550   5.666   5.305 -0.0388 -0.9163 -0.0789
23730SOL     OW72640   4.600   3.310   7.738 -0.2518  0.2215 -0.0921
23730SOL    HW172641   4.643   3.393   7.754  0.1775  0.1237 -0.6843
23730SOL    HW272642   4.668   3.255   7.699 -0.7143 -0.1764 -0.3491
23731SOL     OW72643   7.192   0.305   7.578  0.6090  0.3598  0.2996
23731SOL    HW172644   7.113   0.276   7.534  0.2589  0.0772  1.0893
23731SOL    HW272645   7.204   0.242   7.649  2.6969 -0.8302 -1.0039
23732SOL     OW72646   8.391   4.417   2.130 -0.3161  0.3742  0.1290
23732SOL    HW172647   8.297   4.398   2.129 -0.1451 -0.4694 -0.6282
23732SOL    HW272648   8.433   4.332   2.135  0.4127  0.7550  0.5973
23733SOL     OW72649   7.387   8.641   5.533  0.2080 -0.0187  0.1339
23733SOL    HW172650   7.296   8.637   5.562  0.5350  1.0584  1.4340
23733SOL    HW272651   7.390   8.586   5.455 -1.6252  0.1728 -0.1240
23734SOL     OW72652   8.653   3.524   6.546 -0.3723  0.1885 -0.4750
23734SOL    HW172653   8.742   3.517   6.579 -0.2564  0.9785 -0.6140
23734SOL    HW272654   8.654   3.474   6.464 -0.1426 -0.0611 -0.3224
23735SOL     OW72655   3.912   1.784   5.309 -0.5843 -0.1338  0.2388
23735SOL    HW172656   3.858   1.862   5.322  0.9127  0.9848  0.0437
23735SOL    HW272657   4.002   1.817   5.306  0.0274 -1.7499 -0.8084
23736SOL     OW72658   8.186   2.065   2.433  0.1931 -0.1614  0.4142
23736SOL    HW172659   8.247   2.122   2.385  0.5890 -0.4545  0.5698
23736SOL    HW272660   8.195   2.092   2.524 -1.4826  1.2681  0.2122
23737SOL     OW72661   3.652   7.297   0.716  0.1976 -0.4001 -0.0778
23737SOL    HW172662   3.687   7.246   0.644 -0.2505 -0.9012  0.0524
23737SOL    HW272663   3.560   7.312   0.693  0.3350  0.4024 -0.1442
23738SOL     OW72664   6.579   7.637   1.056 -0.0152  0.0871 -0.3409
23738SOL    HW172665   6.594   7.635   1.151 -0.4470  0.9749 -0.2465
23738SOL    HW272666   6.589   7.546   1.029  1.1210 -0.0359  0.3912
23739SOL     OW72667   5.160   3.592   2.113  0.0251  0.0877  0.2240
23739SOL    HW172668   5.226   3.597   2.182 -0.6896  1.5208  0.8431
23739SOL    HW272669   5.116   3.677   2.115  0.5923  0.5432 -2.6635
23740SOL     OW72670   5.063   6.241   1.482  0.5270  0.4547 -0.0022
23740SOL    HW172671   5.115   6.271   1.408  1.3277  0.5411  0.5845
23740SOL    HW272672   5.005   6.314   1.502 -1.5292 -0.4789 -2.1463
23741SOL     OW72673   0.822   8.211   2.079 -0.3715  0.0682 -0.1631
23741SOL    HW172674   0.867   8.286   2.119 -1.2178  1.1011 -1.0943
23741SOL    HW272675   0.893   8.163   2.035  0.3950 -0.4791  1.5852
23742SOL     OW72676   4.112   5.058   7.878  0.0170  0.0732  0.0571
23742SOL    HW172677   4.049   4.990   7.855 -0.0373  0.0711  0.2132
23742SOL    HW272678   4.198   5.015   7.869  0.0514  0.3471 -1.1076
23743SOL     OW72679   0.185   5.961   8.292  0.7974 -0.2985 -0.4338
23743SOL    HW172680   0.219   6.050   8.290 -1.6627  1.0052  3.8247
23743SOL    HW272681   0.263   5.906   8.300  2.3376  1.3782 -2.6160
23744SOL     OW72682   1.071   1.435   1.362  0.0639  0.3310  0.1783
23744SOL    HW172683   1.069   1.519   1.317 -1.0178  0.1133 -0.1863
23744SOL    HW272684   1.142   1.386   1.319  1.2577  1.3203  0.9287
23745SOL     OW72685   7.403   8.579   7.804 -0.5490 -0.5068  0.0853
23745SOL    HW172686   7.476   8.641   7.796  0.0821 -1.2405  0.0837
23745SOL    HW272687   7.358   8.606   7.884  0.1207 -0.4539  0.4542
23746SOL     OW72688   2.478   2.043   2.852  0.6780 -0.0129 -0.0349
23746SOL    HW172689   2.547   1.978   2.861 -0.5597 -1.2055  1.3990
23746SOL    HW272690   2.473   2.085   2.938 -1.2584 -0.9127  0.3421
23747SOL     OW72691   3.513   5.410   0.658 -0.1641  0.0594 -0.1996
23747SOL    HW172692   3.419   5.427   0.664 -0.0062  0.9733 -0.0490
23747SOL    HW272693   3.549   5.450   0.738  0.7250  2.6678 -1.7720
23748SOL     OW72694   5.782   0.375   3.113 -0.3198  0.3305 -0.0920
23748SOL    HW172695   5.795   0.291   3.158 -0.3861 -0.5416 -1.6341
23748SOL    HW272696   5.815   0.360   3.024 -1.5143  1.5397 -0.7765
23749SOL     OW72697   6.112   1.436   1.823 -0.5630  0.2205 -0.0961
23749SOL    HW172698   6.083   1.519   1.862 -1.0674  0.7546 -1.5317
23749SOL    HW272699   6.130   1.379   1.898  1.5410  2.1673  1.0300
23750SOL     OW72700   3.111   4.868   8.730 -0.6767  0.1967  0.2644
23750SOL    HW172701   3.191   4.903   8.771 -0.4435  1.3046 -1.0506
23750SOL    HW272702   3.043   4.931   8.753 -0.6021  0.6766 -0.7765
23751SOL     OW72703   5.363   7.258   3.863 -0.0439 -0.2184  0.0878
23751SOL    HW172704   5.291   7.225   3.810 -0.6409  1.1677 -0.0237
23751SOL    HW272705   5.345   7.352   3.871  0.0842 -0.3354  2.6531
23752SOL     OW72706   0.802   4.831   1.865  0.3000  0.1343  0.4652
23752SOL    HW172707   0.750   4.867   1.794 -0.6827  1.1377  1.6385
23752SOL    HW272708   0.810   4.738   1.846 -0.2668  0.3211 -0.7390
23753SOL     OW72709   2.563   0.746   6.767 -0.5538  0.4938 -0.2985
23753SOL    HW172710   2.618   0.819   6.796  0.5798 -0.8611  1.1767
23753SOL    HW272711   2.487   0.787   6.726  0.3042  2.4729 -0.0021
23754SOL     OW72712   8.332   5.229   5.202  0.5010  0.2055 -0.3902
23754SOL    HW172713   8.401   5.163   5.196  0.8517  0.4234  0.9423
23754SOL    HW272714   8.251   5.180   5.184  0.8458 -0.4114 -0.3134
23755SOL     OW72715   0.731   4.651   9.072 -0.0681 -0.2839  0.3020
23755SOL    HW172716   0.760   4.575   9.122  0.2736 -0.3016  0.0814
23755SOL    HW272717   0.715   4.618   8.984 -1.7618 -0.4801  0.6593
23756SOL     OW72718   7.660   8.906   8.911 -0.5161  0.0570  0.5646
23756SOL    HW172719   7.574   8.939   8.937 -0.2023 -0.3367  2.2077
23756SOL    HW272720   7.650   8.811   8.908 -0.4750  0.0815 -0.5482
23757SOL     OW72721   6.965   7.744   9.062 -0.3253 -0.2687 -0.1541
23757SOL    HW172722   6.976   7.684   8.988 -0.3764  0.0985 -0.4620
23757SOL    HW272723   6.882   7.718   9.101 -0.6635  0.0115 -0.6738
23758SOL     OW72724   7.766   2.527   5.448  0.2443 -0.3454  0.0838
23758SOL    HW172725   7.806   2.581   5.516  0.2575 -1.3985  0.9164
23758SOL    HW272726   7.684   2.573   5.426  0.4853  0.2611  0.4391
23759SOL     OW72727   2.100   4.067   0.521 -0.0529  0.2448  0.1961
23759SOL    HW172728   2.074   4.047   0.611  0.7453 -1.8558  0.0377
23759SOL    HW272729   2.196   4.065   0.523  0.0125  1.7248 -0.4167
23760SOL     OW72730   0.564   4.930   7.691  0.6126  0.2696 -0.4427
23760SOL    HW172731   0.502   4.981   7.639 -1.8086 -0.9130  1.1240
23760SOL    HW272732   0.589   4.857   7.634  0.6998  0.8291 -1.1343
23761SOL     OW72733   4.382   2.536   7.757 -0.1487 -0.4351 -0.5544
23761SOL    HW172734   4.451   2.481   7.793  0.0558  0.3278  0.2575
23761SOL    HW272735   4.395   2.533   7.663  0.2832 -1.2199 -0.4757
23762SOL     OW72736   7.920   4.949   0.743  0.0290 -0.5024  0.6277
23762SOL    HW172737   7.849   4.924   0.802 -1.3918 -0.8066 -1.1204
23762SOL    HW272738   7.878   4.962   0.658  1.8259  0.9666 -0.1199
23763SOL     OW72739   4.450   1.310   4.151  0.6213 -0.6556 -0.3155
23763SOL    HW172740   4.516   1.243   4.162  1.2529  0.0766  0.5438
23763SOL    HW272741   4.442   1.351   4.238 -2.1113 -1.7544  0.0451
23764SOL     OW72742   4.262   3.570   1.201  0.6386  0.3042 -0.0557
23764SOL    HW172743   4.292   3.652   1.240  2.8864 -0.7297  0.5732
23764SOL    HW272744   4.306   3.565   1.116 -1.3081  0.7855 -1.1489
23765SOL     OW72745   6.731   6.135   4.737  0.1587 -0.0272 -0.0842
23765SOL    HW172746   6.743   6.064   4.800 -0.2552 -1.4700 -1.5648
23765SOL    HW272747   6.770   6.102   4.656 -1.0064  0.9939 -1.1006
23766SOL     OW72748   1.233   8.900   7.637 -0.0883  0.3427 -0.1570
23766SOL    HW172749   1.157   8.950   7.666  1.3269  1.8794  1.0985
23766SOL    HW272750   1.298   8.967   7.614  1.1622 -0.9152 -0.3960
23767SOL     OW72751   1.385   8.391   1.124  0.2672 -0.3887  0.3677
23767SOL    HW172752   1.425   8.356   1.045 -0.1112  0.5500 -0.2609
23767SOL    HW272753   1.342   8.472   1.095  0.3313  0.0987  1.5775
23768SOL     OW72754   0.804   9.133   5.582  0.1478  0.2337 -0.5564
23768SOL    HW172755   0.892   9.168   5.563  0.3845  0.0069  0.0870
23768SOL    HW272756   0.820   9.061   5.644 -0.4898  0.1560 -0.4773
23769SOL     OW72757   8.985   0.292   5.949 -0.0052 -0.4506  0.0867
23769SOL    HW172758   9.037   0.213   5.940  2.2164  0.8491  0.8592
23769SOL    HW272759   9.010   0.328   6.034  0.2319  1.8760 -0.8898
23770SOL     OW72760   3.219   4.336   3.650  0.3207 -0.0961  0.0814
23770SOL    HW172761   3.184   4.278   3.582 -0.4703 -1.7701  1.8178
23770SOL    HW272762   3.160   4.323   3.725  0.6447  2.3363  0.8463
23771SOL     OW72763   7.389   5.120   2.178  0.4060 -0.0833 -0.1631
23771SOL    HW172764   7.304   5.149   2.211  0.4317  0.4908 -0.5915
23771SOL    HW272765   7.394   5.154   2.089  0.7857 -0.7249 -0.3989
23772SOL     OW72766   2.039   3.791   4.899 -0.1255 -0.0447  0.0832
23772SOL    HW172767   1.966   3.846   4.871 -0.6723 -0.6062  0.3933
23772SOL    HW272768   2.036   3.715   4.840 -0.0711 -0.2862  0.3901
23773SOL     OW72769   8.211   0.945   8.596 -0.1445  0.2356 -0.2951
23773SOL    HW172770   8.264   1.021   8.572  1.5472 -0.5392  0.7563
23773SOL    HW272771   8.255   0.908   8.672 -1.1813 -1.5331 -0.4903
23774SOL     OW72772   1.215   3.603   7.637  0.1908 -0.1392 -0.0642
23774SOL    HW172773   1.273   3.528   7.626 -1.9570 -1.9568  0.2685
23774SOL    HW272774   1.158   3.601   7.560 -0.9187  0.1598  0.7220
23775SOL     OW72775   7.558   5.771   4.410  0.2689 -0.1540 -0.0590
23775SOL    HW172776   7.562   5.687   4.364  0.5201  0.2612 -0.8168
23775SOL    HW272777   7.639   5.815   4.386 -0.2474  0.6515 -0.3650
23776SOL     OW72778   5.057   2.922   7.539  0.0250 -0.0933  0.2152
23776SOL    HW172779   5.117   2.976   7.590  1.0538  0.5036 -1.5192
23776SOL    HW272780   5.061   2.835   7.579  0.2952  0.4872  1.4879
23777SOL     OW72781   2.048   2.892   5.733 -0.0245  0.1171 -0.0467
23777SOL    HW172782   2.122   2.900   5.793 -2.0254 -0.4763  2.6929
23777SOL    HW272783   1.971   2.909   5.787 -1.9963 -0.4120 -2.4875
23778SOL     OW72784   5.463   2.417   1.171  0.0487  0.4550 -0.3339
23778SOL    HW172785   5.381   2.416   1.122  0.3493 -0.8132 -0.8469
23778SOL    HW272786   5.520   2.356   1.123  1.0239  0.7112  0.4664
23779SOL     OW72787   2.337   6.906   8.787 -0.3689  0.3628  0.5273
23779SOL    HW172788   2.430   6.920   8.806  0.5178 -1.4184 -1.9056
23779SOL    HW272789   2.333   6.902   8.691 -2.7719 -0.8512  0.5991
23780SOL     OW72790   9.225   7.303   6.694 -0.0683 -0.1306  0.2719
23780SOL    HW172791   9.153   7.353   6.656 -0.2567 -0.5062  0.1240
23780SOL    HW272792   9.246   7.237   6.628 -0.4836 -0.8742  0.8600
23781SOL     OW72793   4.334   3.352   2.238  0.1112 -0.0540 -0.2104
23781SOL    HW172794   4.312   3.434   2.281 -0.2011 -0.4901  0.4921
23781SOL    HW272795   4.429   3.348   2.239  0.1704  0.7419 -1.1283
23782SOL     OW72796   0.014   3.063   6.684 -0.2338  0.2604  0.8888
23782SOL    HW172797   0.044   3.130   6.622 -0.6025 -0.1608  0.2438
23782SOL    HW272798  -0.060   3.021   6.640 -0.1925 -0.3757  1.4105
23783SOL     OW72799   1.171   5.739   1.448 -0.0433 -0.2733 -0.0925
23783SOL    HW172800   1.248   5.729   1.394 -0.4725 -0.8215 -0.6179
23783SOL    HW272801   1.115   5.664   1.425 -1.3156  0.8185 -0.7009
23784SOL     OW72802   7.992   0.150   8.476  0.1338  0.3424  0.2454
23784SOL    HW172803   7.968   0.175   8.387  2.1212  1.4476 -0.0239
23784SOL    HW272804   7.970   0.056   8.481 -2.9956  0.9341 -0.2807
23785SOL     OW72805   1.385   1.809   1.937  0.1123  0.0781 -0.5870
23785SOL    HW172806   1.429   1.888   1.968  1.9973 -1.1886  0.1526
23785SOL    HW272807   1.292   1.831   1.940  0.5323  1.9667  0.4421
23786SOL     OW72808   5.300   0.907   3.173  0.3546  0.3889  0.2227
23786SOL    HW172809   5.264   0.975   3.116 -0.3375 -0.1588  0.0031
23786SOL    HW272810   5.395   0.910   3.156  0.1364  0.0873 -1.1192
23787SOL     OW72811   2.642   1.086   5.733 -0.5165  0.4800  0.0783
23787SOL    HW172812   2.640   1.169   5.781 -2.0470 -0.1480  1.1704
23787SOL    HW272813   2.715   1.096   5.672  0.6160  1.8687  1.5596
23788SOL     OW72814   5.516   7.965   5.162 -0.2050 -0.3485 -0.0623
23788SOL    HW172815   5.548   7.998   5.078  2.3463 -0.5748  0.7441
23788SOL    HW272816   5.465   7.887   5.139 -0.3781  0.1382 -1.4334
23789SOL     OW72817   1.236   2.183   6.236 -0.0143 -0.2088 -0.1524
23789SOL    HW172818   1.196   2.261   6.197  0.5963 -0.3118 -1.0279
23789SOL    HW272819   1.309   2.163   6.178 -1.8891 -3.1891 -1.7274
23790SOL     OW72820   3.001   0.736   1.910 -0.4811  0.3299 -0.1602
23790SOL    HW172821   2.994   0.823   1.949 -2.5618 -0.6872  1.9344
23790SOL    HW272822   3.079   0.698   1.950  0.3156  1.1147 -0.9262
23791SOL     OW72823   1.127   6.537   0.269  0.6771  0.7766  0.3976
23791SOL    HW172824   1.125   6.443   0.288 -1.4288  0.5938 -0.4108
23791SOL    HW272825   1.042   6.569   0.300  0.6545  2.0721 -0.9189
23792SOL     OW72826   4.877   7.891   2.087 -0.5060 -0.2744  0.3652
23792SOL    HW172827   4.964   7.853   2.089 -0.8199 -1.0267  0.1269
23792SOL    HW272828   4.872   7.944   2.166  0.1458 -0.2646  0.4027
23793SOL     OW72829   4.958   3.805   7.915  0.4030 -0.1426  0.3165
23793SOL    HW172830   4.982   3.768   7.830 -0.8349 -0.4956  0.0892
23793SOL    HW272831   4.910   3.735   7.959 -0.5497  0.6338  0.5590
23794SOL     OW72832   4.055   8.562   6.115 -0.6044  0.4984  0.1933
23794SOL    HW172833   4.124   8.506   6.153  0.1487  1.7223  0.6948
23794SOL    HW272834   4.039   8.525   6.029  0.2752 -0.1568  0.2945
23795SOL     OW72835   2.356   4.738   8.725 -0.8877 -0.1773  0.3666
23795SOL    HW172836   2.343   4.801   8.796  1.0673 -1.3884  1.9092
23795SOL    HW272837   2.358   4.791   8.646 -2.2402  1.3210  1.2672
23796SOL     OW72838   6.845   1.644   9.069 -0.0637  0.1801  0.0744
23796SOL    HW172839   6.866   1.728   9.111  0.0796  0.5651 -0.7481
23796SOL    HW272840   6.922   1.623   9.017 -1.1111  0.9188 -1.8912
23797SOL     OW72841   0.700   1.146   5.597  0.0277 -0.2381  0.2161
23797SOL    HW172842   0.662   1.060   5.581  0.3332 -0.3684  0.1968
23797SOL    HW272843   0.630   1.194   5.642 -0.3761 -0.2804 -0.3518
23798SOL     OW72844   6.110   3.703   2.476 -0.0839  0.4547 -0.5775
23798SOL    HW172845   6.095   3.763   2.402 -1.7525 -1.9890 -2.3935
23798SOL    HW272846   6.035   3.717   2.534 -2.9451 -2.5606 -3.1208
23799SOL     OW72847   4.127   2.759   3.006 -0.4638 -0.0866  0.5408
23799SOL    HW172848   4.111   2.829   2.943 -1.2978 -0.6480  0.1000
23799SOL    HW272849   4.045   2.709   3.006 -0.0254 -0.8124  1.1495
23800SOL     OW72850   2.745   4.532   5.493 -0.3682 -0.0066 -0.3008
23800SOL    HW172851   2.674   4.591   5.466 -0.5682 -0.6804 -1.3119
23800SOL    HW272852   2.818   4.554   5.435 -0.6350 -1.1276 -1.1021
23801SOL     OW72853   0.592   4.341   7.011 -0.3175 -0.4198 -0.1322
23801SOL    HW172854   0.583   4.269   7.074  0.9659 -0.6207 -0.1679
23801SOL    HW272855   0.591   4.298   6.926  2.2270 -0.6245 -0.1101
23802SOL     OW72856   8.717   5.182   4.206  0.0384  0.0526 -0.5615
23802SOL    HW172857   8.644   5.131   4.169  1.0901 -2.2170  0.2759
23802SOL    HW272858   8.795   5.130   4.186  1.0687  0.7542  1.3551
23803SOL     OW72859   0.185   5.941   2.790 -0.0802  0.2472 -0.2968
23803SOL    HW172860   0.230   5.900   2.716  1.0923  0.4930  0.2578
23803SOL    HW272861   0.092   5.926   2.773  0.1770  0.1123 -1.7053
23804SOL     OW72862   0.097   6.094   6.974  0.1173  0.4129  0.1083
23804SOL    HW172863   0.155   6.064   6.904 -0.8629  1.5219 -1.2584
23804SOL    HW272864   0.065   6.179   6.943 -1.9485  0.0027  0.9407
23805SOL     OW72865   7.821   6.494   0.554  0.2528 -0.1047  0.0170
23805SOL    HW172866   7.909   6.531   0.561  0.1503  0.0428  0.6356
23805SOL    HW272867   7.762   6.566   0.578  0.0444 -0.6140  1.1339
23806SOL     OW72868   3.435   2.115   0.110 -0.1989  0.2651 -0.4078
23806SOL    HW172869   3.515   2.081   0.071 -0.4170  1.1841 -1.7162
23806SOL    HW272870   3.398   2.041   0.158  1.4506 -0.1497  0.2779
23807SOL     OW72871   1.963   4.029   2.205  0.0078 -0.2300 -0.0003
23807SOL    HW172872   1.997   3.940   2.205  0.4316 -0.0810  0.6488
23807SOL    HW272873   2.031   4.081   2.164  0.4049  0.0053  0.9211
23808SOL     OW72874   8.520   7.228   3.460 -0.1747  0.1520 -0.4222
23808SOL    HW172875   8.505   7.214   3.554  0.4811 -1.3112 -0.5099
23808SOL    HW272876   8.607   7.191   3.444 -0.0431  0.9168 -1.4989
23809SOL     OW72877   0.883   7.962   1.796 -0.0252  0.3977 -0.2141
23809SOL    HW172878   0.947   8.009   1.851 -0.1966 -0.2175  0.5372
23809SOL    HW272879   0.821   8.029   1.768 -1.3042  0.3962  2.3095
23810SOL     OW72880   0.575   4.150   3.814  0.3608 -0.0177 -0.5929
23810SOL    HW172881   0.648   4.169   3.755 -0.2928  0.4032 -1.2868
23810SOL    HW272882   0.502   4.202   3.779  0.3710  1.5262  1.5233
23811SOL     OW72883   2.396   8.387   4.496 -0.2124  0.4832  0.6030
23811SOL    HW172884   2.348   8.469   4.489  0.2922  0.6477 -2.0379
23811SOL    HW272885   2.487   8.411   4.480 -0.2063 -0.6849 -1.4291
23812SOL     OW72886   1.956   3.444   2.645 -0.1935  0.1580  0.1717
23812SOL    HW172887   2.009   3.517   2.613 -1.0282 -0.4164 -2.8004
23812SOL    HW272888   1.866   3.466   2.620 -0.6147 -1.3501  0.2430
23813SOL     OW72889   8.719   3.991   5.315 -0.1250  0.6516 -0.0709
23813SOL    HW172890   8.697   4.070   5.266  0.0320  0.7678  0.0413
23813SOL    HW272891   8.651   3.928   5.293  0.9655  0.0478 -1.9634
23814SOL     OW72892   1.514   0.023   9.238  0.0611 -0.3317 -0.2329
23814SOL    HW172893   1.591   0.025   9.182 -0.1571 -0.0160 -0.5271
23814SOL    HW272894   1.440   0.011   9.178 -0.1905  0.1685 -0.0348
23815SOL     OW72895   8.581   5.993   4.297  0.1049  0.3161  0.5408
23815SOL    HW172896   8.496   6.033   4.279  0.7424  1.0916 -0.9058
23815SOL    HW272897   8.571   5.902   4.270  0.3100  0.8907 -1.6541
23816SOL     OW72898   0.329   6.494   7.793  0.7960 -0.1118  0.0667
23816SOL    HW172899   0.357   6.424   7.734  1.2838 -0.9531  1.2582
23816SOL    HW272900   0.267   6.545   7.742 -0.4441 -2.0703 -0.4806
23817SOL     OW72901   4.771   3.355   6.424 -0.0193 -0.1442  0.7086
23817SOL    HW172902   4.844   3.322   6.476  0.7846 -0.2487 -0.4619
23817SOL    HW272903   4.793   3.446   6.407 -0.4974  0.0113  0.9000
23818SOL     OW72904   8.354   1.174   8.557 -0.2783 -0.4749  0.0030
23818SOL    HW172905   8.416   1.153   8.627  0.3716  1.0665 -0.0841
23818SOL    HW272906   8.409   1.199   8.483 -0.9884  0.8116 -0.1146
23819SOL     OW72907   1.875   4.370   2.779 -0.1485  0.3199  0.1387
23819SOL    HW172908   1.785   4.382   2.807 -0.5716 -0.2606 -0.9287
23819SOL    HW272909   1.923   4.353   2.860 -1.1706 -0.3861  0.6158
23820SOL     OW72910   5.449   1.314   4.633  0.4623  0.7916  0.2187
23820SOL    HW172911   5.504   1.237   4.619  1.2468  1.4441 -0.3489
23820SOL    HW272912   5.413   1.335   4.547 -2.4912 -0.9068  0.8908
23821SOL     OW72913   2.887   5.045   5.999 -0.2340  0.2776  0.1656
23821SOL    HW172914   2.839   5.076   5.922  1.5707 -0.0350 -1.1389
23821SOL    HW272915   2.927   5.124   6.036 -0.9320  0.3974  0.6856
23822SOL     OW72916   1.563   4.382   7.244 -0.3039 -0.3647  0.0299
23822SOL    HW172917   1.580   4.468   7.284  0.0666  0.6282 -2.1106
23822SOL    HW272918   1.496   4.343   7.299 -0.9380  1.5812  0.7294
23823SOL     OW72919   8.185   5.596   3.359  0.3799 -0.2497  0.2108
23823SOL    HW172920   8.111   5.537   3.369 -0.4675  0.6481 -0.5545
23823SOL    HW272921   8.153   5.664   3.300  1.3578  0.9233  0.9955
23824SOL     OW72922   4.011   2.390   0.837  0.2234 -0.3578 -0.0824
23824SOL    HW172923   3.964   2.359   0.914 -0.1333  0.9804  0.2734
23824SOL    HW272924   4.098   2.351   0.844  0.1788 -0.2970  0.9690
23825SOL     OW72925   0.019   5.408   7.434 -0.0380 -0.3682  0.2841
23825SOL    HW172926   0.029   5.468   7.360  1.0958  0.3329  0.9797
23825SOL    HW272927  -0.071   5.424   7.465  0.4761  1.5708  0.9233
23826SOL     OW72928   0.448   5.101   6.755  0.1051 -0.5674 -0.3397
23826SOL    HW172929   0.439   5.010   6.784  2.0490 -0.7682 -0.2315
23826SOL    HW272930   0.509   5.096   6.680 -0.9657  0.4891 -1.3138
23827SOL     OW72931   7.191   5.246   2.285  0.3756  0.0088 -0.1972
23827SOL    HW172932   7.181   5.301   2.208 -0.9150  1.1376  0.7125
23827SOL    HW272933   7.238   5.301   2.348 -1.6227  0.4628  1.0067
23828SOL     OW72934   7.915   0.220   7.056  0.3167 -0.6642 -0.0171
23828SOL    HW172935   7.827   0.252   7.035  0.7738  0.1355 -0.7714
23828SOL    HW272936   7.967   0.299   7.067  1.0520 -1.1431 -0.0068
23829SOL     OW72937   4.561   1.991   1.397  0.2717 -0.2112  0.3153
23829SOL    HW172938   4.521   1.961   1.316 -0.4956 -0.3263  0.7245
23829SOL    HW272939   4.600   2.076   1.375 -0.5956  0.1187  0.0052
23830SOL     OW72940   3.457   6.146   7.677 -0.0725  0.5008  0.1304
23830SOL    HW172941   3.459   6.169   7.770  0.5233  0.4783  0.1249
23830SOL    HW272942   3.544   6.169   7.644  0.9067 -2.5574  0.3291
23831SOL     OW72943   8.800   0.883   4.509 -0.3446 -0.6208 -0.5207
23831SOL    HW172944   8.881   0.834   4.520 -0.9826 -1.3402  1.2560
23831SOL    HW272945   8.749   0.833   4.445 -0.4874 -1.6316  0.3686
23832SOL     OW72946   3.845   6.897   8.638  0.3768  0.2384 -0.0268
23832SOL    HW172947   3.906   6.861   8.573  1.0760  0.9399  0.2340
23832SOL    HW272948   3.814   6.979   8.600  0.7770  0.6451  0.5036
23833SOL     OW72949   1.724   2.162   7.729  0.0041  0.1391 -0.3075
23833SOL    HW172950   1.629   2.168   7.716  0.1280  1.6826 -0.6159
23833SOL    HW272951   1.745   2.234   7.788  1.0355 -0.0484 -0.4343
23834SOL     OW72952   7.296   1.145   7.092 -0.1303 -0.1781  0.2390
23834SOL    HW172953   7.266   1.197   7.167  0.6832  0.3599  0.2136
23834SOL    HW272954   7.381   1.184   7.069 -1.7487  1.9146 -3.0520
23835SOL     OW72955   7.286   2.834   0.853  0.6159  0.1978  0.1868
23835SOL    HW172956   7.379   2.856   0.848  0.6962  0.0466  0.8507
23835SOL    HW272957   7.264   2.845   0.946 -0.0274  0.2255  0.0343
23836SOL     OW72958   5.991   3.999   0.119 -0.2176 -0.3163  0.3507
23836SOL    HW172959   6.004   3.954   0.202 -0.0758 -0.2753  0.3507
23836SOL    HW272960   5.969   4.089   0.143  0.8154 -0.0524  0.3264
23837SOL     OW72961   2.776   8.871   4.383 -0.1055  0.5624  0.1302
23837SOL    HW172962   2.789   8.956   4.426  1.0956  0.3046  0.3072
23837SOL    HW272963   2.847   8.816   4.417 -0.4261 -0.2902 -0.5595
23838SOL     OW72964   3.981   1.400   1.383 -0.1819 -0.6897 -0.3153
23838SOL    HW172965   4.066   1.430   1.350 -1.4989  0.8708 -2.4776
23838SOL    HW272966   3.987   1.304   1.379  1.3354 -0.6025 -0.8102
23839SOL     OW72967   6.634   6.442   2.658 -0.2403 -0.2765  0.6885
23839SOL    HW172968   6.697   6.377   2.690 -0.7039 -0.0150  2.2127
23839SOL    HW272969   6.644   6.516   2.718 -1.6093 -0.0143  0.6163
23840SOL     OW72970   6.228   8.908   6.545  0.5433  0.0367  0.2898
23840SOL    HW172971   6.305   8.935   6.495 -0.0281 -1.2289 -1.3290
23840SOL    HW272972   6.260   8.901   6.635  1.5844  2.4001  0.1812
23841SOL     OW72973   4.998   1.692   4.303 -0.3333 -0.3648  0.5382
23841SOL    HW172974   5.025   1.614   4.255  1.1291 -0.4847  1.5030
23841SOL    HW272975   4.991   1.760   4.236  0.3705 -0.8472 -0.0322
23842SOL     OW72976   0.067   5.131   5.587 -0.0265 -0.6848 -0.1648
23842SOL    HW172977   0.152   5.116   5.546  0.6842 -0.0541  0.9884
23842SOL    HW272978   0.065   5.070   5.661 -0.4630 -0.5156 -0.0348
23843SOL     OW72979   7.047   6.889   7.820 -0.5738  0.0717  0.1516
23843SOL    HW172980   7.011   6.902   7.732  1.0453  2.3364 -0.2562
23843SOL    HW272981   7.140   6.875   7.806 -0.2718  0.5992  1.4968
23844SOL     OW72982   4.905   5.121   0.970  0.1139  0.6075 -0.0729
23844SOL    HW172983   4.841   5.102   0.902  0.4585  0.5074 -0.3772
23844SOL    HW272984   4.941   5.206   0.947 -0.3155  0.9271  0.4197
23845SOL     OW72985   5.110   6.248   8.625  0.1219 -0.3657  0.1860
23845SOL    HW172986   5.030   6.196   8.628  0.3094 -0.8547 -1.8124
23845SOL    HW272987   5.083   6.330   8.583  0.5055 -0.2057  0.2464
23846SOL     OW72988   1.637   4.935   3.820 -0.2834  0.1016  0.3044
23846SOL    HW172989   1.678   4.958   3.904  1.0885  1.9537 -0.8013
23846SOL    HW272990   1.662   4.844   3.806  0.1940  0.0213  1.5017
23847SOL     OW72991   1.970   1.380   2.764  0.0318  0.1046  0.3874
23847SOL    HW172992   2.055   1.425   2.763  0.0958 -0.0163 -0.5440
23847SOL    HW272993   1.938   1.393   2.853  1.8820 -1.4612  1.3698
23848SOL     OW72994   5.296   4.218   1.230 -0.0063 -0.6813  0.1827
23848SOL    HW172995   5.332   4.306   1.225 -0.6313 -0.4461 -0.2133
23848SOL    HW272996   5.271   4.197   1.140 -1.9194 -0.4012  0.6197
23849SOL     OW72997   5.490   7.630   5.740  0.3954 -0.0052 -0.0748
23849SOL    HW172998   5.422   7.593   5.796 -0.0334 -1.1986 -1.3361
23849SOL    HW272999   5.560   7.565   5.742  0.3094 -0.1326 -1.0271
23850SOL     OW73000   7.246   3.845   1.722  0.5084  0.1305 -0.8572
23850SOL    HW173001   7.327   3.826   1.770 -0.5315 -2.1411  0.1575
23850SOL    HW273002   7.179   3.851   1.790 -0.8598 -2.2543 -1.8664
23851SOL     OW73003   9.250   1.479   6.062 -0.0852  0.0889 -0.4448
23851SOL    HW173004   9.344   1.463   6.052  0.3877  1.9374  0.5904
23851SOL    HW273005   9.230   1.549   5.999 -1.0153 -0.9729 -1.3761
23852SOL     OW73006   2.210   3.186   4.020  0.0634  0.7665 -0.0865
23852SOL    HW173007   2.274   3.182   3.949  1.5993  1.7268  1.1761
23852SOL    HW273008   2.168   3.100   4.021  1.6198 -0.0178 -0.7142
23853SOL     OW73009   1.388   7.931   8.847 -0.4495 -0.1356  0.0059
23853SOL    HW173010   1.306   7.940   8.800  0.9658  0.5703 -2.4927
23853SOL    HW273011   1.453   7.909   8.780  1.5231 -0.1141  1.7790
23854SOL     OW73012   2.300   2.415   7.510  0.6009  0.6693 -0.3298
23854SOL    HW173013   2.377   2.468   7.491  0.5744  0.7834 -0.1217
23854SOL    HW273014   2.326   2.358   7.581  0.7471  0.1327 -0.8054
23855SOL     OW73015   7.215   1.495   3.655  0.7074 -0.0905  0.3029
23855SOL    HW173016   7.242   1.417   3.703  0.2156 -0.6140 -0.2501
23855SOL    HW273017   7.254   1.485   3.568 -0.1784 -0.2324 -0.0976
23856SOL     OW73018   0.101   9.128   5.313 -0.1939  0.9504 -0.1175
23856SOL    HW173019   0.196   9.113   5.306 -0.2392  0.9426 -0.7819
23856SOL    HW273020   0.081   9.108   5.404  0.5231  1.4035  0.1562
23857SOL     OW73021   2.461   1.713   5.830  0.1372  0.4892 -0.9649
23857SOL    HW173022   2.423   1.709   5.917 -0.4109  2.0390 -1.1019
23857SOL    HW273023   2.533   1.650   5.832 -1.7091 -1.7565 -0.3521
23858SOL     OW73024   5.671   7.225   4.721  0.2410 -0.9046  0.0363
23858SOL    HW173025   5.697   7.261   4.806  0.6049  0.5064 -0.6467
23858SOL    HW273026   5.641   7.300   4.670  1.0669 -1.5299 -1.4617
23859SOL     OW73027   0.099   7.894   0.312  0.3450  0.9663  0.1776
23859SOL    HW173028   0.084   7.937   0.228  0.1436 -1.7936 -1.2922
23859SOL    HW273029   0.021   7.914   0.364  0.3246  2.4188 -0.3555
23860SOL     OW73030   2.555   7.521   3.302 -0.4236  0.1226  0.1170
23860SOL    HW173031   2.643   7.524   3.338 -0.8514  0.3744  1.1635
23860SOL    HW273032   2.564   7.557   3.214  0.3064  1.2951  0.6525
23861SOL     OW73033   1.837   0.089   6.166  0.2816 -0.3895  0.2602
23861SOL    HW173034   1.822  -0.005   6.169  0.7201 -0.4534  0.5306
23861SOL    HW273035   1.920   0.099   6.120 -0.2235 -0.0785 -0.6088
23862SOL     OW73036   2.931   0.689   7.049  0.3148 -0.4155  0.0411
23862SOL    HW173037   2.905   0.670   7.140 -1.8327 -0.3515 -0.4908
23862SOL    HW273038   2.944   0.784   7.048 -0.2775 -0.3272  0.1573
23863SOL     OW73039   4.651   1.446   7.252  0.5885  0.4344  0.3379
23863SOL    HW173040   4.580   1.509   7.240 -0.7899 -1.0812  0.2243
23863SOL    HW273041   4.674   1.452   7.344  0.6053  1.2205  0.2896
23864SOL     OW73042   1.348   9.256   2.457 -0.3663  0.0695 -0.4697
23864SOL    HW173043   1.417   9.194   2.434 -0.9333 -0.5200 -0.6025
23864SOL    HW273044   1.395   9.332   2.491  0.3107 -0.8471  0.7341
23865SOL     OW73045   9.048   3.827   6.663 -0.1448  0.1079 -0.3086
23865SOL    HW173046   9.058   3.906   6.610  1.6740  0.0293 -0.1686
23865SOL    HW273047   9.092   3.847   6.745 -1.3499 -0.4069  0.4895
23866SOL     OW73048   1.953   4.748   3.427 -0.1572 -0.7991 -0.7287
23866SOL    HW173049   1.963   4.818   3.362 -1.8521 -0.4220 -0.6434
23866SOL    HW273050   2.019   4.768   3.494  1.0280 -0.7010 -1.8960
23867SOL     OW73051   6.264   7.556   2.493 -0.1946  0.6361  0.0531
23867SOL    HW173052   6.341   7.503   2.474 -0.2987  0.6586 -0.4672
23867SOL    HW273053   6.196   7.519   2.436 -0.8648 -0.0796  1.2718
23868SOL     OW73054   2.844   8.945   1.186 -0.2024  0.6660 -0.7113
23868SOL    HW173055   2.754   8.917   1.170 -0.3407  0.7881 -0.1729
23868SOL    HW273056   2.847   8.964   1.280  0.1955  1.3411 -0.8510
23869SOL     OW73057   1.697   6.898   7.829 -0.5300  0.0711 -0.1479
23869SOL    HW173058   1.746   6.817   7.840 -0.1290  0.2361 -0.6784
23869SOL    HW273059   1.754   6.953   7.776  0.0606  1.4610  1.8153
23870SOL     OW73060   4.273   9.132   8.639 -0.8176  0.4498  0.2888
23870SOL    HW173061   4.194   9.185   8.654 -2.4110 -1.9486  0.9829
23870SOL    HW273062   4.305   9.113   8.727  0.1155  0.7764  0.0250
23871SOL     OW73063   1.873   5.493   5.126  1.0432  0.0997 -0.9894
23871SOL    HW173064   1.786   5.491   5.086 -0.3259  1.4575  1.6333
23871SOL    HW273065   1.880   5.409   5.172  0.5505  0.4551 -0.2303
23872SOL     OW73066   0.189   5.673   1.679  0.0733 -0.0780  0.1033
23872SOL    HW173067   0.110   5.626   1.707 -0.0917  0.5704  0.7690
23872SOL    HW273068   0.159   5.730   1.608  0.5987 -2.1101 -1.8407
23873SOL     OW73069   0.807   6.185   7.954 -0.0933 -0.2363  0.7833
23873SOL    HW173070   0.831   6.115   8.015 -2.4100 -1.1177  0.7654
23873SOL    HW273071   0.849   6.263   7.990  2.1079 -1.4652  1.1107
23874SOL     OW73072   7.345   4.455   8.598 -0.1535  0.0077 -0.8816
23874SOL    HW173073   7.434   4.452   8.561 -0.7557  0.2957 -2.4109
23874SOL    HW273074   7.354   4.508   8.677  1.0899 -0.2305 -0.8366
23875SOL     OW73075   7.939   5.234   3.128  0.4591 -0.3493 -0.1591
23875SOL    HW173076   8.035   5.228   3.123  0.3343 -1.9699 -1.4380
23875SOL    HW273077   7.914   5.284   3.051  0.2331 -0.8015 -0.3861
23876SOL     OW73078   5.697   2.815   3.946  0.4827 -0.4762  0.1809
23876SOL    HW173079   5.611   2.853   3.928  0.7466 -0.0829 -0.2973
23876SOL    HW273080   5.681   2.751   4.015  0.0271  0.5583  1.0760
23877SOL     OW73081   3.780   6.187   2.061 -0.0167 -0.2460  0.2425
23877SOL    HW173082   3.811   6.184   2.152  0.8669 -1.2053 -0.0644
23877SOL    HW273083   3.858   6.204   2.009 -0.8145  2.2965 -0.2440
23878SOL     OW73084   6.341   3.177   4.265 -0.1339 -0.1759 -0.3288
23878SOL    HW173085   6.427   3.141   4.286 -0.2752 -0.5786 -0.4212
23878SOL    HW273086   6.326   3.244   4.331  0.0690 -0.4007 -0.0512
23879SOL     OW73087   0.035   1.049   7.211 -0.3119  0.2995 -0.2414
23879SOL    HW173088  -0.012   0.996   7.146  0.1593 -1.0143  0.4523
23879SOL    HW273089   0.005   1.015   7.296  0.6311  0.5813  0.2165
23880SOL     OW73090   0.714   8.187   2.403  0.3510 -0.5624  0.3139
23880SOL    HW173091   0.799   8.206   2.443  1.2021 -1.5789 -0.9112
23880SOL    HW273092   0.736   8.137   2.324 -1.2048  1.5738 -1.6063
23881SOL     OW73093   2.901   8.765   8.867 -0.3702 -0.1679  0.0038
23881SOL    HW173094   2.827   8.767   8.806 -0.2799  0.5288 -0.0976
23881SOL    HW273095   2.977   8.789   8.813  0.1172 -1.8678 -0.1174
23882SOL     OW73096   9.273   8.174   7.830 -0.1701  0.0462  0.0308
23882SOL    HW173097   9.216   8.180   7.907  0.4646  2.7881  0.3985
23882SOL    HW273098   9.359   8.153   7.865 -0.5133 -2.1509 -0.3340
23883SOL     OW73099   0.018   2.959   2.660 -1.0779 -0.0499  0.9122
23883SOL    HW173100  -0.044   2.896   2.696 -1.7955  0.3784  0.4649
23883SOL    HW273101  -0.010   2.970   2.569  0.9635 -1.4716  0.0309
23884SOL     OW73102   4.315   3.332   7.327  0.6848  0.8732 -0.0439
23884SOL    HW173103   4.229   3.321   7.288  0.5304 -0.3269  0.5891
23884SOL    HW273104   4.365   3.380   7.262  0.1365 -0.1902 -1.2975
23885SOL     OW73105   1.768   2.786   1.729 -0.0342 -0.3622  0.0056
23885SOL    HW173106   1.704   2.812   1.662 -0.1506 -0.3985  0.1031
23885SOL    HW273107   1.824   2.722   1.684 -0.5500 -0.9254  0.1495
23886SOL     OW73108   7.628   1.776   0.978 -0.8910  0.1392 -0.2107
23886SOL    HW173109   7.681   1.791   1.056 -1.9219  0.2227  0.4952
23886SOL    HW273110   7.555   1.722   1.008 -2.0416  1.2936 -0.8098
23887SOL     OW73111   6.873   5.385   6.539 -0.2557 -0.7404 -0.4101
23887SOL    HW173112   6.840   5.473   6.558 -1.0960 -1.1031 -0.1859
23887SOL    HW273113   6.935   5.367   6.610 -0.3227 -0.4575 -0.2791
23888SOL     OW73114   3.288   5.090   8.635  0.1082  0.0731  0.2385
23888SOL    HW173115   3.335   5.027   8.691 -0.2160 -1.0919 -0.7683
23888SOL    HW273116   3.294   5.053   8.547  0.4035  1.7607 -0.4889
23889SOL     OW73117   4.027   3.934   5.468 -0.2048  0.3239  0.3643
23889SOL    HW173118   3.995   3.913   5.556 -1.5894  1.2333  0.1105
23889SOL    HW273119   4.007   3.856   5.416  0.2711 -0.0696  0.7571
23890SOL     OW73120   1.657   5.004   6.633 -0.5289 -0.4341  0.4322
23890SOL    HW173121   1.728   5.063   6.607 -2.0243  1.0795 -0.4709
23890SOL    HW273122   1.682   4.971   6.719  1.1384  0.2278  0.2302
23891SOL     OW73123   6.875   8.421   5.168 -0.4887 -0.3260 -0.1891
23891SOL    HW173124   6.921   8.370   5.100  1.2940 -0.0453  0.7480
23891SOL    HW273125   6.784   8.423   5.138  0.2632  0.0285 -2.7265
23892SOL     OW73126   0.480   4.435   8.527 -0.5612  0.2358  0.2011
23892SOL    HW173127   0.477   4.383   8.607  2.7386  0.9548  0.9339
23892SOL    HW273128   0.527   4.380   8.464  1.8887  1.7150  0.6089
23893SOL     OW73129   3.679   5.622   3.151  0.2155  0.8685  0.0761
23893SOL    HW173130   3.763   5.643   3.191  0.4736  0.8505 -0.4514
23893SOL    HW273131   3.698   5.611   3.058 -0.8340  3.6462 -0.5687
23894SOL     OW73132   2.318   0.943   2.190 -0.0861  0.1432  0.6155
23894SOL    HW173133   2.313   0.848   2.197  0.3380  0.0807  0.1385
23894SOL    HW273134   2.383   0.959   2.121  0.9874  0.7951  1.7266
23895SOL     OW73135   0.317   9.152   0.234 -0.0386 -0.1072 -0.6783
23895SOL    HW173136   0.360   9.233   0.260 -0.0946 -0.3442  0.2158
23895SOL    HW273137   0.303   9.161   0.140  0.6787  0.5703 -0.7350
23896SOL     OW73138   3.513   0.434   8.607 -0.3961 -0.0281 -0.1099
23896SOL    HW173139   3.480   0.367   8.667  2.9311  0.0283  2.0182
23896SOL    HW273140   3.464   0.513   8.629 -0.9608 -0.6060  0.7682
23897SOL     OW73141   8.663   7.137   2.425  0.1418 -0.1695  0.3388
23897SOL    HW173142   8.733   7.201   2.424  1.0113 -1.0960 -0.1680
23897SOL    HW273143   8.677   7.085   2.346 -1.3140 -0.1715  0.0523
23898SOL     OW73144   8.184   7.645   5.220 -0.0698  0.3945  0.3600
23898SOL    HW173145   8.194   7.557   5.182  1.0492 -1.0101  3.5804
23898SOL    HW273146   8.189   7.704   5.144  1.0039 -2.1938 -1.7533
23899SOL     OW73147   0.802   6.896   1.832  0.4580  0.1594  0.0083
23899SOL    HW173148   0.844   6.956   1.771 -0.6791  1.4639  0.4557
23899SOL    HW273149   0.875   6.863   1.886  1.4478 -0.8894 -1.8717
23900SOL     OW73150   2.144   1.924   2.066 -0.0454 -0.3330 -0.0714
23900SOL    HW173151   2.163   2.015   2.090 -1.8918 -0.5741  2.8118
23900SOL    HW273152   2.226   1.877   2.081  0.6134  0.6465 -0.5178
23901SOL     OW73153   5.311   0.776   8.095 -0.6067  0.4302  0.8661
23901SOL    HW173154   5.393   0.728   8.079  0.9404  2.5147  2.1082
23901SOL    HW273155   5.289   0.815   8.010  0.9323  1.6369  0.9858
23902SOL     OW73156   6.288   5.285   4.556  0.2418 -0.7813 -0.0092
23902SOL    HW173157   6.202   5.248   4.533 -0.7903  1.0658  0.6026
23902SOL    HW273158   6.267   5.370   4.594  2.3656 -0.4015  0.4219
23903SOL     OW73159   3.608   4.883   7.639  0.1838 -0.4215 -0.3521
23903SOL    HW173160   3.688   4.844   7.605  0.1626 -0.4776 -0.3363
23903SOL    HW273161   3.574   4.819   7.701  0.7938  0.1316  0.5984
23904SOL     OW73162   1.708   5.924   3.007  0.0590  0.1617  0.1743
23904SOL    HW173163   1.751   6.005   2.980  3.2577 -1.1438  0.8782
23904SOL    HW273164   1.713   5.867   2.930  0.2999 -0.2891  0.5235
23905SOL     OW73165   1.796   0.986   7.004 -0.3516 -0.3596 -0.1473
23905SOL    HW173166   1.868   1.026   6.955 -1.1913 -1.1399 -2.1076
23905SOL    HW273167   1.833   0.968   7.090  1.0011  1.6311 -0.2465
23906SOL     OW73168   8.093   8.385   3.417  0.5754  0.3736 -0.2711
23906SOL    HW173169   8.128   8.341   3.340  0.2774  0.2332 -0.3303
23906SOL    HW273170   7.998   8.381   3.405  0.4457 -1.2214  0.9681
23907SOL     OW73171   6.144   3.033   5.751 -0.9186  0.1275  0.2863
23907SOL    HW173172   6.215   3.091   5.724 -1.4774  0.2814 -0.9566
23907SOL    HW273173   6.083   3.091   5.798 -1.8202  0.7619 -1.5646
23908SOL     OW73174   6.978   1.429   1.935  0.0820 -0.2573  0.2132
23908SOL    HW173175   6.941   1.504   1.888  1.0434 -0.7030 -1.3217
23908SOL    HW273176   6.918   1.416   2.009 -0.9769  1.0486 -0.3615
23909SOL     OW73177   1.083   7.824   8.140  1.2708  0.6357  0.1435
23909SOL    HW173178   1.049   7.912   8.154 -0.7495  0.0604 -0.7260
23909SOL    HW273179   1.158   7.835   8.082  0.0163  1.6849 -1.3625
23910SOL     OW73180   2.659   8.895   3.869 -0.5536 -0.2413 -0.2179
23910SOL    HW173181   2.579   8.843   3.876 -1.9411  1.7103 -0.8761
23910SOL    HW273182   2.655   8.935   3.782  1.2915 -0.3188 -0.3789
23911SOL     OW73183   4.485   0.988   8.219  0.5129  0.0158  0.6207
23911SOL    HW173184   4.496   0.946   8.304  0.8016 -0.6209  0.2704
23911SOL    HW273185   4.401   1.034   8.227 -0.2406 -1.3142  0.7235
23912SOL     OW73186   1.413   5.342   3.906  0.2372 -0.1307 -0.2191
23912SOL    HW173187   1.449   5.257   3.933  0.5261 -0.7536 -2.3393
23912SOL    HW273188   1.399   5.389   3.988  2.6654 -1.1657  0.9171
23913SOL     OW73189   6.634   1.608   3.318 -0.5920  0.5009 -0.2404
23913SOL    HW173190   6.700   1.677   3.328 -1.4758  1.3239  0.0190
23913SOL    HW273191   6.685   1.529   3.299  0.6072  0.7443  1.6840
23914SOL     OW73192   7.392   2.067   7.250  0.5071 -0.2420 -0.9665
23914SOL    HW173193   7.353   2.033   7.169  0.8482 -1.4118 -0.6628
23914SOL    HW273194   7.470   2.114   7.221 -0.1016  0.5232 -1.4191
23915SOL     OW73195   7.203   4.138   3.505 -0.0325 -0.3486 -0.6635
23915SOL    HW173196   7.215   4.045   3.523  0.3548 -0.2363 -0.3453
23915SOL    HW273197   7.202   4.180   3.591  0.2751 -0.0034 -0.8238
23916SOL     OW73198   6.767   2.132   1.454 -0.0306  0.3714  0.0490
23916SOL    HW173199   6.833   2.192   1.418  0.7254 -0.7270 -0.4205
23916SOL    HW273200   6.768   2.057   1.396 -1.6862  0.3023  0.0577
23917SOL     OW73201   1.278   3.157   6.953 -0.1479 -0.3524 -0.0678
23917SOL    HW173202   1.308   3.069   6.930  1.7294  0.6315 -1.7600
23917SOL    HW273203   1.358   3.209   6.954 -1.2390  1.3745  0.7618
23918SOL     OW73204   6.540   1.738   5.870 -0.2295 -0.4514 -0.3939
23918SOL    HW173205   6.589   1.795   5.929 -1.1189  0.0452 -0.1264
23918SOL    HW273206   6.483   1.687   5.928 -0.7210 -0.3411 -0.7715
23919SOL     OW73207   5.365   2.488   3.821 -0.4591 -0.3073 -0.1216
23919SOL    HW173208   5.289   2.436   3.796 -0.7456  1.0641 -2.4155
23919SOL    HW273209   5.420   2.491   3.743  0.9683  0.4226  0.8458
23920SOL     OW73210   7.098   0.006   4.757 -0.2270  0.1754 -0.6449
23920SOL    HW173211   7.021   0.060   4.744 -1.1689 -1.5029 -2.7579
23920SOL    HW273212   7.109   0.001   4.852 -1.7912  1.6885 -0.3392
23921SOL     OW73213   4.020   5.026   7.158 -0.1545  0.1089 -0.5520
23921SOL    HW173214   4.051   5.115   7.138 -1.4874  0.3357 -1.8242
23921SOL    HW273215   4.100   4.977   7.177  0.6787  1.4150 -0.4908
23922SOL     OW73216   8.327   5.126   3.808 -0.2265 -0.5109 -0.0145
23922SOL    HW173217   8.406   5.121   3.754  0.7344  1.9515  1.0018
23922SOL    HW273218   8.265   5.177   3.755 -0.4464 -0.8025 -0.0403
23923SOL     OW73219   7.709   1.465   5.958  0.1130 -0.0829  0.2978
23923SOL    HW173220   7.800   1.441   5.943  0.4299  0.4832  1.2792
23923SOL    HW273221   7.678   1.494   5.872  1.1392  0.6475  0.1558
23924SOL     OW73222   1.115   1.648   4.146  0.0727  0.3703 -0.3039
23924SOL    HW173223   1.088   1.724   4.096 -0.6432 -0.4236 -1.1576
23924SOL    HW273224   1.036   1.596   4.156  0.5777 -0.3352  0.1269
23925SOL     OW73225   7.195   2.283   0.544  0.5298  0.1943 -0.1390
23925SOL    HW173226   7.202   2.276   0.639 -1.3488  1.3665  0.1161
23925SOL    HW273227   7.286   2.290   0.514  1.1409 -0.1081  1.5572
23926SOL     OW73228   8.455   3.325   3.731 -0.3446 -0.0549 -0.4027
23926SOL    HW173229   8.440   3.408   3.775 -1.4702  0.0450 -0.9426
23926SOL    HW273230   8.486   3.266   3.800  1.9973  1.1826 -0.2998
23927SOL     OW73231   3.787   1.520   7.458 -0.3185 -0.0474  0.6763
23927SOL    HW173232   3.766   1.606   7.420  1.3172 -0.0728 -0.3914
23927SOL    HW273233   3.828   1.472   7.386  1.8227 -0.5203  2.1176
23928SOL     OW73234   8.895   4.006   9.267  0.2521 -0.2336 -0.7502
23928SOL    HW173235   8.952   4.041   9.198  0.7331 -0.3674 -0.4248
23928SOL    HW273236   8.840   4.080   9.294  0.3431 -0.0776 -0.9917
23929SOL     OW73237   3.611   8.187   0.739 -0.1709  0.4909 -0.0277
23929SOL    HW173238   3.643   8.269   0.701 -1.0022  0.4773 -0.7912
23929SOL    HW273239   3.517   8.188   0.722 -0.0812 -0.9779 -0.7591
23930SOL     OW73240   6.457   3.436   3.943  0.1649  0.4039  0.0792
23930SOL    HW173241   6.412   3.422   4.026  0.2697  1.0123  0.2379
23930SOL    HW273242   6.550   3.443   3.966  0.3155 -0.5091 -0.2107
23931SOL     OW73243   5.832   4.892   2.591 -0.5104  0.4200 -0.1801
23931SOL    HW173244   5.774   4.926   2.660  0.0378 -1.5466  1.3278
23931SOL    HW273245   5.868   4.971   2.549 -1.0887  1.6862  1.5764
23932SOL     OW73246   4.629   5.025   6.327  0.2884 -0.0747  0.2613
23932SOL    HW173247   4.684   4.974   6.268 -1.0902 -0.0602 -1.1153
23932SOL    HW273248   4.566   5.068   6.269  0.4753  2.0265  1.5118
23933SOL     OW73249   7.704   1.683   2.106 -0.0629 -0.1658  0.1149
23933SOL    HW173250   7.680   1.716   2.019 -2.3798 -1.8660  0.0311
23933SOL    HW273251   7.726   1.591   2.090 -0.8500 -0.5833  1.3649
23934SOL     OW73252   0.330   0.749   7.059  0.4188 -0.4363 -0.0089
23934SOL    HW173253   0.344   0.690   7.133  1.2182 -0.9096 -0.5252
23934SOL    HW273254   0.406   0.735   7.003 -0.1821 -0.0815 -0.9225
23935SOL     OW73255   7.855   8.030   7.556  0.5819 -0.0472  0.0274
23935SOL    HW173256   7.841   7.935   7.560  0.3868 -0.0626 -0.9657
23935SOL    HW273257   7.935   8.044   7.606  0.2362 -0.6459  0.7823
23936SOL     OW73258   2.978   2.341   4.806 -0.1027 -0.4189 -0.0497
23936SOL    HW173259   2.939   2.373   4.725  1.0358 -0.1837 -0.5099
23936SOL    HW273260   2.995   2.248   4.789 -0.5117 -0.5408  0.1804
23937SOL     OW73261   1.823   4.853   2.006  0.3032  0.6384 -0.4843
23937SOL    HW173262   1.863   4.860   2.092 -0.1950  0.1635 -0.2097
23937SOL    HW273263   1.793   4.942   1.986  1.0201  0.8920 -0.4758
23938SOL     OW73264   0.868   5.531   1.173  0.1850 -0.4715  0.4140
23938SOL    HW173265   0.928   5.530   1.099  0.7014  1.5255  0.7407
23938SOL    HW273266   0.922   5.508   1.248  0.2932  0.2262  0.5517
23939SOL     OW73267   6.314   7.317   7.376  0.0482 -0.3946 -0.3071
23939SOL    HW173268   6.287   7.260   7.448  0.0968 -1.0706 -0.8116
23939SOL    HW273269   6.312   7.261   7.299  1.9957 -0.2592 -0.5150
23940SOL     OW73270   4.267   5.093   4.359  1.1658  0.3279 -0.4812
23940SOL    HW173271   4.259   5.185   4.335 -1.8963  0.1556 -0.5014
23940SOL    HW273272   4.337   5.091   4.425 -0.3952  3.1345  1.4552
23941SOL     OW73273   5.430   5.287   6.182 -0.7221 -0.3052  0.5543
23941SOL    HW173274   5.477   5.248   6.108 -3.2427 -2.4029 -0.0936
23941SOL    HW273275   5.445   5.227   6.255  0.9183  1.2267  1.5585
23942SOL     OW73276   8.024   1.696   2.016  0.0521  0.1534  0.0305
23942SOL    HW173277   7.976   1.613   2.018  0.7392 -0.2448  1.3300
23942SOL    HW273278   8.104   1.678   2.067  0.0483  1.7059  0.6207
23943SOL     OW73279   4.082   1.529   3.211  0.3716  0.4695 -0.2398
23943SOL    HW173280   4.106   1.500   3.300  1.4176  3.3108  0.5071
23943SOL    HW273281   4.086   1.449   3.159 -3.3113 -2.0210  2.6988
23944SOL     OW73282   4.882   3.551   8.552  0.1102 -0.2160 -0.5850
23944SOL    HW173283   4.801   3.501   8.547  0.2702 -0.8448  1.7786
23944SOL    HW273284   4.866   3.616   8.620  1.2365  0.3235 -0.8081
23945SOL     OW73285   4.113   9.000   8.340  0.2242 -0.0386 -0.4051
23945SOL    HW173286   4.138   8.998   8.432 -1.7279 -0.9417  0.1581
23945SOL    HW273287   4.105   9.093   8.319 -1.5855  0.1613  1.0317
23946SOL     OW73288   7.952   1.928   4.021  0.5105  0.1443 -0.4430
23946SOL    HW173289   7.892   1.864   4.059  0.0488 -0.4597 -2.1148
23946SOL    HW273290   8.037   1.906   4.059  0.3106 -1.3097 -0.7667
23947SOL     OW73291   5.170   5.102   5.690  0.4749  0.0594 -0.6035
23947SOL    HW173292   5.252   5.060   5.662  0.3219 -0.3180 -0.4957
23947SOL    HW273293   5.117   5.107   5.611 -0.0358 -1.1899 -0.3615
23948SOL     OW73294   8.400   2.614   0.264  0.3985  0.9436 -0.5982
23948SOL    HW173295   8.463   2.551   0.229 -0.6989 -0.9796  0.6812
23948SOL    HW273296   8.409   2.691   0.208  3.2014  0.4274 -1.0150
23949SOL     OW73297   4.979   6.853   5.335  0.0280 -0.3802  0.2555
23949SOL    HW173298   4.885   6.841   5.329  0.3204 -2.4401 -1.3589
23949SOL    HW273299   4.998   6.927   5.277 -0.6517  0.5818  1.2355
23950SOL     OW73300   1.680   3.710   8.357  0.1840 -0.1259  0.0871
23950SOL    HW173301   1.697   3.760   8.436 -0.1584 -1.1176  0.8050
23950SOL    HW273302   1.712   3.766   8.286 -2.2515  2.1076  0.6147
23951SOL     OW73303   5.390   3.357   7.959 -0.5887  0.2189 -0.3138
23951SOL    HW173304   5.475   3.323   7.931 -1.6627 -3.1568 -0.0147
23951SOL    HW273305   5.411   3.428   8.020  2.0064 -0.5281 -0.2235
23952SOL     OW73306   3.703   0.383   5.499 -0.3858 -0.5111 -0.4426
23952SOL    HW173307   3.672   0.296   5.475  1.2638 -1.1925 -0.2406
23952SOL    HW273308   3.712   0.429   5.415  0.2382 -1.0814 -0.7002
23953SOL     OW73309   9.014   0.473   1.408  0.2822 -0.8533 -0.1082
23953SOL    HW173310   8.966   0.429   1.479  0.2124 -0.3145  0.1829
23953SOL    HW273311   8.986   0.564   1.413  0.8334 -0.6675 -0.3732
23954SOL     OW73312   7.963   1.296   0.493  0.1839 -0.4072  0.5102
23954SOL    HW173313   7.956   1.219   0.550 -0.2908 -1.5291 -1.0015
23954SOL    HW273314   7.872   1.323   0.479  0.1551 -1.2757 -1.1648
23955SOL     OW73315   4.123   0.203   4.445  0.5376  0.0663 -0.1424
23955SOL    HW173316   4.039   0.248   4.455  0.5408 -0.1307  0.9974
23955SOL    HW273317   4.183   0.252   4.500  0.9424 -0.3353 -0.2185
23956SOL     OW73318   3.150   3.347   1.287 -0.7077  0.5570  0.5950
23956SOL    HW173319   3.231   3.318   1.328  0.5396  0.3411 -1.8267
23956SOL    HW273320   3.093   3.372   1.360  1.0284 -0.5574  2.4158
23957SOL     OW73321   3.812   5.384   1.629 -0.0071  0.4603  0.1649
23957SOL    HW173322   3.787   5.476   1.619 -0.3990  0.5944  1.9762
23957SOL    HW273323   3.773   5.340   1.554  0.3080  1.7889 -0.8117
23958SOL     OW73324   1.039   3.201   3.264 -0.1630 -0.1893  0.0485
23958SOL    HW173325   0.969   3.253   3.302  0.8193  1.3441 -0.1287
23958SOL    HW273326   1.037   3.222   3.170  0.7600  0.2042  0.1002
23959SOL     OW73327   0.366   9.241   2.003  0.3876 -0.1277  0.6891
23959SOL    HW173328   0.286   9.204   1.967  0.5490  0.8821 -0.8153
23959SOL    HW273329   0.429   9.169   2.002 -0.0670 -0.5270  0.4473
23960SOL     OW73330   5.595   7.957   4.315  0.4230  0.5793 -0.1260
23960SOL    HW173331   5.677   7.928   4.276  0.9882 -0.6437  1.8484
23960SOL    HW273332   5.533   7.958   4.242  1.5528 -1.0371 -1.1818
23961SOL     OW73333   9.155   9.044   4.641 -0.0050 -0.0566 -0.1508
23961SOL    HW173334   9.167   9.139   4.631  1.1359 -0.1110  0.5102
23961SOL    HW273335   9.106   9.035   4.722  0.2917 -0.0342  0.0363
23962SOL     OW73336   9.202   0.199   9.156  0.1774 -0.1158  0.0663
23962SOL    HW173337   9.181   0.289   9.179  0.5748  0.0860 -0.3436
23962SOL    HW273338   9.284   0.181   9.202 -0.0408 -0.3613  0.3660
23963SOL     OW73339   7.846   0.871   8.056 -0.3003  0.2535  0.0820
23963SOL    HW173340   7.791   0.796   8.036  0.2082 -0.3445  0.8623
23963SOL    HW273341   7.929   0.853   8.011 -0.6590  1.0750 -0.9610
23964SOL     OW73342   4.231   1.344   8.246  0.7974  0.3100 -0.4214
23964SOL    HW173343   4.260   1.380   8.163 -0.8537 -0.3840 -1.3333
23964SOL    HW273344   4.183   1.415   8.288  0.6084  0.2866 -0.5996
23965SOL     OW73345   0.626   1.765   2.033  0.0231  0.6045  0.2152
23965SOL    HW173346   0.620   1.819   1.954  1.8856 -0.0214 -0.3910
23965SOL    HW273347   0.682   1.814   2.092  0.7227 -0.0848  0.1379
23966SOL     OW73348   3.122   7.038   3.261  0.8935 -0.0468 -0.0153
23966SOL    HW173349   3.121   7.113   3.320  0.5057 -0.1716  0.1372
23966SOL    HW273350   3.190   6.980   3.296  1.4619  0.4056 -0.3536
23967SOL     OW73351   7.326   1.481   8.915 -0.1760  0.4439  0.1371
23967SOL    HW173352   7.327   1.544   8.843  0.0313  0.4401  0.1381
23967SOL    HW273353   7.417   1.476   8.944 -0.3674  0.9712  0.8622
23968SOL     OW73354   8.686   7.508   2.637  0.2082 -0.6075  0.1677
23968SOL    HW173355   8.741   7.431   2.650 -0.7206 -1.5525 -1.2477
23968SOL    HW273356   8.727   7.556   2.564  0.5840  0.0679  0.8077
23969SOL     OW73357   8.417   3.203   2.916  0.2005  0.6553 -0.2078
23969SOL    HW173358   8.374   3.270   2.969 -1.3474 -0.8056  0.4686
23969SOL    HW273359   8.414   3.237   2.827 -0.6293  1.4573  0.1131
23970SOL     OW73360   4.711   3.872   0.827  0.4650 -0.2372 -0.1415
23970SOL    HW173361   4.656   3.814   0.773  0.8448 -0.9470  0.2256
23970SOL    HW273362   4.755   3.928   0.763  0.4233 -0.6430 -0.5382
23971SOL     OW73363   9.016   5.608   8.467  0.1543 -0.6826 -0.2715
23971SOL    HW173364   8.927   5.598   8.500  0.6351 -1.7994  0.7667
23971SOL    HW273365   9.025   5.702   8.449 -0.8190 -0.3679  0.8113
23972SOL     OW73366   1.247   3.417   8.174 -0.0859 -0.1882  0.2044
23972SOL    HW173367   1.180   3.485   8.168  0.1391  0.2021  1.7038
23972SOL    HW273368   1.321   3.461   8.217  1.9384 -0.0278 -3.1014
23973SOL     OW73369   8.833   4.159   2.757 -0.2477  0.2187 -0.3093
23973SOL    HW173370   8.871   4.211   2.687 -0.9132  1.0538 -0.0628
23973SOL    HW273371   8.783   4.091   2.711  0.8775 -0.4195 -0.6292
23974SOL     OW73372   3.431   6.872   6.415  0.7221  0.1107  0.6682
23974SOL    HW173373   3.396   6.925   6.343  0.6987 -1.3614 -0.4595
23974SOL    HW273374   3.470   6.935   6.475 -1.1124  1.5607  0.4309
23975SOL     OW73375   7.041   4.244   4.938 -0.5037  0.4024  0.2974
23975SOL    HW173376   6.951   4.265   4.961 -0.4069 -0.1029  1.1910
23975SOL    HW273377   7.034   4.176   4.871 -0.7897  1.0689 -0.3514
23976SOL     OW73378   2.990   0.092   7.407  0.8393 -0.3407  0.1308
23976SOL    HW173379   3.053   0.055   7.345  1.4880 -0.2823  0.7433
23976SOL    HW273380   2.948   0.016   7.447  0.7773 -0.3855 -0.0193
23977SOL     OW73381   0.859   3.169   6.616 -0.8697 -0.5735 -0.1726
23977SOL    HW173382   0.852   3.214   6.531 -0.2919 -1.9437 -0.9643
23977SOL    HW273383   0.930   3.215   6.661 -1.3189  0.3014 -0.3231
23978SOL     OW73384   5.137   4.086   6.019 -0.1882 -0.0736  0.2712
23978SOL    HW173385   5.158   4.067   5.928  1.3273  0.1181  0.5517
23978SOL    HW273386   5.222   4.098   6.061 -0.8545 -0.2280  1.7291
23979SOL     OW73387   5.505   1.273   9.024 -0.3350 -0.1673 -0.0173
23979SOL    HW173388   5.480   1.234   9.108  0.5808  0.0280  0.3585
23979SOL    HW273389   5.425   1.272   8.973 -0.6993 -1.1221  0.5384
23980SOL     OW73390   5.176   7.567   7.860  0.3160 -0.0536  0.1547
23980SOL    HW173391   5.232   7.578   7.783  0.0622 -0.8327 -0.1531
23980SOL    HW273392   5.093   7.607   7.835 -0.3340 -1.7801 -0.6523
23981SOL     OW73393   7.878   8.117   2.803  0.1710 -0.0167 -0.3430
23981SOL    HW173394   7.822   8.051   2.845  1.1437 -2.0348 -2.0433
23981SOL    HW273395   7.951   8.067   2.767  2.8524  2.4433  1.2643
23982SOL     OW73396   0.033   3.571   2.012 -0.5650 -0.2636  0.3716
23982SOL    HW173397   0.023   3.589   1.919 -1.0746 -0.7212  0.3262
23982SOL    HW273398   0.009   3.653   2.055  1.0982  0.4140  0.0744
23983SOL     OW73399   1.094   5.863   6.375 -0.2986  0.0900  0.1093
23983SOL    HW173400   1.103   5.841   6.283 -1.2449  0.3859 -0.0629
23983SOL    HW273401   1.049   5.947   6.376  1.2969  0.9799  0.8153
23984SOL     OW73402   2.327   4.318   8.055 -0.1302 -0.6554 -0.1376
23984SOL    HW173403   2.322   4.407   8.090  2.5650 -0.0283 -1.1205
23984SOL    HW273404   2.258   4.316   7.989 -0.8230  0.3926  0.5126
23985SOL     OW73405   1.415   3.233   0.134  0.6192 -0.2629 -0.6251
23985SOL    HW173406   1.446   3.266   0.049  0.1346  3.1420  0.3634
23985SOL    HW273407   1.495   3.209   0.180  1.0188 -0.5494 -1.4338
23986SOL     OW73408   5.751   4.028   2.911 -0.0193 -0.4423 -0.3148
23986SOL    HW173409   5.828   4.070   2.872  0.1726  0.1062  0.6242
23986SOL    HW273410   5.734   3.952   2.855  0.2284  0.3370 -1.4615
23987SOL     OW73411   5.233   5.323   1.742 -0.2776 -0.0580  0.0963
23987SOL    HW173412   5.147   5.366   1.743  0.8768  2.4262 -0.7223
23987SOL    HW273413   5.215   5.233   1.772 -2.7588  1.0964  2.4978
23988SOL     OW73414   1.329   0.569   7.049 -0.2256  0.1763 -0.4101
23988SOL    HW173415   1.398   0.522   7.002 -0.4412 -0.2075 -0.3524
23988SOL    HW273416   1.305   0.641   6.991 -0.1830 -0.0376 -0.6976
23989SOL     OW73417   4.002   3.738   1.262 -0.8668 -0.9429  0.9672
23989SOL    HW173418   4.086   3.696   1.243  0.1602  0.4666  2.1123
23989SOL    HW273419   3.956   3.741   1.178 -0.7257 -3.6709  0.7133
23990SOL     OW73420   7.524   5.718   1.847 -0.4494 -0.9907  0.0148
23990SOL    HW173421   7.528   5.803   1.802 -0.3307 -0.5805  0.7846
23990SOL    HW273422   7.565   5.657   1.786 -0.5876 -0.5079 -0.5741
23991SOL     OW73423   2.811   2.636   7.041  0.5932 -0.6775 -0.7607
23991SOL    HW173424   2.737   2.623   6.981  0.3762  0.3667 -0.7367
23991SOL    HW273425   2.838   2.547   7.066 -0.0989 -1.0890 -1.4444
23992SOL     OW73426   7.665   1.245   0.881 -0.1910 -0.2903  0.5987
23992SOL    HW173427   7.586   1.232   0.830 -0.7005  1.8653  0.7559
23992SOL    HW273428   7.721   1.170   0.859 -2.5616 -2.3553  1.1645
23993SOL     OW73429   6.138   7.397   0.830  0.2177  0.2946 -0.0461
23993SOL    HW173430   6.215   7.354   0.794  0.8786  1.4510 -0.0781
23993SOL    HW273431   6.078   7.326   0.853  1.6229 -0.6785  0.7535
23994SOL     OW73432   0.824   8.913   3.110  0.3718 -0.0090  0.1413
23994SOL    HW173433   0.731   8.897   3.093 -0.2083  0.2657  2.6422
23994SOL    HW273434   0.865   8.905   3.024 -2.0498  0.6441 -1.1846
23995SOL     OW73435   0.422   3.111   3.625  0.2018 -0.0911  0.2462
23995SOL    HW173436   0.341   3.154   3.597  1.4343  0.3751 -2.9664
23995SOL    HW273437   0.408   3.019   3.603  0.5426 -0.0065 -0.3289
23996SOL     OW73438   8.703   6.390   1.253  0.2905  0.1522 -0.4730
23996SOL    HW173439   8.758   6.316   1.279  2.0062  1.4320 -0.3204
23996SOL    HW273440   8.695   6.383   1.158 -0.2671 -0.6864 -0.3717
23997SOL     OW73441   4.738   8.523   1.567 -0.2914 -0.3435  0.4542
23997SOL    HW173442   4.696   8.469   1.501 -0.7453  0.1459  0.3356
23997SOL    HW273443   4.798   8.464   1.612 -1.2913 -1.1257  0.8032
23998SOL     OW73444   9.206   4.682   7.643 -0.6945  0.2659 -0.4923
23998SOL    HW173445   9.291   4.690   7.687 -0.0875  0.4992 -1.6866
23998SOL    HW273446   9.221   4.713   7.554 -1.9800  0.0882 -0.7938
23999SOL     OW73447   1.330   7.347   7.666  0.3503  0.5259 -0.4942
23999SOL    HW173448   1.265   7.277   7.659  1.1731 -0.3176  0.2356
23999SOL    HW273449   1.330   7.371   7.759  0.7786  0.8277 -0.5679
24000SOL     OW73450   8.674   8.585   4.786  0.1868 -0.5430  0.1622
24000SOL    HW173451   8.649   8.589   4.878 -0.7152 -0.0024 -0.0971
24000SOL    HW273452   8.676   8.676   4.758  0.2737 -0.7144 -0.4003
24001SOL     OW73453   0.560   3.490   8.360 -0.4011  0.3558 -0.0207
24001SOL    HW173454   0.506   3.508   8.437 -0.4730  0.8508 -0.1813
24001SOL    HW273455   0.650   3.489   8.392 -0.3145  1.9557 -0.1554
24002SOL     OW73456   6.587   0.606   1.505  0.1150  0.3751  0.2856
24002SOL    HW173457   6.662   0.556   1.540  0.1810  0.3859  0.1608
24002SOL    HW273458   6.537   0.541   1.455  1.8702  1.0429 -2.5480
24003SOL     OW73459   4.789   3.372   3.909 -0.3981  0.4508  0.5161
24003SOL    HW173460   4.874   3.414   3.895 -1.0109  1.8774  0.8866
24003SOL    HW273461   4.748   3.373   3.823 -0.0633 -0.2325  0.3382
24004SOL     OW73462   2.625   0.003   1.953  0.0566 -0.2850  0.2953
24004SOL    HW173463   2.709   0.025   1.914 -0.0349  0.8206  0.6797
24004SOL    HW273464   2.622   0.054   2.034 -0.0964 -1.9084  1.3707
24005SOL     OW73465   4.943   5.697   5.782  0.1720 -0.1333  0.1140
24005SOL    HW173466   5.003   5.694   5.856 -0.4315 -0.2053  0.6108
24005SOL    HW273467   4.879   5.628   5.801  1.3009 -1.7446 -1.6048
24006SOL     OW73468   9.074   4.012   2.774  0.2716 -0.0968  0.1395
24006SOL    HW173469   9.008   4.078   2.794  0.8654  0.6211 -0.2258
24006SOL    HW273470   9.139   4.022   2.843 -0.9098 -2.1224  1.6523
24007SOL     OW73471   3.512   7.718   1.516  0.1988  0.0477  0.9445
24007SOL    HW173472   3.545   7.641   1.562  0.6758 -0.8397 -0.8175
24007SOL    HW273473   3.575   7.734   1.446 -1.0184  0.7358 -0.0473
24008SOL     OW73474   2.453   4.990   5.516  0.1159  0.0478  0.3937
24008SOL    HW173475   2.366   4.955   5.500 -0.2719  0.9260  0.5169
24008SOL    HW273476   2.477   5.033   5.434  0.9686 -1.2449 -0.0699
24009SOL     OW73477   7.231   0.464   1.777  0.4293 -0.2984  0.2479
24009SOL    HW173478   7.267   0.552   1.786  1.2178 -0.5775 -0.0620
24009SOL    HW273479   7.255   0.437   1.688 -0.0748 -0.7103  0.2328
24010SOL     OW73480   2.935   0.070   5.536 -0.4988 -0.2428 -0.1080
24010SOL    HW173481   2.883   0.028   5.604  1.2019 -3.0739 -0.4112
24010SOL    HW273482   3.009   0.110   5.582 -0.3773 -0.4651 -0.1091
24011SOL     OW73483   5.345   6.165   4.785 -0.1988 -0.2014 -0.1807
24011SOL    HW173484   5.285   6.138   4.854 -0.7645  2.1409  0.3151
24011SOL    HW273485   5.430   6.129   4.811 -0.2275  1.2474  2.1827
24012SOL     OW73486   6.469   7.054   1.694 -0.8313  0.6678  0.2828
24012SOL    HW173487   6.502   7.001   1.767  1.0427 -1.6615 -2.0618
24012SOL    HW273488   6.524   7.133   1.694  1.0976 -0.6147 -0.2106
24013SOL     OW73489   7.272   3.484   3.461  0.5270  0.6218  0.1371
24013SOL    HW173490   7.177   3.472   3.455  0.3739  2.0729 -0.7461
24013SOL    HW273491   7.289   3.502   3.553 -0.0558  0.3640  0.2958
24014SOL     OW73492   5.538   8.358   7.512 -0.6072  0.4762 -0.0817
24014SOL    HW173493   5.531   8.394   7.423 -1.1983 -0.0072 -0.2415
24014SOL    HW273494   5.477   8.284   7.512  1.8562 -1.6783 -0.3252
24015SOL     OW73495   5.987   8.731   3.103 -0.3423 -0.9637  0.4375
24015SOL    HW173496   5.988   8.675   3.181  0.5019 -0.7260  0.6159
24015SOL    HW273497   6.002   8.819   3.137 -0.4232 -0.7995  0.0493
24016SOL     OW73498   9.261   7.527   8.068 -0.4087  0.1361  0.1966
24016SOL    HW173499   9.276   7.618   8.045  0.8578 -0.0638  0.1739
24016SOL    HW273500   9.315   7.477   8.006 -0.5253 -0.5957  0.6704
24017SOL     OW73501   4.934   4.766   1.993  0.3114 -0.2955 -0.0240
24017SOL    HW173502   5.014   4.783   2.042  0.9600  0.9926 -1.4394
24017SOL    HW273503   4.962   4.708   1.921 -0.2138 -0.5569 -0.0268
24018SOL     OW73504   7.502   9.012   5.236 -0.4113  0.5099  0.1286
24018SOL    HW173505   7.472   9.086   5.289  0.2149 -0.4334  1.8663
24018SOL    HW273506   7.501   8.937   5.295  0.6663 -0.5277 -1.0962
24019SOL     OW73507   5.403   8.340   1.212 -0.1716  0.4133 -0.3875
24019SOL    HW173508   5.407   8.360   1.119 -1.3892 -1.4872 -0.9047
24019SOL    HW273509   5.363   8.417   1.252 -1.3768  0.5187 -1.7320
24020SOL     OW73510   3.559   2.215   2.139  0.1988  0.4882 -0.1961
24020SOL    HW173511   3.467   2.241   2.145  0.2469  0.4558  0.9935
24020SOL    HW273512   3.578   2.176   2.225  1.2419  0.2388 -0.5286
24021SOL     OW73513   5.488   4.805   1.934  0.1663 -0.4918 -0.2269
24021SOL    HW173514   5.455   4.891   1.963  0.8911 -0.7029  1.3423
24021SOL    HW273515   5.428   4.779   1.864  0.9443  2.0719 -2.0285
24022SOL     OW73516   7.877   7.062   6.996 -0.0943 -0.0104 -0.7027
24022SOL    HW173517   7.793   7.107   7.007 -0.1748 -0.0019 -1.3327
24022SOL    HW273518   7.940   7.118   7.042 -0.4084  0.0616 -0.3538
24023SOL     OW73519   1.618   6.170   5.282  0.5082  0.1528 -0.3609
24023SOL    HW173520   1.563   6.131   5.350 -1.7872  1.3896 -1.3624
24023SOL    HW273521   1.624   6.103   5.215 -0.2463  0.1610 -0.4505
24024SOL     OW73522   3.614   6.944   3.865  0.1813 -0.4392 -0.1456
24024SOL    HW173523   3.541   6.890   3.835  0.1064 -0.0359 -0.7245
24024SOL    HW273524   3.620   6.927   3.959 -1.0728 -0.0076  0.0418
24025SOL     OW73525   1.132   8.471   5.333 -0.1833 -0.0912  0.2047
24025SOL    HW173526   1.148   8.458   5.426  0.0479 -0.5180  0.1098
24025SOL    HW273527   1.042   8.503   5.327 -0.3989 -0.6255  0.5339
24026SOL     OW73528   2.484   6.260   4.871  0.0238 -0.1805  0.1210
24026SOL    HW173529   2.461   6.319   4.800 -0.8232 -0.0160  0.5205
24026SOL    HW273530   2.519   6.182   4.827 -3.6000 -1.5364 -0.7316
24027SOL     OW73531   3.782   1.403   0.557 -0.3624 -0.6279  0.9121
24027SOL    HW173532   3.752   1.451   0.480  0.6742 -2.5418 -0.7854
24027SOL    HW273533   3.840   1.464   0.602  0.4857 -0.0653 -0.8582
24028SOL     OW73534   7.580   5.538   3.171 -0.0205  0.6397 -0.4833
24028SOL    HW173535   7.552   5.584   3.092 -0.4275  2.2386  0.5500
24028SOL    HW273536   7.670   5.569   3.187 -0.3216  1.1546  0.2593
24029SOL     OW73537   5.851   7.284   1.456  0.0381 -0.1120  0.2844
24029SOL    HW173538   5.929   7.299   1.402 -1.8243  1.1437 -2.2760
24029SOL    HW273539   5.855   7.350   1.525  0.6158  0.7662 -0.5772
24030SOL     OW73540   4.670   1.065   1.536  0.0574  0.5421 -0.6475
24030SOL    HW173541   4.649   1.159   1.530  0.3460  0.6043 -0.7088
24030SOL    HW273542   4.585   1.021   1.533 -0.1957  0.8698  0.9862
24031SOL     OW73543   4.149   0.937   6.211 -0.5462  0.0478  0.3845
24031SOL    HW173544   4.123   0.999   6.279 -1.0985  0.3396 -0.0901
24031SOL    HW273545   4.179   0.860   6.259 -1.6429 -0.0373  0.9603
24032SOL     OW73546   3.099   7.187   1.581  0.0701  0.1118  0.0210
24032SOL    HW173547   3.091   7.250   1.652  0.0236 -1.1737  1.2148
24032SOL    HW273548   3.191   7.191   1.555  0.0933  0.5794  0.1791
24033SOL     OW73549   5.634   4.221   4.583 -0.5540  0.0452  0.7840
24033SOL    HW173550   5.543   4.211   4.554 -0.8525  1.5391  1.0910
24033SOL    HW273551   5.684   4.237   4.503 -0.6808 -0.0252  0.6901
24034SOL     OW73552   9.007   8.829   5.381 -0.3476 -0.3811  0.1027
24034SOL    HW173553   9.082   8.827   5.441 -1.0452  0.4239  1.0355
24034SOL    HW273554   8.941   8.774   5.423 -1.0667  0.6866  0.4154
24035SOL     OW73555   5.576   7.260   2.823  0.5393  0.1548  0.0406
24035SOL    HW173556   5.504   7.317   2.798  0.3619 -0.1308 -0.1144
24035SOL    HW273557   5.638   7.317   2.868 -1.1505 -0.0946  2.9554
24036SOL     OW73558   1.109   3.879   1.885  0.1599  0.3385  0.2873
24036SOL    HW173559   1.178   3.917   1.831  0.1634  0.1609  0.1633
24036SOL    HW273560   1.073   3.952   1.934 -0.8906  0.8017 -1.0976
24037SOL     OW73561   5.745   4.054   4.759 -0.6847 -0.4850 -0.5518
24037SOL    HW173562   5.711   4.100   4.836  2.1937  3.2140 -1.1851
24037SOL    HW273563   5.685   4.077   4.688  0.1591  1.6889 -0.6400
24038SOL     OW73564   0.215   2.209   0.000  0.2515  1.0147  0.0287
24038SOL    HW173565   0.123   2.220   0.024 -0.4580 -0.8774 -1.5766
24038SOL    HW273566   0.226   2.265  -0.077  0.5197  1.4044  0.3457
24039SOL     OW73567   9.278   4.160   4.121 -0.6551  0.2035  0.0425
24039SOL    HW173568   9.251   4.116   4.040  1.0416  0.7359 -0.8515
24039SOL    HW273569   9.324   4.238   4.091 -0.5825  0.7565  1.5498
24040SOL     OW73570   8.369   3.657   8.302  0.1658 -0.1224  0.3301
24040SOL    HW173571   8.307   3.588   8.278  0.1185  0.4271 -1.2791
24040SOL    HW273572   8.322   3.711   8.366 -0.7879 -0.1098 -0.3570
24041SOL     OW73573   2.130   0.299   7.940  0.3399  0.1179  0.0583
24041SOL    HW173574   2.218   0.290   7.976  0.1319 -0.8225  0.3378
24041SOL    HW273575   2.109   0.214   7.903 -0.0720  0.6179 -0.9036
24042SOL     OW73576   2.457   9.068   0.059 -0.1674  0.2198  0.1249
24042SOL    HW173577   2.457   9.006   0.131  1.8936 -0.1376 -0.1210
24042SOL    HW273578   2.418   9.020  -0.014 -0.9104  0.0860  0.6106
24043SOL     OW73579   4.681   6.848   0.160 -0.3366  0.2310  0.2914
24043SOL    HW173580   4.637   6.931   0.141 -0.0048  0.4095  0.3081
24043SOL    HW273581   4.773   6.864   0.142 -0.1721  0.0664  0.9322
24044SOL     OW73582   3.611   1.343   8.839 -0.0044  0.2826 -0.0149
24044SOL    HW173583   3.558   1.422   8.849  0.7893  0.7870  0.2547
24044SOL    HW273584   3.663   1.339   8.919  0.1377 -0.3867 -0.1359
24045SOL     OW73585   2.413   6.639   3.267 -0.4526 -0.2589  0.4202
24045SOL    HW173586   2.435   6.560   3.317 -0.8358  0.6621  2.1070
24045SOL    HW273587   2.467   6.708   3.305 -1.3044  0.6262  0.0806
24046SOL     OW73588   7.983   7.354   8.577 -0.1196  0.0057 -0.1549
24046SOL    HW173589   7.964   7.400   8.495  0.9248 -0.3526 -0.6179
24046SOL    HW273590   8.011   7.422   8.637 -0.5710  0.2281 -0.1928
24047SOL     OW73591   4.901   3.923   6.360  0.2391  0.3128 -0.4923
24047SOL    HW173592   4.813   3.909   6.325 -0.7062  3.0054  0.5079
24047SOL    HW273593   4.898   3.886   6.449 -0.6057  2.1847  0.2991
24048SOL     OW73594   8.820   4.672   5.107 -0.0005 -0.3381  0.4118
24048SOL    HW173595   8.913   4.659   5.091  0.6271  2.4630  1.1311
24048SOL    HW273596   8.815   4.700   5.199 -1.4097  0.5097  0.1142
24049SOL     OW73597   1.772   7.671   0.916 -1.1648 -0.3846  0.1842
24049SOL    HW173598   1.783   7.727   0.839  1.3775 -1.1723 -0.1265
24049SOL    HW273599   1.738   7.588   0.881 -0.2050 -0.6721 -0.1126
24050SOL     OW73600   4.256   2.986   5.549 -0.2027 -0.4467 -0.7298
24050SOL    HW173601   4.201   2.958   5.622  1.0238  0.3415  0.5530
24050SOL    HW273602   4.196   2.992   5.475 -1.7392 -0.1731  0.4706
24051SOL     OW73603   1.130   0.125   4.346  0.1755  0.4016 -0.2079
24051SOL    HW173604   1.059   0.185   4.325 -0.7172 -0.0631  1.3282
24051SOL    HW273605   1.123   0.054   4.281  0.5968  1.3997 -1.3808
24052SOL     OW73606   7.439   3.983   5.573  0.0674  0.2921 -0.4256
24052SOL    HW173607   7.424   4.037   5.496  0.6932 -1.7211 -2.0362
24052SOL    HW273608   7.386   3.905   5.559  2.2434 -1.3375 -0.1991
24053SOL     OW73609   4.760   1.207   7.188 -0.6406  0.0696  0.0302
24053SOL    HW173610   4.770   1.175   7.278 -2.8780  1.2518  0.7721
24053SOL    HW273611   4.743   1.301   7.198  0.5937  0.5368 -1.7606
24054SOL     OW73612   5.251   0.256   6.284 -0.2500 -0.4780  0.1325
24054SOL    HW173613   5.201   0.209   6.350  0.8225 -1.5357  0.2193
24054SOL    HW273614   5.222   0.220   6.200  0.6082 -1.3586  0.2013
24055SOL     OW73615   5.815   6.601   3.510 -0.3690  0.6641  0.0913
24055SOL    HW173616   5.867   6.627   3.587  1.8650 -0.7879 -0.8404
24055SOL    HW273617   5.765   6.525   3.540 -0.1191  0.5925  0.3310
24056SOL     OW73618   7.659   4.144   6.597 -0.4421  0.1489 -0.5454
24056SOL    HW173619   7.624   4.221   6.642  2.7073  0.4216  1.7164
24056SOL    HW273620   7.751   4.141   6.621 -0.0086 -3.3467 -2.0146
24057SOL     OW73621   0.934   0.961   7.937  0.0355 -0.0567 -0.2601
24057SOL    HW173622   0.847   0.956   7.977  0.5773  1.1240  1.1521
24057SOL    HW273623   0.933   1.042   7.887 -0.0326 -0.6264 -1.2165
24058SOL     OW73624   5.060   6.388   4.841  0.3830  0.6335  0.0599
24058SOL    HW173625   5.128   6.445   4.806  0.7727 -0.4722 -1.0641
24058SOL    HW273626   5.106   6.307   4.864 -0.5069 -0.1054 -0.6595
24059SOL     OW73627   4.400   4.844   5.658 -0.2263 -0.3516  0.3005
24059SOL    HW173628   4.481   4.817   5.616  0.0846  0.6637  0.2280
24059SOL    HW273629   4.331   4.816   5.599  0.1697  0.4122 -0.5477
24060SOL     OW73630   6.351   9.081   1.778  0.2311  0.5194  0.3331
24060SOL    HW173631   6.367   9.028   1.856  0.7896  1.1961  0.6916
24060SOL    HW273632   6.438   9.114   1.753 -0.0622  1.0302 -0.0472
24061SOL     OW73633   4.531   1.442   6.094 -0.5384 -0.2936  0.0646
24061SOL    HW173634   4.580   1.407   6.020  0.3008  1.5476 -0.2951
24061SOL    HW273635   4.564   1.392   6.170  0.4898 -0.4160 -0.4419
24062SOL     OW73636   4.194   7.445   7.122  0.1717  0.1535  0.2087
24062SOL    HW173637   4.281   7.419   7.150  0.0717 -0.1802  0.2117
24062SOL    HW273638   4.186   7.412   7.033 -0.1086 -0.1956  0.3580
24063SOL     OW73639   8.363   5.927   1.016 -0.0162 -0.1719  0.2871
24063SOL    HW173640   8.378   5.900   1.106 -0.2596  0.2023  0.4414
24063SOL    HW273641   8.281   5.885   0.991 -0.9752  1.2563  0.8871
24064SOL     OW73642   4.639   4.075   3.891 -0.0406  0.1250 -0.7460
24064SOL    HW173643   4.595   3.999   3.854  0.1530  0.1539 -1.0415
24064SOL    HW273644   4.726   4.075   3.850  1.0022 -1.0619  1.2848
24065SOL     OW73645   8.762   8.739   1.908  0.4296  0.4004 -0.1868
24065SOL    HW173646   8.745   8.761   1.816  1.7394 -1.8064 -1.0069
24065SOL    HW273647   8.746   8.822   1.954  1.1661  1.9823 -2.5443
24066SOL     OW73648   2.938   6.000   0.378  0.0659  0.1497 -1.2218
24066SOL    HW173649   2.946   6.088   0.414 -0.5698 -0.0115 -0.6664
24066SOL    HW273650   3.028   5.974   0.359  0.3257  0.6335 -0.6914
24067SOL     OW73651   8.358   4.048   0.910 -0.0506 -0.1626  0.3175
24067SOL    HW173652   8.390   4.124   0.959 -1.5589  0.4562  0.3940
24067SOL    HW273653   8.279   4.021   0.956 -0.9940 -0.1330 -1.2280
24068SOL     OW73654   0.996   2.796   7.863 -0.3471  0.0895 -0.3017
24068SOL    HW173655   0.921   2.843   7.830 -0.3845  0.3356  0.1246
24068SOL    HW273656   1.048   2.862   7.910  0.5674  0.1065 -1.2965
24069SOL     OW73657   1.925   7.001   5.737 -0.4229  0.4912  0.1203
24069SOL    HW173658   1.872   7.077   5.762 -4.1397 -1.4970 -1.0902
24069SOL    HW273659   1.911   6.937   5.806  0.1079 -0.2345 -0.4181
24070SOL     OW73660   5.949   1.641   7.463  0.4303 -0.7289  0.0195
24070SOL    HW173661   5.940   1.567   7.404  1.2275 -1.3035  0.6039
24070SOL    HW273662   5.869   1.692   7.450 -1.3282 -2.9653  1.3673
24071SOL     OW73663   8.842   1.637   3.577  0.0762  0.2792 -0.6079
24071SOL    HW173664   8.793   1.712   3.543 -0.1957  0.2365 -0.3154
24071SOL    HW273665   8.865   1.661   3.666  0.2484  0.1379 -0.6136
24072SOL     OW73666   2.527   3.635   3.535 -0.4343  0.8772  0.4913
24072SOL    HW173667   2.519   3.567   3.468 -2.6236  2.2497 -0.7584
24072SOL    HW273668   2.621   3.639   3.554  0.0240 -0.8484 -1.0997
24073SOL     OW73669   7.545   3.333   1.471  0.3356 -0.1010 -0.3121
24073SOL    HW173670   7.487   3.282   1.528 -0.5716  0.8778 -0.3156
24073SOL    HW273671   7.489   3.404   1.438  0.5709 -1.0933 -3.0897
24074SOL     OW73672   2.697   8.105   8.022 -0.2525 -0.2060 -0.1339
24074SOL    HW173673   2.666   8.085   8.110  1.3189 -1.4337  0.1763
24074SOL    HW273674   2.691   8.201   8.016  0.3858 -0.0109  1.6267
24075SOL     OW73675   8.075   0.158   8.848 -0.3924 -0.1286 -0.1385
24075SOL    HW173676   8.166   0.188   8.851 -0.3904  0.0693 -1.4787
24075SOL    HW273677   8.043   0.169   8.938  0.6996  0.4332  0.2023
24076SOL     OW73678   6.771   6.996   7.078 -0.2692  0.0642 -0.2039
24076SOL    HW173679   6.857   7.034   7.058 -0.8101  0.9773 -0.8578
24076SOL    HW273680   6.748   6.946   6.999 -0.3643 -0.1314 -0.0527
24077SOL     OW73681   5.735   5.817   8.320  0.6286 -0.1679 -0.5221
24077SOL    HW173682   5.729   5.826   8.415  0.4204 -1.8349 -0.3348
24077SOL    HW273683   5.681   5.887   8.285 -1.7015 -1.2399  0.6724
24078SOL     OW73684   0.410   6.142   1.001 -0.1003 -0.0182 -0.0625
24078SOL    HW173685   0.377   6.124   1.089 -1.2996 -0.5327 -0.5854
24078SOL    HW273686   0.357   6.216   0.970  0.5533  0.3870 -0.2146
24079SOL     OW73687   7.692   8.326   8.452  0.0116 -0.3447  0.2421
24079SOL    HW173688   7.651   8.371   8.527  2.5338 -0.4327  1.8002
24079SOL    HW273689   7.737   8.396   8.405  0.3325 -0.6232  0.1386
24080SOL     OW73690   2.099   7.273   2.730  0.2977 -0.3125  0.2865
24080SOL    HW173691   2.142   7.225   2.801 -2.3863 -0.9520  1.6295
24080SOL    HW273692   2.039   7.333   2.775  0.1729  0.9242 -1.4498
24081SOL     OW73693   2.668   1.513   0.773  0.3083  0.0489  0.3636
24081SOL    HW173694   2.701   1.603   0.780  0.8598  0.1873 -2.6704
24081SOL    HW273695   2.744   1.462   0.744 -0.8858 -0.5742 -1.9181
24082SOL     OW73696   4.683   8.081   1.393 -0.4644  0.3384  0.0470
24082SOL    HW173697   4.714   8.164   1.428 -0.0106  0.1362  0.1435
24082SOL    HW273698   4.709   8.083   1.301 -0.8582  0.4930 -0.0610
24083SOL     OW73699   1.930   2.801   1.959 -0.3933  0.2556 -0.3565
24083SOL    HW173700   1.968   2.885   1.983 -0.5773  0.9289 -2.2911
24083SOL    HW273701   1.896   2.814   1.870  0.6800 -2.2092 -1.2069
24084SOL     OW73702   1.402   2.424   6.004  0.3540  0.1408  0.9260
24084SOL    HW173703   1.427   2.332   6.013 -0.0949 -0.3289 -1.6586
24084SOL    HW273704   1.308   2.425   6.017  0.0031 -0.2189 -1.1887
24085SOL     OW73705   0.381   0.836   0.504  0.6792 -0.6337  0.2738
24085SOL    HW173706   0.365   0.789   0.423 -1.5763  0.5001 -0.0169
24085SOL    HW273707   0.474   0.823   0.522  1.3047 -0.6806 -2.6220
24086SOL     OW73708   7.932   0.336   8.690 -0.7067 -0.3130  0.3751
24086SOL    HW173709   7.909   0.276   8.620 -1.5335 -0.2481  0.5724
24086SOL    HW273710   7.987   0.285   8.750 -1.1326 -0.7777  0.3740
24087SOL     OW73711   6.230   0.500   7.201 -0.0951 -0.0264 -0.4049
24087SOL    HW173712   6.246   0.431   7.136 -0.0053  0.2590 -0.6908
24087SOL    HW273713   6.200   0.453   7.279 -0.8711 -0.3272 -0.8691
24088SOL     OW73714   5.587   2.838   7.909  0.5187  0.0638 -0.4731
24088SOL    HW173715   5.678   2.838   7.877  0.7581  1.0767  0.1820
24088SOL    HW273716   5.591   2.784   7.988  0.8304  1.1787  0.2882
24089SOL     OW73717   8.971   8.173   5.261 -0.1742  0.3000  0.2464
24089SOL    HW173718   8.961   8.159   5.167 -1.3619 -0.0261  0.4074
24089SOL    HW273719   8.896   8.227   5.286  0.2093  0.5141  0.9895
24090SOL     OW73720   5.762   3.566   3.077  0.8145  0.1579  0.3232
24090SOL    HW173721   5.701   3.493   3.083 -1.2840  1.8966  1.9694
24090SOL    HW273722   5.728   3.620   3.005 -0.5927  1.8829  2.1799
24091SOL     OW73723   6.813   8.254   7.455  0.0446 -0.0594  0.1349
24091SOL    HW173724   6.768   8.337   7.470 -0.3752 -0.0402 -1.1019
24091SOL    HW273725   6.813   8.210   7.540 -0.5041  0.8340  0.6038
24092SOL     OW73726   0.918   2.379   1.398 -0.0899  0.0084 -0.0302
24092SOL    HW173727   0.910   2.470   1.368  1.2027  0.0752 -0.2381
24092SOL    HW273728   0.994   2.381   1.457  0.2552 -1.0391 -0.4330
24093SOL     OW73729   0.982   8.188   8.503 -0.0149  0.2113 -0.1669
24093SOL    HW173730   0.995   8.096   8.480  1.0100  0.1798  0.4941
24093SOL    HW273731   0.965   8.230   8.419 -0.5403 -0.5777 -0.4735
24094SOL     OW73732   2.363   6.381   7.477  0.4743  0.5194  0.0109
24094SOL    HW173733   2.300   6.373   7.406 -0.5216  3.6384  0.3684
24094SOL    HW273734   2.363   6.295   7.519 -0.6865 -0.6885 -2.2849
24095SOL     OW73735   4.183   4.833   4.738  0.3952  0.0100 -0.1441
24095SOL    HW173736   4.187   4.920   4.777  1.4517  0.0665 -0.3501
24095SOL    HW273737   4.261   4.788   4.770  0.1992 -0.6480 -0.5482
24096SOL     OW73738   6.524   3.492   1.542  0.1188  0.0136  0.7201
24096SOL    HW173739   6.516   3.428   1.612 -3.4774 -1.5559 -0.8862
24096SOL    HW273740   6.553   3.442   1.466 -1.2373  0.5613 -0.1921
24097SOL     OW73741   2.488   8.793   4.424  0.0529 -0.0491  0.3669
24097SOL    HW173742   2.530   8.871   4.461 -1.0775  0.9415 -0.3841
24097SOL    HW273743   2.464   8.818   4.335  0.2437 -1.4798 -0.1220
24098SOL     OW73744   2.448   6.556   1.085 -0.0797  0.1813 -0.1740
24098SOL    HW173745   2.467   6.472   1.042 -1.1895 -1.8911  2.9816
24098SOL    HW273746   2.534   6.588   1.113  0.7619  1.8738 -3.9544
24099SOL     OW73747   4.852   5.548   4.340 -0.1425  0.6682  0.6855
24099SOL    HW173748   4.762   5.548   4.309  0.6045  0.4267 -1.6662
24099SOL    HW273749   4.869   5.639   4.362 -0.6323  0.9193  0.0685
24100SOL     OW73750   7.138   3.600   5.300 -0.4626 -0.0937  0.1868
24100SOL    HW173751   7.134   3.619   5.206 -2.2114 -0.3166  0.1866
24100SOL    HW273752   7.122   3.506   5.306  0.3182 -0.2053  0.6812
24101SOL     OW73753   3.620   4.566   7.571  0.2171 -0.5556  0.0240
24101SOL    HW173754   3.582   4.598   7.653  0.8505  0.5933 -0.1136
24101SOL    HW273755   3.666   4.485   7.595 -1.1785 -1.2616  0.4328
24102SOL     OW73756   5.105   5.871   4.713 -0.6209  0.1653  0.9021
24102SOL    HW173757   5.055   5.950   4.735 -3.5618 -0.5967 -2.2100
24102SOL    HW273758   5.050   5.798   4.744 -1.5636 -0.6975 -2.3927
24103SOL     OW73759   3.447   6.458   3.250 -0.1956  0.4346  0.4423
24103SOL    HW173760   3.362   6.440   3.289  0.5907 -2.7280  1.0423
24103SOL    HW273761   3.504   6.477   3.325  0.7454 -3.1277  0.8488
24104SOL     OW73762   8.055   4.711   1.589 -0.3392 -0.1377 -0.1024
24104SOL    HW173763   8.124   4.667   1.639  0.7822  0.5066 -1.0233
24104SOL    HW273764   8.087   4.709   1.498 -0.8399  1.4639 -0.3379
24105SOL     OW73765   8.404   9.275   4.699  0.2078  0.0208 -0.5378
24105SOL    HW173766   8.387   9.198   4.643 -0.8538  0.4190 -0.7676
24105SOL    HW273767   8.487   9.253   4.743  0.5936 -0.7051 -1.5633
24106SOL     OW73768   3.323   8.674   3.351 -0.9959 -0.1541  0.2337
24106SOL    HW173769   3.362   8.685   3.438  1.5892  2.0382 -1.0752
24106SOL    HW273770   3.270   8.753   3.338  1.8178  1.6089 -1.5835
24107SOL     OW73771   3.035   3.079   1.258  0.3908 -0.2241 -0.5241
24107SOL    HW173772   3.048   3.034   1.342 -0.9451 -0.4302 -0.4078
24107SOL    HW273773   3.008   3.167   1.282 -1.9434 -0.8349 -0.6644
24108SOL     OW73774   1.736   0.183   5.626 -0.5114 -0.5600 -0.2179
24108SOL    HW173775   1.812   0.140   5.587  0.8889  1.3173  0.2670
24108SOL    HW273776   1.773   0.234   5.699 -2.3948 -0.4112  0.6768
24109SOL     OW73777   0.208   1.148   4.541 -0.0853  0.0088  0.0126
24109SOL    HW173778   0.199   1.166   4.634 -0.0840  1.7437 -0.2801
24109SOL    HW273779   0.248   1.061   4.536 -1.5502 -0.8141  1.5860
24110SOL     OW73780   4.935   7.982   3.108 -0.5725 -0.0548 -1.0942
24110SOL    HW173781   4.883   7.902   3.098 -0.9420  0.2680 -1.8218
24110SOL    HW273782   4.990   7.985   3.030 -0.0299  0.0327 -0.7199
24111SOL     OW73783   0.668   4.503   0.319  0.7731  0.2538 -0.2198
24111SOL    HW173784   0.638   4.451   0.393  0.1335 -0.8520 -1.2200
24111SOL    HW273785   0.739   4.451   0.280 -0.1671 -0.1142 -1.4969
24112SOL     OW73786   2.638   0.002   7.324 -0.2392 -0.4193 -0.6890
24112SOL    HW173787   2.619   0.012   7.418  0.7536  0.8790 -0.6116
24112SOL    HW273788   2.561   0.038   7.280  0.4162  1.4934 -0.3570
24113SOL     OW73789   6.629   8.960   2.776 -0.0532 -0.3860  0.3309
24113SOL    HW173790   6.654   8.874   2.809 -0.4754 -1.5906 -2.2128
24113SOL    HW273791   6.546   8.944   2.730 -0.9571  1.7192  1.1369
24114SOL     OW73792   0.837   0.942   8.925  0.1107 -0.2198  0.2651
24114SOL    HW173793   0.879   0.997   8.859 -1.1166  0.6161  0.1514
24114SOL    HW273794   0.885   0.960   9.006  0.3630  0.2574  0.0124
24115SOL     OW73795   3.266   7.343   4.490  0.2368  0.9971  0.0522
24115SOL    HW173796   3.228   7.360   4.404  1.5331  1.4101 -0.4704
24115SOL    HW273797   3.197   7.298   4.539 -0.5955  0.9500 -1.1250
24116SOL     OW73798   4.084   5.191   5.490  0.6925  0.1195  0.0178
24116SOL    HW173799   4.045   5.149   5.413 -0.2100 -0.1502  0.6160
24116SOL    HW273800   4.013   5.196   5.553  1.4170  0.3930  0.8209
24117SOL     OW73801   6.749   4.214   1.295  0.3546 -0.2060  0.5189
24117SOL    HW173802   6.804   4.164   1.235  1.2700  0.6264  0.6510
24117SOL    HW273803   6.708   4.147   1.351  0.0921 -0.9302 -0.5098
24118SOL     OW73804   7.613   1.104   0.397 -0.1333 -0.2066  0.1566
24118SOL    HW173805   7.696   1.056   0.394 -0.5870 -1.0646  0.8214
24118SOL    HW273806   7.593   1.112   0.490 -1.1950 -0.7547 -0.0021
24119SOL     OW73807   1.389   2.000   5.012 -0.4600 -0.8828  0.2503
24119SOL    HW173808   1.467   1.998   4.957  0.2498  0.1724  1.1642
24119SOL    HW273809   1.394   2.084   5.057  1.1915 -3.1773  4.9783
24120SOL     OW73810   1.851   3.737   9.195  0.2514  0.4123  0.0040
24120SOL    HW173811   1.879   3.826   9.214  1.6174 -0.5874  3.5276
24120SOL    HW273812   1.930   3.692   9.165  0.3502 -0.2730  1.2036
24121SOL     OW73813   5.175   3.379   6.831  0.3237 -0.2252 -0.2195
24121SOL    HW173814   5.243   3.382   6.898 -1.6272  0.2479  1.8707
24121SOL    HW273815   5.219   3.346   6.752  2.5036 -1.8661  1.5669
24122SOL     OW73816   5.595   3.802   3.919 -0.6299 -0.4028  0.4109
24122SOL    HW173817   5.570   3.740   3.987 -0.6706 -1.4243 -0.4968
24122SOL    HW273818   5.545   3.774   3.842  0.7450 -0.3914 -0.5232
24123SOL     OW73819   9.111   4.937   5.403 -0.2365 -1.1554 -0.0601
24123SOL    HW173820   9.122   4.995   5.327 -0.6196  0.6756  1.2109
24123SOL    HW273821   9.097   4.997   5.476  0.1615 -2.8720  1.4768
24124SOL     OW73822   8.867   8.869   0.200 -0.3093  0.2429  0.1645
24124SOL    HW173823   8.830   8.933   0.262 -0.3129 -0.2361  0.6608
24124SOL    HW273824   8.849   8.906   0.114  0.2113  1.2108  0.4562
24125SOL     OW73825   8.652   0.567   6.730 -0.8045 -0.0378 -0.7795
24125SOL    HW173826   8.596   0.566   6.807  0.1181  1.0132 -0.0700
24125SOL    HW273827   8.688   0.655   6.727  0.4284 -0.5367 -1.4837
24126SOL     OW73828   2.123   6.937   7.096  0.7746 -0.1453  0.3867
24126SOL    HW173829   2.113   6.986   7.015 -1.5051  0.4071  0.9186
24126SOL    HW273830   2.117   6.845   7.070  0.8627  0.0040 -0.1667
24127SOL     OW73831   0.318   0.142   6.753 -0.0722  0.6978  0.1008
24127SOL    HW173832   0.287   0.081   6.821 -2.0135 -0.2115 -1.5069
24127SOL    HW273833   0.411   0.123   6.744  0.1440  0.5411  2.1605
24128SOL     OW73834   0.919   4.070   8.025 -0.3270  0.4752  0.0425
24128SOL    HW173835   0.947   4.156   8.058 -0.7412  0.3099  0.8586
24128SOL    HW273836   0.994   4.037   7.976  0.8713  0.1237  1.9911
24129SOL     OW73837   5.536   1.322   1.679  0.5118  0.0969 -0.4998
24129SOL    HW173838   5.614   1.269   1.691  0.3373 -0.1115 -0.2667
24129SOL    HW273839   5.554   1.375   1.602  2.3265  2.6276  1.4987
24130SOL     OW73840   7.805   0.968   4.436  0.1745  0.1405 -0.2150
24130SOL    HW173841   7.741   1.027   4.395  1.7006  2.8007  0.9957
24130SOL    HW273842   7.759   0.933   4.513 -0.2897  0.9220 -0.1279
24131SOL     OW73843   4.036   4.960   8.538 -0.0964 -0.1458 -0.1555
24131SOL    HW173844   4.017   4.891   8.475  0.1134  0.1518 -0.5488
24131SOL    HW273845   3.974   5.030   8.516 -1.8519 -1.0337  1.6468
24132SOL     OW73846   5.200   6.016   8.739  0.7079  0.2239  0.1641
24132SOL    HW173847   5.140   6.090   8.732  1.0158  0.4618 -0.0278
24132SOL    HW273848   5.206   5.981   8.650  2.2989  1.3775 -0.2262
24133SOL     OW73849   2.846   0.495   0.927  0.5986  0.2630 -0.0754
24133SOL    HW173850   2.881   0.520   1.013  0.2994  1.0442 -0.1741
24133SOL    HW273851   2.766   0.446   0.946  1.3731 -0.9728  0.1312
24134SOL     OW73852   5.153   1.960   5.846  0.1906  0.4249  0.3731
24134SOL    HW173853   5.223   1.897   5.831  0.1867 -0.0559  2.0789
24134SOL    HW273854   5.147   1.965   5.942  0.3925  3.2268  0.3171
24135SOL     OW73855   1.475   8.416   3.439  0.9534 -0.9697  0.9318
24135SOL    HW173856   1.562   8.428   3.399  0.8258 -0.7923  0.7044
24135SOL    HW273857   1.427   8.495   3.414  0.4505 -1.4556  0.3343
24136SOL     OW73858   7.589   0.792   1.928 -0.1076 -0.6440 -0.1400
24136SOL    HW173859   7.619   0.795   2.019  1.6307  2.8309 -0.6547
24136SOL    HW273860   7.665   0.760   1.879 -0.2649 -0.3840 -0.5615
24137SOL     OW73861   0.647   8.819   8.927 -0.4781 -0.0860  0.2686
24137SOL    HW173862   0.707   8.828   9.001 -1.3142  0.2458  0.9149
24137SOL    HW273863   0.587   8.749   8.953 -0.6739 -0.0879 -0.1753
24138SOL     OW73864   8.154   8.631   4.546  0.1455  0.3792 -0.3647
24138SOL    HW173865   8.245   8.642   4.572  0.1885 -1.0326  0.1746
24138SOL    HW273866   8.105   8.633   4.628 -0.3326  1.1531 -0.6523
24139SOL     OW73867   2.794   4.000   6.409 -0.1707  0.2359  0.0392
24139SOL    HW173868   2.837   4.049   6.479  2.5959 -2.3080  0.3265
24139SOL    HW273869   2.836   4.030   6.329  0.1429 -0.2515  0.0149
24140SOL     OW73870   8.864   2.361   0.138 -0.1436 -0.0939 -0.8661
24140SOL    HW173871   8.898   2.295   0.199 -1.9890 -1.4211 -1.1706
24140SOL    HW273872   8.941   2.412   0.113  0.8311 -0.0611  1.8484
24141SOL     OW73873   8.363   7.791   2.560  0.5342 -0.3073 -0.3614
24141SOL    HW173874   8.286   7.832   2.520  0.3678  0.1904  0.4491
24141SOL    HW273875   8.395   7.731   2.493 -1.7526 -2.0759  0.0189
24142SOL     OW73876   5.817   4.373   7.781 -0.6022  0.3505 -0.1039
24142SOL    HW173877   5.828   4.281   7.755 -2.4190  0.9149 -3.3052
24142SOL    HW273878   5.831   4.372   7.876  1.1338 -2.9107 -0.2520
24143SOL     OW73879   7.671   8.424   4.143  0.4151 -0.2424  0.1398
24143SOL    HW173880   7.619   8.504   4.148 -1.6609 -1.3050 -2.1919
24143SOL    HW273881   7.734   8.432   4.214 -0.1216  3.1287  0.3957
24144SOL     OW73882   0.657   6.277   5.005 -0.2782  0.0021  0.2164
24144SOL    HW173883   0.700   6.270   5.090 -0.7189 -3.0784  0.2778
24144SOL    HW273884   0.715   6.334   4.954  1.0496  0.2689  1.9298
24145SOL     OW73885   8.858   7.292   2.689  0.5451  0.3018 -0.0509
24145SOL    HW173886   8.889   7.257   2.605 -0.8564 -0.1402 -0.4168
24145SOL    HW273887   8.919   7.258   2.754  1.1797 -0.0233 -0.8007
24146SOL     OW73888   3.970   2.257   1.854 -0.1160 -0.0150  0.1338
24146SOL    HW173889   3.883   2.284   1.825  0.3076  1.4760  0.1835
24146SOL    HW273890   3.962   2.162   1.867 -1.0091 -0.3448 -2.3371
24147SOL     OW73891   6.483   8.187   7.540  0.0346 -0.0239  0.4504
24147SOL    HW173892   6.529   8.242   7.477  0.0290  0.1252  0.5775
24147SOL    HW273893   6.535   8.193   7.620 -0.1041 -0.0023  0.5390
24148SOL     OW73894   4.133   8.316   3.262  0.1027  0.5620 -0.6863
24148SOL    HW173895   4.110   8.407   3.281 -1.1949  0.6258 -2.2761
24148SOL    HW273896   4.083   8.264   3.324 -2.7426  0.8131 -2.5894
24149SOL     OW73897   3.651   4.028   3.773  0.3137  0.6899 -0.0560
24149SOL    HW173898   3.671   3.995   3.686  1.2394 -0.5739  0.6090
24149SOL    HW273899   3.732   4.068   3.803  0.6735 -0.8011  1.0516
24150SOL     OW73900   4.752   4.098   5.813 -0.3909  0.0484  0.1336
24150SOL    HW173901   4.682   4.153   5.851 -0.8104 -0.6258  0.3539
24150SOL    HW273902   4.809   4.160   5.768 -0.4877  0.7488  0.9436
24151SOL     OW73903   0.687   8.492   4.284  0.4738 -0.3589  0.4155
24151SOL    HW173904   0.705   8.583   4.307  0.8507 -0.6640  1.3722
24151SOL    HW273905   0.628   8.461   4.354  0.1440 -0.7768 -0.0427
24152SOL     OW73906   3.360   2.794   8.581  0.1004 -0.2449  0.3994
24152SOL    HW173907   3.412   2.852   8.525  0.2097  0.2756  1.0237
24152SOL    HW273908   3.418   2.775   8.655 -0.2340 -0.4876  0.5999
24153SOL     OW73909   9.063   2.943   2.923 -0.4401  0.0791  0.0830
24153SOL    HW173910   9.095   2.885   2.853  0.9211 -0.0734  0.8082
24153SOL    HW273911   9.084   3.031   2.893  2.4390 -0.0803  1.3240
24154SOL     OW73912   5.651   3.246   5.563 -0.2492 -0.0924 -0.0383
24154SOL    HW173913   5.633   3.218   5.653  1.3273  0.0550  0.3391
24154SOL    HW273914   5.733   3.203   5.541 -1.7961 -2.1695 -2.3256
24155SOL     OW73915   2.783   7.419   8.657  0.8185  0.2234  0.2366
24155SOL    HW173916   2.782   7.469   8.739 -0.2220  3.5099 -1.6047
24155SOL    HW273917   2.731   7.341   8.676  2.5572 -0.3639  3.2781
24156SOL     OW73918   8.122   2.947   6.606  0.1440 -0.1458 -0.1898
24156SOL    HW173919   8.179   2.982   6.675 -2.5356  2.1569  1.0391
24156SOL    HW273920   8.090   2.864   6.641  1.8019 -0.9348 -0.4359
24157SOL     OW73921   4.514   3.420   6.294 -0.1455  0.5570  0.0412
24157SOL    HW173922   4.483   3.454   6.378  2.6784  0.8392  1.0630
24157SOL    HW273923   4.584   3.358   6.316  0.9473  0.9106 -2.0949
24158SOL     OW73924   2.371   0.267   2.404 -0.3658  0.1610  0.2835
24158SOL    HW173925   2.349   0.248   2.495 -0.3769 -0.9319  0.0658
24158SOL    HW273926   2.460   0.304   2.408  0.0681 -0.8856  0.6558
24159SOL     OW73927   6.615   1.674   8.924  0.4471  0.4260 -0.2410
24159SOL    HW173928   6.686   1.633   8.974  0.3967  1.2161  0.5121
24159SOL    HW273929   6.606   1.761   8.963 -0.2879  0.6867 -0.9697
24160SOL     OW73930   7.401   0.858   0.135  0.2638  0.2654  0.2139
24160SOL    HW173931   7.383   0.953   0.133 -0.7610  0.0747 -0.3034
24160SOL    HW273932   7.375   0.827   0.049 -0.0310 -0.5964  0.6027
24161SOL     OW73933   4.528   2.436   0.787  1.2398  0.1253 -0.2054
24161SOL    HW173934   4.487   2.433   0.701  1.0577 -0.5796 -0.1026
24161SOL    HW273935   4.473   2.494   0.838  0.6206 -0.4565 -0.2011
24162SOL     OW73936   6.288   8.476   5.700 -0.0575  0.1250 -0.2179
24162SOL    HW173937   6.224   8.428   5.649  1.0030  1.6627 -3.2243
24162SOL    HW273938   6.371   8.463   5.653  0.4425  3.9988 -0.7239
24163SOL     OW73939   6.619   0.166   5.801 -0.4151 -0.5559 -0.2238
24163SOL    HW173940   6.542   0.110   5.811 -1.1366  0.6026  1.2568
24163SOL    HW273941   6.590   0.236   5.742  0.4190 -1.5683 -1.9094
24164SOL     OW73942   1.453   3.350   5.874  0.0126 -0.0349 -0.5774
24164SOL    HW173943   1.408   3.288   5.932 -2.1328  1.1876 -0.8025
24164SOL    HW273944   1.410   3.434   5.892  1.2717  0.9301 -1.8963
24165SOL     OW73945   9.089   0.006   6.213  0.6330 -0.5397  0.3690
24165SOL    HW173946   9.156   0.001   6.282  1.0608  0.0602  0.0218
24165SOL    HW273947   9.047   0.091   6.227 -1.8365 -1.9422  2.1376
24166SOL     OW73948   3.622   9.005   8.350 -0.1799 -0.1517  0.0379
24166SOL    HW173949   3.639   9.074   8.413  2.1338 -0.6212  0.0321
24166SOL    HW273950   3.530   9.016   8.325 -0.3808  1.7095  1.4331
24167SOL     OW73951   0.465   6.926   1.119 -0.1989  0.1754 -0.2467
24167SOL    HW173952   0.507   6.989   1.060  0.4267  0.2539  0.2688
24167SOL    HW273953   0.375   6.956   1.127 -0.0016  0.7871 -0.3109
24168SOL     OW73954   4.141   2.042   2.995 -0.1418  0.3875  0.4043
24168SOL    HW173955   4.152   2.122   2.943 -1.0515  1.3439  1.6084
24168SOL    HW273956   4.058   2.006   2.965 -0.1030  0.3145  0.3848
24169SOL     OW73957   6.525   3.091   0.750  0.8387  0.7047  0.0625
24169SOL    HW173958   6.591   3.056   0.691 -0.3861  0.1365 -1.0285
24169SOL    HW273959   6.473   3.150   0.695 -2.1462 -1.9940 -0.3434
24170SOL     OW73960   7.811   2.352   7.661 -0.0677  0.4442 -0.3893
24170SOL    HW173961   7.884   2.393   7.707  0.5126  1.4196 -2.0840
24170SOL    HW273962   7.733   2.384   7.706  0.4999  0.2079  0.7951
24171SOL     OW73963   5.690   5.953   2.912 -0.5978 -0.0539 -0.5240
24171SOL    HW173964   5.674   5.865   2.946 -2.4785  0.4684  0.0733
24171SOL    HW273965   5.781   5.970   2.933 -0.3402 -1.6550 -0.1878
24172SOL     OW73966   9.001   8.442   6.608 -0.3236  0.2014  0.2078
24172SOL    HW173967   8.997   8.349   6.583 -1.2728  0.3696 -0.3124
24172SOL    HW273968   9.034   8.442   6.697 -0.3638 -0.6442  0.2279
24173SOL     OW73969   2.869   8.856   3.200 -0.2104 -0.9396 -0.3562
24173SOL    HW173970   2.812   8.915   3.150 -0.7872 -1.1546  0.0305
24173SOL    HW273971   2.840   8.866   3.290  0.7508 -0.6398 -0.0767
24174SOL     OW73972   8.995   2.704   7.723 -0.3604  0.2030 -0.0516
24174SOL    HW173973   8.996   2.736   7.813  1.0803 -0.0891  0.0590
24174SOL    HW273974   8.904   2.678   7.708 -0.4566 -0.5414  1.6018
24175SOL     OW73975   1.230   5.288   3.195 -0.0408  0.0038  0.6178
24175SOL    HW173976   1.316   5.258   3.225  0.4818  1.1578  0.3145
24175SOL    HW273977   1.168   5.233   3.242  0.8676 -1.3599  0.2958
24176SOL     OW73978   2.368   4.392   0.949 -0.0057  0.0299  0.2385
24176SOL    HW173979   2.298   4.450   0.981  1.2700  1.6318  0.2390
24176SOL    HW273980   2.423   4.448   0.895  0.5668 -1.5199 -0.8639
24177SOL     OW73981   9.138   6.199   3.996 -0.2617 -0.6202  0.3066
24177SOL    HW173982   9.137   6.267   3.929  0.1665 -0.6895  0.2279
24177SOL    HW273983   9.229   6.195   4.025 -1.0000  2.2493  3.7773
24178SOL     OW73984   6.655   2.168   7.361  0.2468 -0.0493 -0.4156
24178SOL    HW173985   6.689   2.080   7.375  1.0437  0.2718 -0.3186
24178SOL    HW273986   6.563   2.162   7.387  0.1360 -0.9979 -0.9572
24179SOL     OW73987   8.145   7.487   8.184  0.5307 -0.4368 -0.1022
24179SOL    HW173988   8.164   7.449   8.098 -3.2809 -3.0159 -0.0127
24179SOL    HW273989   8.053   7.512   8.181  0.6381  0.7955  2.8184
24180SOL     OW73990   8.840   0.438   8.276 -0.3085  0.5352 -0.4430
24180SOL    HW173991   8.906   0.371   8.255  0.5615  0.7513  1.4423
24180SOL    HW273992   8.890   0.517   8.295 -1.0728  0.6545  1.2322
24181SOL     OW73993   7.020   7.441   8.558 -1.1025  0.3529  0.0395
24181SOL    HW173994   6.956   7.451   8.629  0.3011 -0.5830  1.5126
24181SOL    HW273995   7.102   7.472   8.596 -0.3461 -0.0245 -1.2359
24182SOL     OW73996   8.533   6.796   8.454  0.0785  0.7672 -0.5904
24182SOL    HW173997   8.565   6.743   8.381 -0.8184  0.3543 -0.7000
24182SOL    HW273998   8.459   6.747   8.488 -0.3868  1.6520 -0.2963
24183SOL     OW73999   0.222   7.609   3.375  0.0749 -0.2605  0.7459
24183SOL    HW174000   0.137   7.576   3.406 -0.0689 -0.4373  0.1763
24183SOL    HW274001   0.206   7.701   3.354  0.3178  0.0174  1.7339
24184SOL     OW74002   6.592   7.085   1.235 -0.1646 -0.1528  0.7652
24184SOL    HW174003   6.650   7.080   1.310 -1.0439 -0.9885  1.4147
24184SOL    HW274004   6.504   7.095   1.272 -0.4649  1.1291 -0.1922
24185SOL     OW74005   4.689   7.060   1.049 -0.3180 -0.5120 -0.0555
24185SOL    HW174006   4.643   6.987   1.008 -1.8207  0.7137 -0.6341
24185SOL    HW274007   4.620   7.124   1.070  1.0509  1.2409 -0.6238
24186SOL     OW74008   8.030   2.347   2.360 -0.0396 -0.2933  0.3577
24186SOL    HW174009   7.965   2.402   2.317  0.2163  1.3162  1.9053
24186SOL    HW274010   8.000   2.340   2.451  1.2288 -0.6285  0.7766
24187SOL     OW74011   1.117   8.414   4.705 -0.6533  0.5014  0.2250
24187SOL    HW174012   1.138   8.406   4.798  0.8009 -1.0888 -0.2028
24187SOL    HW274013   1.096   8.507   4.694 -1.0734  0.6772  2.1711
24188SOL     OW74014   8.929   3.988   5.724  0.2340 -0.2353 -0.5318
24188SOL    HW174015   8.888   4.049   5.663  0.7261 -0.0620 -0.6928
24188SOL    HW274016   9.017   4.021   5.736 -0.2784  0.5588  1.4003
24189SOL     OW74017   5.761   7.881   0.719  0.2181  0.4562  0.7539
24189SOL    HW174018   5.737   7.946   0.654 -0.4116 -0.5977 -0.0953
24189SOL    HW274019   5.679   7.837   0.740  0.9084 -1.3845 -0.1637
24190SOL     OW74020   5.468   1.188   7.147  0.1851  0.9494 -0.4305
24190SOL    HW174021   5.475   1.226   7.059  2.4399  0.0295 -0.7165
24190SOL    HW274022   5.432   1.258   7.201  0.5656  2.1712 -1.7113
24191SOL     OW74023   8.552   3.104   5.251  0.3008  0.3529 -0.1237
24191SOL    HW174024   8.644   3.119   5.273  0.0991  2.5531 -0.5169
24191SOL    HW274025   8.539   3.152   5.170 -1.9365  3.0195  1.6148
24192SOL     OW74026   3.280   9.058   2.145  0.1815  0.3845 -0.0967
24192SOL    HW174027   3.276   8.988   2.079  0.9219  0.4899 -0.2554
24192SOL    HW274028   3.193   9.097   2.143 -0.2581 -0.5432  0.0057
24193SOL     OW74029   2.369   7.107   3.428 -0.2195  0.0321  0.2733
24193SOL    HW174030   2.282   7.108   3.389 -0.4839 -0.7263  0.8223
24193SOL    HW274031   2.357   7.067   3.514  0.5202  0.7705  0.7433
24194SOL     OW74032   7.259   4.365   2.645  0.0836 -0.7030 -0.0169
24194SOL    HW174033   7.190   4.375   2.579  0.6984 -0.1836 -0.6005
24194SOL    HW274034   7.239   4.282   2.688  0.1905 -1.5323 -1.4944
24195SOL     OW74035   4.066   5.240   3.094 -0.6516 -0.3990  0.5240
24195SOL    HW174036   3.983   5.192   3.087 -0.8970 -0.0384  0.9226
24195SOL    HW274037   4.115   5.193   3.162 -0.5580 -0.5687  0.3394
24196SOL     OW74038   2.249   6.745   6.787  0.2729  0.3744  0.2486
24196SOL    HW174039   2.261   6.744   6.692 -0.0373  1.0785  0.1959
24196SOL    HW274040   2.276   6.658   6.816  0.8546  0.3285 -0.4252
24197SOL     OW74041   2.896   0.524   2.239 -0.2571  0.6172  0.1859
24197SOL    HW174042   2.862   0.507   2.151 -0.1299 -0.5903  0.3506
24197SOL    HW274043   2.851   0.603   2.268 -1.5304  0.0956 -0.3200
24198SOL     OW74044   7.149   1.001   5.660 -0.5608  0.2994 -0.0785
24198SOL    HW174045   7.183   1.019   5.748  0.9755 -1.5999 -0.2317
24198SOL    HW274046   7.089   1.074   5.643  0.0197  1.3643  2.0424
24199SOL     OW74047   4.592   3.840   2.026  0.1445  0.5980  0.0994
24199SOL    HW174048   4.655   3.773   2.052  0.3161  0.2555 -1.1213
24199SOL    HW274049   4.644   3.919   2.014  0.0486  0.7848  0.8588
24200SOL     OW74050   4.542   0.555   7.390  0.3679 -0.0741 -0.0588
24200SOL    HW174051   4.583   0.575   7.306  0.6806  1.2848  0.3829
24200SOL    HW274052   4.613   0.523   7.445  0.4263  0.2454  0.0577
24201SOL     OW74053   8.408   2.253   3.144  0.3735  0.5443 -0.0807
24201SOL    HW174054   8.403   2.280   3.235  0.1918  1.4074 -0.3375
24201SOL    HW274055   8.334   2.193   3.132  1.2252 -0.7090  0.6903
24202SOL     OW74056   2.604   8.713   6.714 -0.0177 -0.0443 -0.1877
24202SOL    HW174057   2.553   8.777   6.665 -0.7958 -0.9138 -0.5486
24202SOL    HW274058   2.674   8.764   6.755 -0.0580  0.8793 -1.2277
24203SOL     OW74059   2.442   6.412   1.824  0.3341  0.2343  0.5203
24203SOL    HW174060   2.506   6.341   1.819  0.3517  0.3120 -0.7349
24203SOL    HW274061   2.449   6.456   1.739  0.3818  1.8044  1.3076
24204SOL     OW74062   3.818   8.709   8.126  0.6025  0.1879  0.5793
24204SOL    HW174063   3.830   8.648   8.053 -0.3128 -1.5319  1.7858
24204SOL    HW274064   3.906   8.729   8.155  0.9266 -0.5309  0.1268
24205SOL     OW74065   3.911   5.264   7.344  0.4739 -0.3461  0.1366
24205SOL    HW174066   3.911   5.198   7.414  2.0632  0.1615  0.6470
24205SOL    HW274067   4.003   5.274   7.321 -0.0231 -0.5416 -2.0931
24206SOL     OW74068   4.387   6.847   7.623  0.1389 -0.0187 -0.3343
24206SOL    HW174069   4.424   6.789   7.557 -1.6687 -0.9671 -0.5694
24206SOL    HW274070   4.426   6.817   7.705  1.7525  0.6248 -0.8365
24207SOL     OW74071   0.862   3.019   9.273 -0.1744  0.0579 -0.1065
24207SOL    HW174072   0.830   3.077   9.204 -1.2606 -0.8742 -0.4234
24207SOL    HW274073   0.788   2.963   9.293  0.8336 -1.2258  0.1810
24208SOL     OW74074   5.895   8.169   5.659  0.0126  0.3046  0.6134
24208SOL    HW174075   5.838   8.116   5.603 -0.9485  1.3067  0.6006
24208SOL    HW274076   5.836   8.233   5.699  1.1075  1.2904  0.7067
24209SOL     OW74077   5.093   1.217   1.896  0.0342 -0.8470 -0.4987
24209SOL    HW174078   5.147   1.280   1.850 -1.5586  0.7846 -0.2527
24209SOL    HW274079   5.054   1.163   1.827 -1.9673  1.2725 -1.1479
24210SOL     OW74080   0.253   9.226   9.267 -0.0497  0.5515  0.0601
24210SOL    HW174081   0.177   9.193   9.219  0.1023 -1.1456  0.9077
24210SOL    HW274082   0.233   9.319   9.282 -0.7386  0.7728 -1.9741
24211SOL     OW74083   1.155   7.515   4.886 -0.0244 -0.0314 -0.1411
24211SOL    HW174084   1.247   7.507   4.858  0.8158  3.2862  1.1448
24211SOL    HW274085   1.117   7.577   4.823 -1.6064 -1.7365 -0.9452
24212SOL     OW74086   1.812   0.083   7.418  0.0183  0.2690  0.2421
24212SOL    HW174087   1.824   0.063   7.511 -1.6293 -0.3788  0.3481
24212SOL    HW274088   1.742   0.148   7.416 -0.5408 -0.3302 -0.5778
24213SOL     OW74089   5.108   6.231   1.888 -0.2004  0.7746  0.4034
24213SOL    HW174090   5.199   6.245   1.860  0.1523  0.0945  1.1632
24213SOL    HW274091   5.091   6.302   1.950 -0.5052  1.4408 -0.4244
24214SOL     OW74092   7.318   0.389   1.084 -0.3527  0.0796 -0.2773
24214SOL    HW174093   7.258   0.318   1.110  0.4500 -0.4299  0.2195
24214SOL    HW274094   7.307   0.396   0.990 -1.2522  0.0462 -0.1868
24215SOL     OW74095   4.235   8.722   7.806 -0.3027 -0.1018  0.0434
24215SOL    HW174096   4.284   8.785   7.753  0.1990 -0.0304  0.5899
24215SOL    HW274097   4.152   8.765   7.824  0.0281  0.3882  0.3896
24216SOL     OW74098   1.666   2.243   6.856 -0.7868  0.5824  0.5598
24216SOL    HW174099   1.575   2.254   6.829 -0.9788 -1.0853  0.4271
24216SOL    HW274100   1.706   2.191   6.786 -0.5799 -1.4075  2.0696
24217SOL     OW74101   5.947   2.760   1.481  0.0472  0.5516  0.1232
24217SOL    HW174102   6.039   2.739   1.467  0.1228  0.7230  0.3577
24217SOL    HW274103   5.900   2.684   1.448  0.2278  0.8293 -0.8123
24218SOL     OW74104   4.317   4.884   8.514  0.2753 -0.0326  0.0633
24218SOL    HW174105   4.225   4.905   8.532 -0.1768 -0.2613 -1.7748
24218SOL    HW274106   4.348   4.841   8.594 -1.3792 -0.4554  0.5178
24219SOL     OW74107   3.335   8.628   6.624 -0.3525  0.2260 -0.1588
24219SOL    HW174108   3.408   8.655   6.568 -0.2293  0.3454  0.0596
24219SOL    HW274109   3.338   8.533   6.623  0.2377  0.2297  0.4110
24220SOL     OW74110   0.126   7.749   3.051  0.2627 -0.4160  0.0200
24220SOL    HW174111   0.219   7.731   3.045  0.7724  2.1484 -1.5033
24220SOL    HW274112   0.091   7.725   2.965  0.6289  3.3705 -1.3823
24221SOL     OW74113   6.204   2.704   7.081  0.1620 -0.1166  0.0751
24221SOL    HW174114   6.284   2.756   7.073 -0.6554  1.1266 -0.2678
24221SOL    HW274115   6.215   2.633   7.018 -0.0249  1.4322 -1.7994
24222SOL     OW74116   7.438   5.949   3.184  0.2249  0.0993  0.7555
24222SOL    HW174117   7.362   5.924   3.131 -0.4322  1.4913  0.9980
24222SOL    HW274118   7.408   6.024   3.235  1.4624  0.0341  1.6227
24223SOL     OW74119   6.523   0.751   5.835 -0.2546 -0.6537 -0.2052
24223SOL    HW174120   6.568   0.669   5.857  1.9701  0.9939  1.9015
24223SOL    HW274121   6.462   0.764   5.907  1.1601  0.6704  0.8224
24224SOL     OW74122   7.623   3.200   2.840  0.5068  0.4725 -0.2150
24224SOL    HW174123   7.669   3.154   2.911  0.3648  1.9315  0.8688
24224SOL    HW274124   7.557   3.253   2.885  1.0134  2.1383 -1.3512
24225SOL     OW74125   5.817   1.156   4.799  0.3168 -0.3881 -0.1001
24225SOL    HW174126   5.816   1.195   4.711  1.3508  1.3427  0.6138
24225SOL    HW274127   5.884   1.087   4.794  0.5857 -0.0961 -0.5811
24226SOL     OW74128   9.115   1.958   0.941  0.2756  0.0108 -0.3463
24226SOL    HW174129   9.203   1.993   0.952  0.6701 -0.3749 -1.9941
24226SOL    HW274130   9.077   1.959   1.029  2.0013 -0.0470  0.4319
24227SOL     OW74131   5.438   6.840   5.854 -0.0859 -0.3207  0.0794
24227SOL    HW174132   5.400   6.834   5.767 -1.2092 -2.3877  0.6344
24227SOL    HW274133   5.369   6.881   5.907 -0.0184 -0.4679  0.2846
24228SOL     OW74134   3.902   6.797   4.673  0.6447  0.1105  0.4782
24228SOL    HW174135   3.955   6.863   4.628  0.0834  0.2034 -0.0614
24228SOL    HW274136   3.828   6.782   4.614  0.2608 -0.2819  1.0543
24229SOL     OW74137   1.320   0.090   8.077  0.3690 -0.5501  0.1401
24229SOL    HW174138   1.283   0.121   7.994  0.7282 -1.0877 -0.2247
24229SOL    HW274139   1.358   0.169   8.117 -1.6445  0.1580  0.8163
24230SOL     OW74140   5.265   1.287   1.259 -0.0670 -0.0342  0.3570
24230SOL    HW174141   5.327   1.248   1.321  1.1208 -1.4349 -1.6254
24230SOL    HW274142   5.320   1.334   1.196 -1.1542  0.2230 -0.4337
24231SOL     OW74143   2.278   4.459   6.953 -0.1286 -0.3493  0.6223
24231SOL    HW174144   2.336   4.402   6.902 -1.5413 -1.5519  0.2683
24231SOL    HW274145   2.265   4.535   6.897  0.3437 -0.5038  0.2868
24232SOL     OW74146   1.796   5.971   1.526 -0.3227  0.7495  0.1910
24232SOL    HW174147   1.784   6.047   1.583 -0.0349  0.5965  0.4619
24232SOL    HW274148   1.848   6.004   1.453 -0.2248  0.8234  0.2930
24233SOL     OW74149   1.384   5.010   7.847 -0.1626  0.2532 -0.2836
24233SOL    HW174150   1.386   4.951   7.772  2.4519 -0.7883  0.4865
24233SOL    HW274151   1.431   5.088   7.817  2.4243 -0.8312  0.6439
24234SOL     OW74152   0.574   5.674   0.215 -0.1498  0.1044  0.1690
24234SOL    HW174153   0.666   5.676   0.188 -0.5394 -1.5876 -1.5686
24234SOL    HW274154   0.568   5.599   0.274 -0.4346  0.1215  0.1648
24235SOL     OW74155   7.025   7.231   2.834 -0.2286  0.1461 -0.0066
24235SOL    HW174156   7.070   7.148   2.846 -2.2867 -1.0139  0.1237
24235SOL    HW274157   6.961   7.215   2.765 -0.5691  1.6560 -0.0899
24236SOL     OW74158   8.278   2.472   2.350  0.2285 -0.7098 -0.3903
24236SOL    HW174159   8.192   2.431   2.362  0.1196  0.1265  2.2727
24236SOL    HW274160   8.260   2.552   2.301 -0.4795 -0.6905 -0.1088
24237SOL     OW74161   9.279   6.374   9.007 -0.1162 -0.8248 -0.1868
24237SOL    HW174162   9.346   6.355   9.072  1.0840  2.0569 -0.4254
24237SOL    HW274163   9.201   6.396   9.058 -0.4319 -2.5239  0.1216
24238SOL     OW74164   3.576   4.101   1.009  0.1142 -0.3810 -0.0688
24238SOL    HW174165   3.584   4.108   1.104  1.3960  1.1794 -0.2618
24238SOL    HW274166   3.659   4.133   0.975  0.3401 -2.4955 -1.7001
24239SOL     OW74167   0.948   2.025   0.879 -0.2908  0.3276 -0.5024
24239SOL    HW174168   0.985   1.937   0.874 -0.2623  0.2475  0.6975
24239SOL    HW274169   1.020   2.083   0.856  0.6098  0.1732  1.6889
24240SOL     OW74170   6.486   8.979   5.243  0.0871  0.0090 -0.2269
24240SOL    HW174171   6.528   8.999   5.160 -0.0868 -0.2139 -0.3712
24240SOL    HW274172   6.419   8.914   5.221  0.1135 -0.1360  0.1034
24241SOL     OW74173   7.948   7.939   4.190  0.2694 -0.2328 -0.0966
24241SOL    HW174174   7.895   7.859   4.183  1.0358 -0.6794 -1.0362
24241SOL    HW274175   8.033   7.914   4.154  0.4285  1.1020 -0.6978
24242SOL     OW74176   4.342   7.682   5.155 -0.0292 -0.2334  0.4004
24242SOL    HW174177   4.278   7.642   5.214 -1.2806 -0.4496 -1.0128
24242SOL    HW274178   4.373   7.609   5.101 -0.1351  0.2049 -0.2672
24243SOL     OW74179   1.037   6.193   3.454 -0.1560  0.4534 -0.3340
24243SOL    HW174180   0.972   6.135   3.414 -0.2491  0.9242 -0.8740
24243SOL    HW274181   0.987   6.269   3.483 -0.1997 -0.1369  1.2707
24244SOL     OW74182   5.455   8.046   3.329 -0.2966 -0.0354 -0.0043
24244SOL    HW174183   5.361   8.055   3.344 -0.3233 -0.5003  0.1461
24244SOL    HW274184   5.479   7.966   3.376  0.1582  0.0326 -0.1121
24245SOL     OW74185   8.608   7.772   1.152 -0.1078  0.0634 -0.3957
24245SOL    HW174186   8.538   7.809   1.205  0.6479 -0.8509  1.3136
24245SOL    HW274187   8.687   7.781   1.206  0.2557 -3.1994 -0.1992
24246SOL     OW74188   2.227   8.821   3.584  0.2154 -0.6744 -0.2925
24246SOL    HW174189   2.133   8.830   3.603  0.4087 -0.4869  0.6371
24246SOL    HW274190   2.240   8.726   3.577 -0.0950 -0.6882 -0.7013
24247SOL     OW74191   8.963   1.750   7.682 -0.3092 -0.0222  0.2623
24247SOL    HW174192   9.054   1.770   7.703 -0.6207  0.3914  1.3104
24247SOL    HW274193   8.967   1.674   7.624  0.9663  3.1418 -4.3121
24248SOL     OW74194   4.122   8.966   2.835  0.4026  0.2901 -0.1671
24248SOL    HW174195   4.032   8.956   2.867  0.9475 -0.8641  1.1004
24248SOL    HW274196   4.147   8.879   2.806  0.9859  0.6980 -0.9163
24249SOL     OW74197   4.844   4.019   0.648 -0.1622  0.5149 -0.6634
24249SOL    HW174198   4.888   4.104   0.651  0.6878  0.0847  1.2724
24249SOL    HW274199   4.913   3.958   0.622  0.2561 -0.0381  1.5279
24250SOL     OW74200   8.619   2.087   7.061 -0.0812  0.5303  0.4281
24250SOL    HW174201   8.604   2.007   7.112 -1.0731 -0.1241 -0.8315
24250SOL    HW274202   8.601   2.158   7.122 -0.5591 -0.2207  1.1885
24251SOL     OW74203   7.865   3.597   7.043  0.0093 -0.0110 -0.2904
24251SOL    HW174204   7.808   3.528   7.077  0.6659 -0.5729 -0.3016
24251SOL    HW274205   7.896   3.643   7.121  0.6820 -0.6298 -0.1871
24252SOL     OW74206   4.491   3.420   0.050 -0.1063 -0.4744  0.2417
24252SOL    HW174207   4.416   3.439  -0.006  0.0067 -0.0913  0.2148
24252SOL    HW274208   4.483   3.483   0.122 -0.3977 -1.1378  0.8016
24253SOL     OW74209   0.987   2.478   0.374 -0.0862  0.0919  0.2338
24253SOL    HW174210   0.941   2.557   0.346 -0.5816 -0.8221 -1.7617
24253SOL    HW274211   1.071   2.510   0.407  0.2706  1.4132 -1.7363
24254SOL     OW74212   6.170   0.325   0.942  0.4105  0.3004 -0.0357
24254SOL    HW174213   6.187   0.287   1.028 -0.2683 -0.4636 -0.2279
24254SOL    HW274214   6.075   0.324   0.933  0.4573  0.7061 -0.6449
24255SOL     OW74215   2.246   4.595   8.015  0.2039 -0.3074 -0.4331
24255SOL    HW174216   2.314   4.591   8.083  0.2153 -0.9522 -0.4710
24255SOL    HW274217   2.179   4.653   8.051  1.0614  0.8445 -0.6664
24256SOL     OW74218   0.501   6.359   7.025  0.3595  0.0785 -0.2323
24256SOL    HW174219   0.558   6.349   7.102  0.5583  1.8756 -0.1099
24256SOL    HW274220   0.423   6.307   7.047  1.3884 -1.3931  0.1316
24257SOL     OW74221   0.106   0.810   1.963  0.0517  0.2987 -0.2615
24257SOL    HW174222   0.029   0.862   1.940 -0.9142 -1.1420 -0.4145
24257SOL    HW274223   0.084   0.721   1.935  1.2789 -0.3775  0.8155
24258SOL     OW74224   4.604   0.696   0.683  0.3114  0.3887 -0.3639
24258SOL    HW174225   4.690   0.709   0.644  0.4681 -0.6680 -0.4016
24258SOL    HW274226   4.543   0.735   0.620  0.7173  0.6286 -0.6126
24259SOL     OW74227   3.100   7.705   0.562  0.1595  0.0898 -0.3291
24259SOL    HW174228   3.030   7.664   0.510  0.9850  0.4340 -1.7575
24259SOL    HW274229   3.081   7.799   0.557  0.4657  0.1518 -0.3543
24260SOL     OW74230   7.472   8.733   8.446 -0.3042 -0.1246  0.0267
24260SOL    HW174231   7.451   8.807   8.504  1.3777  0.5783 -0.2189
24260SOL    HW274232   7.567   8.729   8.446 -0.3595 -2.3097  0.0109
24261SOL     OW74233   4.687   8.679   8.094  0.5867  0.0253  0.6801
24261SOL    HW174234   4.727   8.754   8.050  0.5080 -0.2014  0.2064
24261SOL    HW274235   4.628   8.641   8.028  0.6852 -0.4962  0.8823
24262SOL     OW74236   2.969   7.849   6.882  0.7616 -0.3592  0.7359
24262SOL    HW174237   3.053   7.813   6.912  1.1673 -1.1709 -1.1886
24262SOL    HW274238   2.977   7.943   6.897  0.4061 -0.7483  4.1766
24263SOL     OW74239   7.927   1.439   1.428  0.4160  0.2860 -0.2698
24263SOL    HW174240   7.916   1.504   1.358 -0.1229 -0.6474 -1.0590
24263SOL    HW274241   7.992   1.378   1.394  1.5696  0.8430  0.8185
24264SOL     OW74242   8.799   8.555   6.288 -0.4653 -0.5672 -0.6390
24264SOL    HW174243   8.879   8.552   6.341  0.0778  1.9401 -1.1984
24264SOL    HW274244   8.808   8.482   6.227 -0.2848 -2.4353  1.4979
24265SOL     OW74245   0.838   1.705   5.244  0.0566  0.1225 -0.2973
24265SOL    HW174246   0.869   1.772   5.304  1.5318 -0.6625 -0.1444
24265SOL    HW274247   0.855   1.740   5.157 -3.4033  1.8993 -0.4187
24266SOL     OW74248   7.730   6.032   6.771  0.6821 -0.6928 -0.0339
24266SOL    HW174249   7.697   5.977   6.700  1.4350 -0.0175 -0.9363
24266SOL    HW274250   7.820   6.003   6.783  0.1005 -1.8924  1.7740
24267SOL     OW74251   7.405   5.840   8.309 -0.0717 -0.1767 -0.0339
24267SOL    HW174252   7.384   5.932   8.325  0.3620 -0.3087  1.4562
24267SOL    HW274253   7.333   5.792   8.351  0.9609 -0.5422  1.3971
24268SOL     OW74254   1.181   5.381   2.180  0.1725  0.0129  0.0031
24268SOL    HW174255   1.089   5.386   2.153  0.0141  1.1148  0.6869
24268SOL    HW274256   1.230   5.410   2.102 -0.0246 -0.9612 -0.4959
24269SOL     OW74257   2.650   0.622   5.662  0.4095  0.6757 -0.0136
24269SOL    HW174258   2.745   0.630   5.662  0.3794  1.0423  0.2418
24269SOL    HW274259   2.619   0.698   5.711  0.0172  0.2104  0.4791
24270SOL     OW74260   3.968   7.291   8.802 -0.6835  0.3740  0.2382
24270SOL    HW174261   3.965   7.212   8.856 -0.1596  0.9719  1.1771
24270SOL    HW274262   3.907   7.274   8.730 -1.1966 -0.5513  0.8725
24271SOL     OW74263   1.672   4.521   6.212  0.0484 -0.1750 -0.8724
24271SOL    HW174264   1.607   4.590   6.193 -1.0265  0.0952  2.9567
24271SOL    HW274265   1.750   4.569   6.238 -0.1176 -0.4016  0.0676
24272SOL     OW74266   1.463   5.937   4.192  0.6973  0.6729  0.0953
24272SOL    HW174267   1.543   5.972   4.154 -0.4963  1.1132 -2.2645
24272SOL    HW274268   1.468   5.842   4.178  1.1245  0.6137  0.6391
24273SOL     OW74269   6.325   3.046   0.321 -0.2755 -0.2924  0.0061
24273SOL    HW174270   6.249   3.009   0.366 -0.3024 -0.3913 -0.1199
24273SOL    HW274271   6.307   3.140   0.317 -1.0060 -0.4683 -1.1792
24274SOL     OW74272   4.851   4.658   2.893 -0.0247  0.2803 -0.4520
24274SOL    HW174273   4.937   4.618   2.884  0.1164  0.2712  0.7173
24274SOL    HW274274   4.800   4.594   2.943 -0.5745  0.4671 -0.7653
24275SOL     OW74275   2.775   8.736   5.152 -0.3489  0.5091 -0.1578
24275SOL    HW174276   2.719   8.808   5.122  0.1211  0.2603 -1.6921
24275SOL    HW274277   2.729   8.657   5.123 -0.6180  0.1797  1.0981
24276SOL     OW74278   7.599   0.527   0.584  0.1326  0.2234  0.2784
24276SOL    HW174279   7.547   0.452   0.556  1.5735  0.3225 -3.1748
24276SOL    HW274280   7.672   0.488   0.633  0.7043 -0.7060 -1.2156
24277SOL     OW74281   3.268   0.840   4.995  0.0050  0.0383  0.0725
24277SOL    HW174282   3.321   0.799   4.926  0.2489  1.2600 -0.4969
24277SOL    HW274283   3.209   0.899   4.949 -3.0798 -2.4113  0.5334
24278SOL     OW74284   8.827   2.890   8.041  0.4788  0.2605 -0.2750
24278SOL    HW174285   8.859   2.979   8.024  0.1320  0.0835 -1.9958
24278SOL    HW274286   8.907   2.838   8.052  0.7092  0.5222 -0.6890
24279SOL     OW74287   2.071   6.637   8.188 -0.2132  0.0887 -0.0367
24279SOL    HW174288   2.152   6.677   8.157  0.0320 -0.4276 -0.0774
24279SOL    HW274289   2.099   6.581   8.262 -0.7490  1.1311  0.9843
24280SOL     OW74290   3.080   6.564   8.936 -0.0729  0.0898  0.1729
24280SOL    HW174291   3.008   6.536   8.880  0.3777 -2.0609  0.5699
24280SOL    HW274292   3.158   6.552   8.882  0.0322  2.9108 -0.4444
24281SOL     OW74293   5.321   4.077   1.978 -0.1185 -0.0983  0.9028
24281SOL    HW174294   5.375   4.148   1.942 -0.4299 -0.7624 -1.0026
24281SOL    HW274295   5.340   4.002   1.922 -0.1101 -1.4326  2.6275
24282SOL     OW74296   3.055   7.705   8.777  1.0020  0.4459  0.0275
24282SOL    HW174297   3.145   7.711   8.807  0.6907  0.4168  0.9976
24282SOL    HW274298   3.002   7.718   8.856  0.1643 -0.8020 -0.2932
24283SOL     OW74299   5.515   5.376   6.766  0.1457  0.0914  0.1161
24283SOL    HW174300   5.507   5.403   6.674 -0.8537  1.9333  0.6947
24283SOL    HW274301   5.588   5.429   6.800 -0.4060  0.4812  0.7194
24284SOL     OW74302   4.732   3.655   0.040  0.3232  0.3076  0.0893
24284SOL    HW174303   4.732   3.564   0.008  0.4537  0.0258  0.8791
24284SOL    HW274304   4.642   3.685   0.026  0.7556  0.7740 -2.1286
24285SOL     OW74305   7.574   9.208   4.422  0.3427  0.1076  0.1984
24285SOL    HW174306   7.654   9.184   4.469  0.8073 -0.5412 -0.8938
24285SOL    HW274307   7.603   9.269   4.354  0.0536 -0.8487 -0.7943
24286SOL     OW74308   4.880   3.653   7.075  0.0970 -0.2051 -0.2479
24286SOL    HW174309   4.873   3.731   7.129  2.0273 -0.8200  0.9856
24286SOL    HW274310   4.854   3.682   6.987  0.5723  1.7489  0.2156
24287SOL     OW74311   3.050   7.257   4.714 -0.5029  0.1253 -0.5564
24287SOL    HW174312   3.125   7.226   4.765 -0.5367 -0.1519 -0.6691
24287SOL    HW274313   2.991   7.181   4.711 -0.6956  0.2773 -0.6394
24288SOL     OW74314   6.774   4.701   0.117  0.0702 -0.1659 -0.6033
24288SOL    HW174315   6.783   4.756   0.195 -1.5524  0.8337 -1.0779
24288SOL    HW274316   6.861   4.662   0.106  0.3600 -0.3272  1.6630
24289SOL     OW74317   7.090   0.257   1.849  0.2697 -0.5055  0.0547
24289SOL    HW174318   7.158   0.197   1.881  1.4459 -0.1782 -1.6876
24289SOL    HW274319   7.138   0.337   1.826 -0.5834 -0.5085 -1.8468
24290SOL     OW74320   4.143   4.967   5.017  0.4612  0.1114 -0.1969
24290SOL    HW174321   4.164   5.036   5.080 -1.0258  0.7983 -0.3982
24290SOL    HW274322   4.175   5.000   4.933 -1.3396  1.1760 -0.5144
24291SOL     OW74323   7.277   2.779   7.604  0.1132  0.0656 -1.3093
24291SOL    HW174324   7.253   2.689   7.626  0.2308  0.0645 -1.1812
24291SOL    HW274325   7.208   2.833   7.642  1.4510  0.2390  1.0775
24292SOL     OW74326   1.663   8.593   5.616  0.3659 -0.0155  0.0270
24292SOL    HW174327   1.616   8.510   5.617  0.3200 -0.0091 -0.8843
24292SOL    HW274328   1.597   8.659   5.593  0.4496  0.2436  0.5107
24293SOL     OW74329   4.597   2.814   2.559  0.3740  0.1212 -0.5179
24293SOL    HW174330   4.503   2.809   2.539  0.5165  1.1220 -1.5356
24293SOL    HW274331   4.605   2.772   2.645 -0.8297 -0.9926 -0.8999
24294SOL     OW74332   9.197   7.412   7.206  0.3202 -0.3088  0.4879
24294SOL    HW174333   9.280   7.424   7.160  0.9041 -1.2013  1.2864
24294SOL    HW274334   9.139   7.374   7.140  0.5816  0.1582 -0.0228
24295SOL     OW74335   3.220   8.766   7.574  1.1603  0.2539 -0.1827
24295SOL    HW174336   3.139   8.778   7.523  1.0574  0.1563 -0.0425
24295SOL    HW274337   3.240   8.673   7.565 -0.2764 -0.3499  2.0641
24296SOL     OW74338   8.533   7.477   9.142  0.2631  0.3069  0.2793
24296SOL    HW174339   8.512   7.421   9.217  0.3764 -0.3992 -0.2170
24296SOL    HW274340   8.556   7.417   9.072  1.5798  0.9834  0.0907
24297SOL     OW74341   0.295   6.826   3.068 -0.2827  0.2068 -0.6676
24297SOL    HW174342   0.295   6.897   3.003  0.9013  1.2478  0.4110
24297SOL    HW274343   0.371   6.844   3.123 -2.4642  0.6485  2.4460
24298SOL     OW74344   8.610   2.917   1.151 -0.2148 -0.0617 -0.4082
24298SOL    HW174345   8.583   2.841   1.099  0.0608 -0.7464  0.4365
24298SOL    HW274346   8.530   2.948   1.192 -0.1584 -0.5557  0.0913
24299SOL     OW74347   7.159   6.621   3.296  0.3761  0.1265 -0.4647
24299SOL    HW174348   7.239   6.645   3.341  0.8975 -1.3374 -0.5321
24299SOL    HW274349   7.094   6.685   3.324  1.0153  0.0380  1.3123
24300SOL     OW74350   3.054   4.236   7.538 -0.1589 -0.2193  0.3546
24300SOL    HW174351   3.038   4.154   7.583 -0.1416  0.1066  0.9702
24300SOL    HW274352   2.968   4.264   7.507 -0.0851 -0.7283 -0.3195
24301SOL     OW74353   3.234   6.118   2.130  0.1789  0.1664 -0.0368
24301SOL    HW174354   3.138   6.117   2.134  0.1081  1.1839 -1.0010
24301SOL    HW274355   3.254   6.122   2.037  1.1326  1.3259  0.1997
24302SOL     OW74356   6.133   7.696   6.931  0.1969 -0.1752  0.3124
24302SOL    HW174357   6.103   7.704   7.021  0.6218 -1.9582  0.6645
24302SOL    HW274358   6.137   7.786   6.898 -1.5227  0.4006  1.5297
24303SOL     OW74359   5.243   2.808   2.995 -0.0088  0.0230 -0.0930
24303SOL    HW174360   5.264   2.820   2.902 -0.2074 -1.2116 -0.3184
24303SOL    HW274361   5.252   2.714   3.009  0.3698  0.2448  1.2367
24304SOL     OW74362   3.643   3.616   6.378 -1.2024 -0.1741 -0.2195
24304SOL    HW174363   3.662   3.550   6.446 -1.8338  1.5577  1.7472
24304SOL    HW274364   3.722   3.669   6.374 -1.3965  0.1030 -0.3977
24305SOL     OW74365   3.581   6.835   3.270 -0.0063  0.0621  0.1106
24305SOL    HW174366   3.651   6.801   3.325  0.6110 -1.9332 -1.7814
24305SOL    HW274367   3.625   6.896   3.211  0.6201 -2.3894 -2.1698
24306SOL     OW74368   7.499   2.442   5.554  0.7472  0.0261  0.7164
24306SOL    HW174369   7.506   2.509   5.486 -0.2027 -0.0563  0.5233
24306SOL    HW274370   7.519   2.489   5.635 -0.6569  0.7531  0.6773
24307SOL     OW74371   6.207   8.371   4.896  0.5330  0.1678  0.3398
24307SOL    HW174372   6.248   8.374   4.809 -0.8966 -1.3831 -0.4524
24307SOL    HW274373   6.203   8.462   4.924  0.7202  0.7393 -1.3861
24308SOL     OW74374   6.997   4.938   2.953 -0.2613 -0.2193  0.1826
24308SOL    HW174375   7.017   4.923   3.045  2.6488 -0.9196 -0.4657
24308SOL    HW274376   6.963   4.854   2.922 -2.1613  0.2848  0.7586
24309SOL     OW74377   6.505   1.632   8.478  0.0344  0.4123 -0.2895
24309SOL    HW174378   6.484   1.607   8.568 -1.7490  0.4063 -0.6767
24309SOL    HW274379   6.599   1.651   8.480 -0.2919  2.2148  1.9920
24310SOL     OW74380   3.789   1.634   5.544  0.4293  0.4083  0.8646
24310SOL    HW174381   3.770   1.700   5.611 -1.0889 -0.8849  1.8011
24310SOL    HW274382   3.817   1.684   5.468  0.7520  2.0264  1.9953
24311SOL     OW74383   4.019   3.468   1.047 -0.7160  0.4733 -0.3478
24311SOL    HW174384   4.093   3.512   1.088  0.6282 -0.8038 -1.3049
24311SOL    HW274385   3.963   3.539   1.016  1.8829  1.6505 -2.7961
24312SOL     OW74386   1.186   4.925   5.958  0.3947  0.2801 -0.4865
24312SOL    HW174387   1.215   4.884   6.040  1.6947  1.0854 -0.5123
24312SOL    HW274388   1.161   5.014   5.983  0.8402  0.5433 -0.9488
24313SOL     OW74389   6.681   9.036   6.228  0.0038  0.0244 -0.0063
24313SOL    HW174390   6.641   9.067   6.147  1.0122  0.0716 -0.4973
24313SOL    HW274391   6.715   9.116   6.269 -0.0898 -0.0604  0.2368
24314SOL     OW74392   3.782   8.277   8.957  0.4206 -0.5069  0.5461
24314SOL    HW174393   3.691   8.251   8.971  0.0493  0.9553  1.0800
24314SOL    HW274394   3.834   8.206   8.995 -0.4702 -1.7477 -0.4968
24315SOL     OW74395   8.187   5.497   5.508  0.1561  0.4787  0.3632
24315SOL    HW174396   8.262   5.486   5.449  0.5596  2.0131  0.5585
24315SOL    HW274397   8.119   5.536   5.453 -0.0491  0.3206  0.5044
24316SOL     OW74398   6.749   9.240   8.987  0.5521  0.3248  0.1222
24316SOL    HW174399   6.692   9.172   9.026  0.9173  0.3971  0.7934
24316SOL    HW274400   6.711   9.255   8.901 -0.3126  0.1959  0.4647
24317SOL     OW74401   0.259   4.701   0.882  0.6575 -0.0663 -0.0087
24317SOL    HW174402   0.287   4.779   0.930  0.1656 -0.7278  1.4250
24317SOL    HW274403   0.218   4.735   0.802  0.3073  1.1629  0.6620
24318SOL     OW74404   0.415   5.938   0.270 -0.2281 -0.4401  0.1695
24318SOL    HW174405   0.506   5.967   0.265 -0.4507  0.0856 -3.3910
24318SOL    HW274406   0.415   5.853   0.225 -1.4620 -0.4607  0.1884
24319SOL     OW74407   6.599   6.793   2.477  0.5588 -0.4054  0.2081
24319SOL    HW174408   6.643   6.841   2.547 -0.1279  0.4453  0.0665
24319SOL    HW274409   6.508   6.823   2.481  0.5106 -0.3467 -1.0554
24320SOL     OW74410   5.720   7.434   7.548 -0.5239 -0.3321  0.2919
24320SOL    HW174411   5.722   7.371   7.620 -0.7011 -2.1331 -1.2183
24320SOL    HW274412   5.688   7.384   7.473  2.6662  0.5992 -1.8831
24321SOL     OW74413   6.395   1.682   2.204  0.0267  0.0780 -0.9809
24321SOL    HW174414   6.408   1.714   2.293  1.8628  1.3682 -1.6563
24321SOL    HW274415   6.425   1.591   2.207 -2.9771 -1.0006  0.3963
24322SOL     OW74416   6.032   7.498   3.669  0.6796 -0.2355  0.2556
24322SOL    HW174417   6.049   7.489   3.576  0.6404 -0.8449  0.3079
24322SOL    HW274418   6.058   7.588   3.689 -0.0491  0.1585 -0.4954
24323SOL     OW74419   5.863   8.648   6.281 -0.3528 -0.2695  0.0574
24323SOL    HW174420   5.918   8.648   6.360 -0.0806  0.0404 -0.1240
24323SOL    HW274421   5.808   8.726   6.291 -2.6850 -1.9743  1.5210
24324SOL     OW74422   2.610   1.260   3.033 -0.2695 -0.5490  0.0267
24324SOL    HW174423   2.698   1.247   3.068  0.2972  2.1183 -0.2211
24324SOL    HW274424   2.610   1.214   2.949  0.5993 -1.2958  0.4265
24325SOL     OW74425   6.389   5.049   2.730 -0.0404  0.0251  0.2734
24325SOL    HW174426   6.439   4.980   2.774  0.0142 -0.3606 -0.3794
24325SOL    HW274427   6.338   5.003   2.664  0.2041  0.6434 -0.3586
24326SOL     OW74428   5.683   3.096   8.048  0.1484 -0.5787  0.5950
24326SOL    HW174429   5.617   3.036   8.012 -1.1802  0.8532  0.5631
24326SOL    HW274430   5.738   3.120   7.973 -0.0870 -0.7694  0.3613
24327SOL     OW74431   3.530   0.365   2.210  0.2172 -0.0429 -0.3921
24327SOL    HW174432   3.541   0.331   2.122 -1.0863  0.5041 -0.7854
24327SOL    HW274433   3.530   0.460   2.199  0.0779  0.0308  0.2041
24328SOL     OW74434   3.335   2.841   6.593 -0.4515  0.0569  0.3630
24328SOL    HW174435   3.314   2.796   6.675 -2.9640 -0.5692 -0.5605
24328SOL    HW274436   3.269   2.812   6.531  1.0394  0.9551 -1.7836
24329SOL     OW74437   8.813   7.260   0.861  0.0915  0.4916  0.4106
24329SOL    HW174438   8.793   7.203   0.786 -0.4202 -0.2505  1.0996
24329SOL    HW274439   8.829   7.346   0.821 -1.4667  0.4217 -0.4641
24330SOL     OW74440   9.258   7.939   7.342  0.0902  0.3620  0.1090
24330SOL    HW174441   9.255   8.020   7.291  2.6242  1.3244  1.3282
24330SOL    HW274442   9.329   7.953   7.404  2.3822 -3.7249 -1.2254
24331SOL     OW74443   3.286   6.406   1.108 -0.1124  0.5056 -0.1039
24331SOL    HW174444   3.238   6.327   1.134  0.2743  0.2126 -0.2705
24331SOL    HW274445   3.293   6.457   1.188  0.1037  0.1213  0.1229
24332SOL     OW74446   5.145   0.057   6.492 -0.3951 -0.5772 -0.0467
24332SOL    HW174447   5.177  -0.032   6.480 -0.1091 -0.6332  1.0399
24332SOL    HW274448   5.183   0.085   6.576 -1.1601  0.2577  0.0318
24333SOL     OW74449   0.596   7.573   6.781  0.0435  0.1470 -0.2291
24333SOL    HW174450   0.676   7.544   6.736  0.1105  0.4920 -0.3320
24333SOL    HW274451   0.584   7.509   6.851 -0.0000 -0.3308 -0.6679
24334SOL     OW74452   9.038   6.639   1.626  0.4874 -0.0462 -0.1975
24334SOL    HW174453   9.066   6.710   1.569  1.4498  0.4953  0.9059
24334SOL    HW274454   8.971   6.593   1.576 -0.8595  2.1941 -0.5924
24335SOL     OW74455   0.433   6.575   3.606 -0.3672  0.4897 -0.0532
24335SOL    HW174456   0.481   6.495   3.627  0.7648  1.2108  0.1724
24335SOL    HW274457   0.361   6.576   3.669 -0.9312 -0.7860 -0.6282
24336SOL     OW74458   0.507   5.089   3.300  0.2523  0.0820  0.1788
24336SOL    HW174459   0.454   5.164   3.326 -1.7519 -1.6147  1.3505
24336SOL    HW274460   0.519   5.100   3.206 -0.5961  1.5189  0.2097
24337SOL     OW74461   7.013   8.688   6.526 -0.8610  0.5743  0.1409
24337SOL    HW174462   7.013   8.784   6.525 -0.7252  0.5716 -0.1559
24337SOL    HW274463   7.079   8.665   6.593 -0.5854  0.6856 -0.0917
24338SOL     OW74464   2.617   9.080   6.357  0.4513 -0.0932 -0.1956
24338SOL    HW174465   2.544   9.114   6.305 -0.3699 -0.6950  0.5243
24338SOL    HW274466   2.675   9.038   6.293  0.7594  1.3788 -0.9195
24339SOL     OW74467   1.448   4.804   6.569  0.0952 -0.2863 -0.0019
24339SOL    HW174468   1.465   4.730   6.627 -0.9838  0.7705  1.7782
24339SOL    HW274469   1.504   4.874   6.602 -0.8149  0.4475  0.0389
24340SOL     OW74470   4.135   3.815   4.164 -0.1535 -0.0482 -0.9041
24340SOL    HW174471   4.122   3.748   4.231 -1.1909 -0.1014 -1.1494
24340SOL    HW274472   4.056   3.868   4.166  0.1935  0.5117 -1.4623
24341SOL     OW74473   0.161   3.794   1.601  0.1876  0.3166  0.0659
24341SOL    HW174474   0.227   3.842   1.651  0.6661 -1.3095  1.0567
24341SOL    HW274475   0.195   3.705   1.595 -0.6425  0.0813 -1.7895
24342SOL     OW74476   9.279   8.441   5.203  0.5983  0.1288  0.4024
24342SOL    HW174477   9.258   8.362   5.154  3.1803 -1.0393  1.0024
24342SOL    HW274478   9.269   8.512   5.140 -0.8288 -0.7678 -0.4194
24343SOL     OW74479   6.618   4.956   2.048 -0.1141 -0.5829 -0.2764
24343SOL    HW174480   6.621   5.051   2.037  1.2795 -0.6764 -0.9506
24343SOL    HW274481   6.709   4.929   2.044 -0.5161 -1.9913 -0.3804
24344SOL     OW74482   6.010   0.552   4.334 -0.5256 -0.7095  0.3199
24344SOL    HW174483   5.965   0.468   4.342  0.2510 -1.0216  1.8674
24344SOL    HW274484   6.009   0.571   4.240  0.0690 -2.9116 -0.2025
24345SOL     OW74485   3.259   4.081   8.494  0.2029 -0.6041  0.1807
24345SOL    HW174486   3.339   4.111   8.450 -0.3200 -0.7173 -0.8750
24345SOL    HW274487   3.217   4.023   8.430 -1.2818  0.3334  0.2650
24346SOL     OW74488   3.258   8.213   8.000  0.8969 -0.0059  0.1611
24346SOL    HW174489   3.252   8.119   8.012  0.2225  0.0065 -0.0166
24346SOL    HW274490   3.180   8.248   8.043 -1.0643  0.1324 -3.1189
24347SOL     OW74491   1.590   6.771   5.866  0.0754 -0.0367  0.1123
24347SOL    HW174492   1.596   6.836   5.937  2.3289 -1.0851  0.9981
24347SOL    HW274493   1.498   6.771   5.842 -0.4316  1.7725  1.7009
24348SOL     OW74494   2.231   7.546   3.787  0.0270  0.3059 -0.2093
24348SOL    HW174495   2.313   7.562   3.835  0.7067 -0.0385 -1.2223
24348SOL    HW274496   2.210   7.631   3.748  0.4181  0.1795 -0.7112
24349SOL     OW74497   4.568   4.714   6.035  0.1998  0.5936  0.0979
24349SOL    HW174498   4.616   4.762   5.967 -0.8658 -0.6039 -1.5615
24349SOL    HW274499   4.627   4.643   6.060  0.0053  0.1274 -0.7199
24350SOL     OW74500   0.988   5.307   0.356  0.0557  0.4923 -0.0439
24350SOL    HW174501   0.905   5.317   0.401  0.5735  0.3754  0.9787
24350SOL    HW274502   1.054   5.324   0.423  0.8703 -0.8359 -0.4529
24351SOL     OW74503   0.414   6.103   7.754  0.0079  0.3416  0.4545
24351SOL    HW174504   0.359   6.093   7.677  2.0418  0.1733 -1.0507
24351SOL    HW274505   0.399   6.023   7.805  0.9779 -1.0638 -1.3647
24352SOL     OW74506   0.377   2.085   7.875 -0.4375  0.2032  0.1512
24352SOL    HW174507   0.455   2.031   7.859 -0.6388  0.0308 -0.2587
24352SOL    HW274508   0.409   2.157   7.929 -0.0104  0.0776  0.0715
24353SOL     OW74509   3.641   9.191   0.108 -0.0226  0.1500  0.4552
24353SOL    HW174510   3.651   9.170   0.015  0.1762  1.9589  0.0279
24353SOL    HW274511   3.588   9.271   0.109 -1.2492 -0.6267  1.9816
24354SOL     OW74512   4.097   6.814   1.388  0.1591 -0.3643  0.3350
24354SOL    HW174513   4.027   6.858   1.436 -0.7068  0.2395 -1.3794
24354SOL    HW274514   4.065   6.724   1.378 -0.5006 -0.0413 -0.6145
24355SOL     OW74515   2.271   0.268   3.994 -0.1938 -0.0140 -0.0510
24355SOL    HW174516   2.346   0.320   4.025 -0.0604 -0.3745  0.2363
24355SOL    HW274517   2.200   0.331   3.984 -0.1553  0.1518  0.7169
24356SOL     OW74518   3.815   0.434   1.031  0.4681  0.8107  0.2091
24356SOL    HW174519   3.820   0.360   1.091 -0.2183 -0.6876 -1.4937
24356SOL    HW274520   3.887   0.421   0.970 -1.4904 -0.2840 -2.0109
24357SOL     OW74521   5.825   2.118   6.818 -0.0541  0.0723 -0.1071
24357SOL    HW174522   5.847   2.188   6.879  1.4043 -0.2861 -0.1809
24357SOL    HW274523   5.835   2.038   6.869 -3.5338 -0.1274  0.5377
24358SOL     OW74524   6.743   0.127   4.212  0.1230  0.0692  0.0211
24358SOL    HW174525   6.811   0.060   4.214  0.1416  0.0880  1.5792
24358SOL    HW274526   6.786   0.204   4.174  1.2204  0.3092  1.6633
24359SOL     OW74527   7.755   5.254   6.277 -0.7991  0.1605  0.5955
24359SOL    HW174528   7.682   5.233   6.218 -1.0544  0.9708  0.6069
24359SOL    HW274529   7.801   5.326   6.233  0.9047 -1.3135 -0.1471
24360SOL     OW74530   3.245   2.795   1.216 -0.1437  0.0585 -0.9169
24360SOL    HW174531   3.269   2.867   1.274  0.0916 -0.3269 -0.5255
24360SOL    HW274532   3.229   2.721   1.276  1.6457 -0.7868 -1.4310
24361SOL     OW74533   6.966   8.365   3.767  0.2220 -0.7834 -0.2028
24361SOL    HW174534   7.008   8.407   3.692  0.6426 -0.9814 -0.0779
24361SOL    HW274535   7.003   8.409   3.844 -0.5779 -0.2370 -0.1176
24362SOL     OW74536   2.151   1.797   5.739  0.2588 -0.1585 -0.2437
24362SOL    HW174537   2.141   1.865   5.805 -1.1528 -0.7240  0.1706
24362SOL    HW274538   2.199   1.727   5.784  2.4764  0.8310 -0.9203
24363SOL     OW74539   6.348   8.720   5.467 -0.0444  0.2520  0.1477
24363SOL    HW174540   6.391   8.707   5.383  1.7893  0.5360  1.0078
24363SOL    HW274541   6.267   8.669   5.460  0.2228  0.0133 -1.6541
24364SOL     OW74542   8.824   8.561   5.288  0.1107  0.5457  0.0386
24364SOL    HW174543   8.823   8.470   5.317 -0.5304  0.6796  0.4602
24364SOL    HW274544   8.859   8.558   5.199  2.9570  0.2236  1.0662
24365SOL     OW74545   5.776   3.278   4.348 -0.2405  0.0353  0.1913
24365SOL    HW174546   5.746   3.249   4.262 -2.9568  0.0474  1.0531
24365SOL    HW274547   5.844   3.342   4.329 -0.6083 -0.1248 -1.9284
24366SOL     OW74548   6.928   3.288   8.340 -0.2931  1.0355 -0.5549
24366SOL    HW174549   6.967   3.260   8.257  1.3011 -0.4396  0.5874
24366SOL    HW274550   6.873   3.362   8.318  0.2613  0.8240 -2.8884
24367SOL     OW74551   0.076   4.728   1.509 -0.2749 -0.3410  0.0768
24367SOL    HW174552   0.103   4.654   1.455  1.0104  1.0014 -1.1984
24367SOL    HW274553   0.048   4.689   1.592  1.4081 -2.1646 -0.1666
24368SOL     OW74554   3.250   4.520   5.238  0.2330  0.2612 -0.3990
24368SOL    HW174555   3.246   4.425   5.245  0.5239  0.0525 -2.6262
24368SOL    HW274556   3.161   4.549   5.259  0.2093 -0.4580  0.5588
24369SOL     OW74557   3.919   8.402   6.838 -0.2104 -0.4357 -0.6190
24369SOL    HW174558   3.853   8.468   6.815 -1.4623 -1.0901  0.8622
24369SOL    HW274559   3.871   8.340   6.893  1.6317 -1.0202  0.3854
24370SOL     OW74560   0.364   0.002   8.102  0.3828  0.1177 -0.0992
24370SOL    HW174561   0.285   0.021   8.051  2.0385  1.2320 -2.4162
24370SOL    HW274562   0.390   0.087   8.137  0.6136 -0.2270  0.5643
24371SOL     OW74563   2.832   6.185   9.139  0.3406  0.2803 -0.0873
24371SOL    HW174564   2.767   6.252   9.161  0.5903  0.3817  0.3588
24371SOL    HW274565   2.788   6.102   9.154  0.3108  0.3491  0.2065
24372SOL     OW74566   7.291   0.610   7.880 -0.0513  0.1913 -0.2852
24372SOL    HW174567   7.366   0.630   7.823 -0.4601 -1.5685 -1.5067
24372SOL    HW274568   7.286   0.686   7.938  2.2734  0.6743 -0.5815
24373SOL     OW74569   4.784   2.541   4.503 -0.0625 -0.2911  0.2937
24373SOL    HW174570   4.730   2.495   4.568 -1.1217 -0.6985 -0.8231
24373SOL    HW274571   4.843   2.473   4.469 -0.4711 -0.4428 -0.1419
24374SOL     OW74572   2.730   3.273   0.816 -0.4661  0.0804 -0.3900
24374SOL    HW174573   2.703   3.291   0.726 -1.9428  0.4968  0.1144
24374SOL    HW274574   2.807   3.216   0.807 -0.3733  0.4123 -1.9068
24375SOL     OW74575   8.198   6.918   0.210 -0.4002  0.0128  0.0609
24375SOL    HW174576   8.136   6.920   0.282 -0.3689  2.4394  0.0917
24375SOL    HW274577   8.154   6.867   0.141 -0.4992 -2.1856  1.6259
24376SOL     OW74578   1.909   8.405   7.405 -0.6866  0.2768 -0.7918
24376SOL    HW174579   1.903   8.322   7.356 -0.2981  0.5990 -1.4056
24376SOL    HW274580   1.930   8.470   7.338  3.6897  0.1773  0.1806
24377SOL     OW74581   5.579   6.759   0.012  0.0319 -0.3503 -0.2443
24377SOL    HW174582   5.655   6.700   0.017 -0.4667 -1.0619 -0.7460
24377SOL    HW274583   5.560   6.781   0.103  1.5601  0.8103 -0.1632
24378SOL     OW74584   3.543   6.034   6.906  0.0431 -0.3304  0.0345
24378SOL    HW174585   3.535   6.058   6.998  0.7464 -0.7254  0.1994
24378SOL    HW274586   3.524   6.115   6.859 -2.1849 -0.5427  0.4562
24379SOL     OW74587   2.539   6.041   1.444 -0.2607  0.1348  0.3829
24379SOL    HW174588   2.557   5.966   1.389  0.2607 -0.6062  1.5237
24379SOL    HW274589   2.572   6.016   1.531 -1.8982  0.8755  1.2723
24380SOL     OW74590   7.220   5.294   1.140  0.0839  0.0669 -0.0063
24380SOL    HW174591   7.227   5.217   1.083  0.4745 -0.6380  0.9785
24380SOL    HW274592   7.296   5.288   1.198 -0.2821  0.7992  0.5611
24381SOL     OW74593   0.587   9.222   7.891 -0.0346 -0.1072  0.5879
24381SOL    HW174594   0.637   9.198   7.969  0.4039  0.1066  0.3713
24381SOL    HW274595   0.496   9.224   7.921  0.2771  1.5811  1.4972
24382SOL     OW74596   2.519   0.294   4.279 -0.1745  0.5711 -0.3121
24382SOL    HW174597   2.598   0.252   4.244 -0.8949 -0.1428 -1.1648
24382SOL    HW274598   2.501   0.366   4.218  0.6236  1.6690  0.7137
24383SOL     OW74599   8.759   6.435   8.348 -0.5390  0.3636 -0.3111
24383SOL    HW174600   8.685   6.377   8.329 -1.1066  0.4924  1.3207
24383SOL    HW274601   8.718   6.518   8.372  0.2167  0.9916 -1.1515
24384SOL     OW74602   3.514   5.032   6.579  0.2690  0.1800  0.5917
24384SOL    HW174603   3.556   5.104   6.627  0.5363 -1.1508  2.4449
24384SOL    HW274604   3.495   4.967   6.645 -0.4689 -1.2591 -0.9641
24385SOL     OW74605   9.027   6.230   6.509  0.1633 -0.0684 -0.0648
24385SOL    HW174606   8.995   6.169   6.576  1.7892 -1.1979 -0.2429
24385SOL    HW274607   9.036   6.175   6.431  0.0816  0.7979 -0.6867
24386SOL     OW74608   7.273   8.316   5.801  0.0941 -0.3515 -0.0628
24386SOL    HW174609   7.299   8.224   5.806 -3.0359 -1.3334  0.2969
24386SOL    HW274610   7.217   8.320   5.724 -2.3330  0.4495  1.6235
24387SOL     OW74611   3.634   1.195   2.447 -0.4659  0.3390  0.0575
24387SOL    HW174612   3.641   1.105   2.413  0.1522  0.3330  0.1856
24387SOL    HW274613   3.724   1.228   2.445 -0.3116  0.1676  2.1447
24388SOL     OW74614   5.945   7.928   7.811  0.4157 -0.2726 -0.5581
24388SOL    HW174615   5.950   7.843   7.767 -1.4514 -0.8638  0.2823
24388SOL    HW274616   5.927   7.990   7.741 -0.1510 -0.8657 -0.9515
24389SOL     OW74617   8.610   4.204   4.553  0.2421  0.3176  0.1497
24389SOL    HW174618   8.667   4.229   4.626  0.3770 -1.6736  0.8022
24389SOL    HW274619   8.527   4.179   4.594 -0.1726  0.5233 -0.5337
24390SOL     OW74620   4.879   5.342   4.722  0.2867 -0.1549  0.5169
24390SOL    HW174621   4.821   5.329   4.797  1.2405 -2.1243  0.9979
24390SOL    HW274622   4.826   5.319   4.646  0.3889 -1.9597  0.9517
24391SOL     OW74623   0.835   4.481   6.667 -0.2850  0.3944 -0.1015
24391SOL    HW174624   0.791   4.556   6.627  0.3348  0.3544 -0.8731
24391SOL    HW274625   0.889   4.521   6.736  0.1554  0.6797 -0.6042
24392SOL     OW74626   2.958   6.527   7.919  0.0138 -0.1134 -0.2575
24392SOL    HW174627   2.966   6.558   8.009  0.0773  0.0652 -0.3230
24392SOL    HW274628   2.864   6.530   7.901  0.0449  0.3124 -0.3552
24393SOL     OW74629   6.369   6.200   7.828 -0.4406 -0.1506  0.8023
24393SOL    HW174630   6.355   6.280   7.778 -3.2858 -0.3496  1.0792
24393SOL    HW274631   6.401   6.230   7.913 -0.0586  0.5738  0.4034
24394SOL     OW74632   4.651   9.088   4.935  0.6066  0.2673 -0.2756
24394SOL    HW174633   4.705   9.055   5.007 -0.5321  0.2051  0.5811
24394SOL    HW274634   4.671   9.181   4.931  0.8035  0.2413  0.0081
24395SOL     OW74635   5.033   8.842   4.544 -0.2444  0.0976 -0.0987
24395SOL    HW174636   5.084   8.904   4.597 -0.0962 -0.7590  0.7948
24395SOL    HW274637   5.093   8.816   4.474 -0.8040  2.0726 -1.3909
24396SOL     OW74638   2.174   5.957   7.312 -0.1919  0.2375  0.0630
24396SOL    HW174639   2.167   5.987   7.403 -0.9940  0.5526 -0.0912
24396SOL    HW274640   2.174   5.862   7.318 -0.0782  0.2571  0.4048
24397SOL     OW74641   1.223   7.944   5.634 -0.4754 -0.3398  0.3347
24397SOL    HW174642   1.296   7.978   5.581 -0.6059 -0.1724  0.2603
24397SOL    HW274643   1.203   7.859   5.596  0.2864 -0.8074  0.9305
24398SOL     OW74644   3.660   1.665   6.341 -0.9140 -1.0944 -0.1582
24398SOL    HW174645   3.730   1.716   6.301 -0.3523 -0.2599  1.8211
24398SOL    HW274646   3.581   1.716   6.323 -0.4347  0.2173  1.2819
24399SOL     OW74647   8.888   8.450   5.022 -0.5962 -0.1473 -0.4552
24399SOL    HW174648   8.888   8.356   5.040 -0.5217 -0.2084 -0.7621
24399SOL    HW274649   8.827   8.460   4.948 -0.0590 -0.0512 -0.8937
24400SOL     OW74650   1.669   5.498   7.125 -0.1694 -0.5724 -0.0436
24400SOL    HW174651   1.636   5.488   7.036  1.1915  0.3593 -0.6914
24400SOL    HW274652   1.751   5.447   7.126  0.1013 -0.1424  0.5178
24401SOL     OW74653   5.372   6.900   2.225  0.4445 -0.3478 -0.3372
24401SOL    HW174654   5.421   6.836   2.174  1.1830  0.2641 -0.4081
24401SOL    HW274655   5.433   6.929   2.293  0.5946  1.2690 -1.1218
24402SOL     OW74656   4.988   3.527   5.476 -0.1178  0.2628 -0.7780
24402SOL    HW174657   4.997   3.604   5.419 -1.0662  1.4832  0.6260
24402SOL    HW274658   4.943   3.561   5.553  1.5196 -1.1905  0.9138
24403SOL     OW74659   7.679   8.989   3.869 -0.1605  0.3599 -0.3060
24403SOL    HW174660   7.666   9.049   3.942  1.3774  2.2080 -1.4620
24403SOL    HW274661   7.759   8.941   3.891 -0.8534 -0.6200  0.1600
24404SOL     OW74662   1.496   3.324   8.917  0.0341  0.1270 -0.4687
24404SOL    HW174663   1.557   3.250   8.913  1.1972  1.1069 -2.4254
24404SOL    HW274664   1.550   3.401   8.896 -1.2664  1.4809  0.8763
24405SOL     OW74665   8.372   7.095   3.968  0.0532  0.4538  0.7690
24405SOL    HW174666   8.354   7.072   4.060 -1.3193 -0.4499  0.3001
24405SOL    HW274667   8.289   7.129   3.936  0.1722 -0.3847 -0.4747
24406SOL     OW74668   0.156   7.022   2.535  0.4343  0.2227  0.0556
24406SOL    HW174669   0.128   7.055   2.621  0.5551  0.4310  0.0164
24406SOL    HW274670   0.203   7.095   2.496 -1.5211  0.9205 -1.1196
24407SOL     OW74671   2.663   6.634   6.283 -0.0732  0.0008 -0.0469
24407SOL    HW174672   2.691   6.543   6.271 -1.2060 -0.3355 -0.2080
24407SOL    HW274673   2.684   6.653   6.374  1.8720  0.2037 -0.4841
24408SOL     OW74674   4.319   3.628   1.638 -0.4649 -0.0734 -0.1287
24408SOL    HW174675   4.321   3.678   1.719 -1.7226  1.5814 -1.0753
24408SOL    HW274676   4.233   3.645   1.601 -0.6780 -2.3878 -0.8695
24409SOL     OW74677   1.012   6.478   4.725  0.1809  0.2654  0.4480
24409SOL    HW174678   0.943   6.473   4.790  0.6491  0.6443  0.9873
24409SOL    HW274679   0.983   6.421   4.654 -1.4572  1.6464 -0.0792
24410SOL     OW74680   5.091   2.474   8.967  0.6255  0.4605  0.0211
24410SOL    HW174681   5.023   2.409   8.949 -0.2875  1.4227 -0.1284
24410SOL    HW274682   5.064   2.551   8.918  2.6169  0.4381 -1.2269
24411SOL     OW74683   8.297   3.736   5.913 -0.0016  0.0608 -0.7547
24411SOL    HW174684   8.313   3.810   5.854 -1.0625  0.7847 -0.1524
24411SOL    HW274685   8.322   3.769   5.999 -0.1180 -0.4188 -0.5375
24412SOL     OW74686   0.888   8.822   1.051 -0.1682  0.3060  0.0764
24412SOL    HW174687   0.921   8.835   0.962 -1.2865  0.1614 -0.3760
24412SOL    HW274688   0.966   8.812   1.105  0.6554  3.2740 -0.4129
24413SOL     OW74689   5.781   0.584   0.837 -0.3662 -0.9420 -0.4718
24413SOL    HW174690   5.731   0.515   0.794 -1.7816 -0.9412  1.0937
24413SOL    HW274691   5.820   0.542   0.914  0.3021 -0.4221 -0.5107
24414SOL     OW74692   0.566   8.330   7.774  0.4403 -0.0428  0.0674
24414SOL    HW174693   0.529   8.328   7.685 -0.4550  0.5271  0.4107
24414SOL    HW274694   0.621   8.252   7.779 -0.6620 -0.8922 -0.5030
24415SOL     OW74695   4.817   1.205   4.016  0.0544  0.0563 -0.5067
24415SOL    HW174696   4.820   1.268   4.087  0.4176 -1.3768  0.7853
24415SOL    HW274697   4.879   1.239   3.951 -0.7668  1.7210 -0.4766
24416SOL     OW74698   5.123   6.153   0.259  0.1890  0.1179 -0.1984
24416SOL    HW174699   5.209   6.176   0.225 -0.1662 -0.7015 -1.7367
24416SOL    HW274700   5.133   6.067   0.298  0.0153 -0.0753 -0.5797
24417SOL     OW74701   6.274   2.499   6.876 -0.5223 -0.2802  0.2544
24417SOL    HW174702   6.198   2.461   6.831 -0.7386  1.7590 -1.2386
24417SOL    HW274703   6.349   2.473   6.822 -0.4543 -0.1867  0.3045
24418SOL     OW74704   6.169   4.333   8.323 -0.1194 -0.0181  0.1442
24418SOL    HW174705   6.177   4.402   8.388 -0.9871 -0.2863  0.5542
24418SOL    HW274706   6.212   4.368   8.245  0.3073  0.5873  0.6420
24419SOL     OW74707   0.164   2.676   5.169 -0.3985  0.4847  0.0019
24419SOL    HW174708   0.121   2.592   5.153 -1.1534  0.7111  0.7430
24419SOL    HW274709   0.244   2.653   5.216  0.8861 -0.0225 -2.2880
24420SOL     OW74710   2.681   4.256   0.554  0.1464 -0.4479 -0.3561
24420SOL    HW174711   2.777   4.255   0.550  0.1844  0.1500  0.1859
24420SOL    HW274712   2.653   4.195   0.487  0.9383 -2.1125  0.7710
24421SOL     OW74713   2.360   1.115   8.048  0.0659 -0.0685  0.7535
24421SOL    HW174714   2.455   1.130   8.051  0.3501 -1.8207  1.0393
24421SOL    HW274715   2.347   1.063   7.969 -0.9060  1.5556 -0.2199
24422SOL     OW74716   9.093   4.620   6.705  0.5287 -0.0844 -0.2663
24422SOL    HW174717   9.164   4.577   6.753 -0.6670 -1.0342  0.7305
24422SOL    HW274718   9.039   4.660   6.774 -0.7934 -0.8024 -0.8565
24423SOL     OW74719   6.016   8.422   7.273 -0.2102  0.3989 -0.1492
24423SOL    HW174720   6.101   8.378   7.268  0.9462  2.5597 -0.6947
24423SOL    HW274721   5.973   8.382   7.348  1.4187 -0.5159  0.3470
24424SOL     OW74722   2.328   6.240   5.106  0.0762 -0.0284  0.7960
24424SOL    HW174723   2.387   6.253   5.033  0.4815  1.8303  1.3873
24424SOL    HW274724   2.246   6.211   5.066  0.1396  1.4003 -0.4695
24425SOL     OW74725   4.171   2.014   4.948  0.7442 -0.6899 -0.1142
24425SOL    HW174726   4.109   2.064   5.002  2.1443  1.2288 -0.1780
24425SOL    HW274727   4.166   2.055   4.862  0.1998 -2.2481 -0.8491
24426SOL     OW74728   2.807   3.511   2.976  0.1593  0.0462  0.3161
24426SOL    HW174729   2.899   3.518   2.951  0.4245  0.1397  1.2784
24426SOL    HW274730   2.767   3.589   2.940  1.0505  1.5082  2.2706
24427SOL     OW74731   7.316   4.111   0.025  0.1717  0.1329 -0.3120
24427SOL    HW174732   7.392   4.124  -0.032  0.1998 -0.5871 -0.4454
24427SOL    HW274733   7.253   4.064  -0.030 -0.4993  0.9959 -0.3036
24428SOL     OW74734   3.917   6.160   6.961 -0.4716 -0.0805 -0.5710
24428SOL    HW174735   3.892   6.247   6.991  2.3460  0.2236  1.2625
24428SOL    HW274736   3.877   6.100   7.025  1.3362  0.2484  0.9590
24429SOL     OW74737   7.536   0.689   8.531 -0.4108 -0.0649  0.2783
24429SOL    HW174738   7.477   0.682   8.457 -0.9670  1.1561  0.5838
24429SOL    HW274739   7.533   0.781   8.556  3.5958  0.6929 -1.2959
24430SOL     OW74740   6.463   0.257   5.025 -0.1629  0.1646 -0.3271
24430SOL    HW174741   6.549   0.233   4.990  0.1980 -1.0552  1.2891
24430SOL    HW274742   6.480   0.338   5.075 -0.1460  0.4201 -0.7404
24431SOL     OW74743   4.886   6.587   7.954 -0.0448 -0.1374  0.1704
24431SOL    HW174744   4.824   6.608   7.884 -1.5005 -0.8814  1.1684
24431SOL    HW274745   4.856   6.639   8.028  1.2031  0.2963  0.3960
24432SOL     OW74746   3.168   1.802   2.650 -0.3996 -0.0606 -0.1492
24432SOL    HW174747   3.171   1.722   2.597  1.9775  0.1394 -0.4166
24432SOL    HW274748   3.244   1.796   2.707 -0.3139  1.8948  0.0014
24433SOL     OW74749   2.948   0.875   5.906 -0.3113 -0.0852 -0.2509
24433SOL    HW174750   3.006   0.866   5.981  0.9387  1.4636 -0.9538
24433SOL    HW274751   2.908   0.789   5.895  2.1492 -1.3560  0.0562
24434SOL     OW74752   7.400   3.428   6.435 -0.0178  0.3802 -0.1557
24434SOL    HW174753   7.335   3.448   6.368  0.1147  0.2378 -0.3295
24434SOL    HW274754   7.452   3.507   6.443  0.0049  0.3777 -0.2681
24435SOL     OW74755   0.311   4.072   6.438  0.4426  0.0685  0.2533
24435SOL    HW174756   0.384   4.022   6.401  0.6746  1.0085 -0.5997
24435SOL    HW274757   0.234   4.040   6.390  0.6624  0.8672 -0.6733
24436SOL     OW74758   7.169   7.283   0.181  0.5829 -0.0510 -0.1653
24436SOL    HW174759   7.250   7.254   0.138  0.9023  1.0376 -0.3195
24436SOL    HW274760   7.174   7.244   0.268  1.6073  0.5249  0.0544
24437SOL     OW74761   5.977   2.274   4.887 -0.2121 -0.2102 -0.1697
24437SOL    HW174762   6.071   2.284   4.874  0.1764 -0.9884  1.7715
24437SOL    HW274763   5.968   2.238   4.975 -2.3404 -0.0707 -0.2733
24438SOL     OW74764   2.133   8.715   2.304 -0.4842 -0.1527 -0.1228
24438SOL    HW174765   2.137   8.628   2.345 -0.0989  0.9933  2.4306
24438SOL    HW274766   2.175   8.773   2.367 -1.2554  2.0218 -1.5135
24439SOL     OW74767   4.043   6.477   1.631 -0.0873 -0.4815 -0.7072
24439SOL    HW174768   4.027   6.423   1.708 -0.8385 -0.9288 -1.1704
24439SOL    HW274769   4.097   6.549   1.663 -0.1713 -0.8046  0.1800
24440SOL     OW74770   8.499   7.656   2.964  0.4137  0.4273 -0.2597
24440SOL    HW174771   8.478   7.585   2.903 -0.9658  0.5843 -0.0017
24440SOL    HW274772   8.494   7.735   2.911  0.7179  0.4419 -0.2692
24441SOL     OW74773   2.981   5.947   2.523  0.0316  0.0697  0.1980
24441SOL    HW174774   3.066   5.952   2.566 -0.5137  0.3551  1.2586
24441SOL    HW274775   2.945   5.863   2.550 -0.0721 -0.0140 -0.1839
24442SOL     OW74776   8.813   9.230   3.819 -1.0215  0.0028 -0.4651
24442SOL    HW174777   8.774   9.268   3.740 -2.0501  0.8617  0.4122
24442SOL    HW274778   8.853   9.305   3.864  1.5729 -0.8178 -1.2389
24443SOL     OW74779   0.382   4.847   1.616 -0.4435  0.1951  0.0060
24443SOL    HW174780   0.342   4.853   1.703  2.6784 -0.4947  1.6325
24443SOL    HW274781   0.345   4.768   1.577  0.4412 -1.3254  2.0954
24444SOL     OW74782   5.588   3.300   4.127  0.0596 -0.2468  0.4113
24444SOL    HW174783   5.516   3.257   4.081  0.3425 -0.6793  0.3671
24444SOL    HW274784   5.550   3.329   4.210 -0.2895 -0.0320  0.1772
24445SOL     OW74785   6.565   5.266   3.771  0.4730  0.2373  0.3724
24445SOL    HW174786   6.522   5.182   3.788  1.6626 -0.5722 -0.4356
24445SOL    HW274787   6.499   5.331   3.791 -0.7586 -0.9198  0.2322
24446SOL     OW74788   7.881   4.737   6.637  0.5082 -0.0887  0.3221
24446SOL    HW174789   7.896   4.652   6.680  0.4193 -0.6787 -0.7768
24446SOL    HW274790   7.825   4.717   6.562 -1.0049  1.2292  1.0522
24447SOL     OW74791   2.894   4.168   0.321 -0.2273  0.3639 -0.8751
24447SOL    HW174792   2.807   4.149   0.286  0.2458  0.7405 -2.3457
24447SOL    HW274793   2.910   4.259   0.298  0.3606  0.4454 -0.1734
24448SOL     OW74794   4.640   6.436   6.790  0.0478 -0.0206  0.2532
24448SOL    HW174795   4.602   6.379   6.856  0.5957 -0.0345  0.5644
24448SOL    HW274796   4.588   6.420   6.711 -0.4547 -0.1811  0.6132
24449SOL     OW74797   1.768   2.686   2.761  0.0488  0.0035 -0.1671
24449SOL    HW174798   1.709   2.727   2.697 -0.8493 -2.4701 -1.0404
24449SOL    HW274799   1.778   2.752   2.829 -2.1816  1.2732 -0.9435
24450SOL     OW74800   5.219   8.135   2.628  0.1350 -0.3577 -0.3495
24450SOL    HW174801   5.198   8.041   2.626 -0.1949 -0.2888 -0.0658
24450SOL    HW274802   5.254   8.150   2.715  0.1645 -0.2110 -0.3868
24451SOL     OW74803   8.249   8.505   8.222 -0.6038 -0.0770  0.4587
24451SOL    HW174804   8.340   8.515   8.249 -0.6827  0.9747  0.3853
24451SOL    HW274805   8.253   8.454   8.141  0.3454  3.6747 -2.0823
24452SOL     OW74806   4.511   6.135   0.381 -0.4797 -0.1144  0.4517
24452SOL    HW174807   4.476   6.194   0.315  0.2987  0.6332  0.6817
24452SOL    HW274808   4.480   6.048   0.355 -0.9866  0.2905 -0.3365
24453SOL     OW74809   2.567   4.702   8.465 -0.0687  0.5687  0.6950
24453SOL    HW174810   2.621   4.704   8.544  1.1551 -0.6306 -0.0492
24453SOL    HW274811   2.631   4.698   8.393 -1.1196  2.7218 -0.4411
24454SOL     OW74812   8.911   5.325   2.120  0.0014  0.0127  0.3296
24454SOL    HW174813   9.002   5.314   2.090  1.0672 -1.6633  3.6314
24454SOL    HW274814   8.888   5.239   2.157 -2.7296  0.5958  0.1931
24455SOL     OW74815   6.265   4.638   7.654  0.0249 -0.4421  0.2002
24455SOL    HW174816   6.206   4.660   7.581 -0.8232  0.7795  1.2086
24455SOL    HW274817   6.231   4.555   7.688 -0.5710 -0.1987  0.2115
24456SOL     OW74818   0.561   0.755   6.919 -0.2666  0.0602  0.5699
24456SOL    HW174819   0.593   0.838   6.882  0.8153 -1.6991 -2.9696
24456SOL    HW274820   0.630   0.728   6.980  0.8286  0.4164 -0.4653
24457SOL     OW74821   2.563   6.845   6.665  0.2508 -0.1617  0.2488
24457SOL    HW174822   2.483   6.891   6.638 -1.3257 -2.4720  0.6412
24457SOL    HW274823   2.546   6.818   6.755  1.4648 -0.7611  0.3207
24458SOL     OW74824   4.891   1.552   8.252 -0.6275  0.1478  0.2981
24458SOL    HW174825   4.955   1.582   8.317  1.4503 -0.7058 -1.2206
24458SOL    HW274826   4.908   1.606   8.174 -0.8867 -0.9233 -0.5336
24459SOL     OW74827   0.963   9.186   2.978  0.4517 -0.1482  0.1503
24459SOL    HW174828   0.936   9.274   2.952  1.2442 -0.0802 -0.4543
24459SOL    HW274829   0.912   9.128   2.921 -1.1256 -0.1598  1.4884
24460SOL     OW74830   0.687   2.986   8.217 -0.4969  0.8776 -0.0223
24460SOL    HW174831   0.671   3.014   8.127 -1.7779 -0.0780 -0.1317
24460SOL    HW274832   0.674   3.065   8.269 -0.5661  1.2631 -0.6133
24461SOL     OW74833   8.374   8.572   4.078  0.2278  0.2197 -0.4834
24461SOL    HW174834   8.444   8.583   4.143  0.6650 -2.3278 -0.4171
24461SOL    HW274835   8.414   8.518   4.010 -1.3954 -0.5071 -0.8981
24462SOL     OW74836   3.788   3.116   1.449  0.0223 -0.7466  0.7750
24462SOL    HW174837   3.744   3.202   1.451  3.0370  0.9278  0.6724
24462SOL    HW274838   3.726   3.057   1.493 -1.7996  1.6654  1.6972
24463SOL     OW74839   4.638   1.091   8.002 -0.8472  0.5529 -0.1076
24463SOL    HW174840   4.630   1.012   7.949 -0.1494  0.0510  0.5299
24463SOL    HW274841   4.585   1.074   8.080 -0.2719  0.4973  0.2774
24464SOL     OW74842   8.833   8.302   1.284 -0.8602  0.1303  0.3559
24464SOL    HW174843   8.805   8.355   1.210 -1.1511 -0.8299 -0.2369
24464SOL    HW274844   8.755   8.251   1.308 -0.3424 -0.6901  0.3389
24465SOL     OW74845   6.209   6.782   6.127 -0.2086 -0.1381 -0.2926
24465SOL    HW174846   6.213   6.794   6.032 -0.4802  0.8620 -0.1885
24465SOL    HW274847   6.151   6.852   6.158 -2.0036 -1.8174  0.3728
24466SOL     OW74848   8.963   7.289   7.908 -0.3319  0.3857  0.0969
24466SOL    HW174849   8.924   7.209   7.873 -1.1487  0.3737  0.9786
24466SOL    HW274850   9.047   7.296   7.864 -1.0683  0.0821 -1.4083
24467SOL     OW74851   3.572   6.867   4.155 -0.5877  0.2108  0.0335
24467SOL    HW174852   3.499   6.864   4.216 -2.0819  0.5595 -1.6343
24467SOL    HW274853   3.639   6.811   4.194 -2.4558 -1.6457  0.7579
24468SOL     OW74854   5.355   7.803   3.115 -0.1329  0.3479  0.8241
24468SOL    HW174855   5.379   7.746   3.042 -0.8917  1.4897 -0.3554
24468SOL    HW274856   5.425   7.791   3.179  1.2188  0.2414 -0.6146
24469SOL     OW74857   3.748   1.545   1.311 -0.0176 -0.3621 -0.3677
24469SOL    HW174858   3.826   1.504   1.348 -0.0771 -0.7610 -0.6732
24469SOL    HW274859   3.781   1.622   1.265  0.1592 -0.3705 -0.2574
24470SOL     OW74860   7.154   8.430   2.969  0.0039 -0.2141  0.6073
24470SOL    HW174861   7.170   8.342   2.934  0.3483 -0.6066  1.7123
24470SOL    HW274862   7.068   8.454   2.933  0.1762 -0.7514 -0.1864
24471SOL     OW74863   0.743   2.173   3.864  0.4706 -0.6500 -0.3272
24471SOL    HW174864   0.785   2.160   3.779 -0.3825 -1.9115 -0.5809
24471SOL    HW274865   0.810   2.215   3.918  0.7807  0.8569 -1.8306
24472SOL     OW74866   5.165   7.005   0.048  0.2528 -0.2930 -0.1685
24472SOL    HW174867   5.172   6.924   0.097 -1.3226  0.1304  0.8337
24472SOL    HW274868   5.184   6.981  -0.043 -0.4033 -1.8194  0.0785
24473SOL     OW74869   8.929   7.323   4.144 -0.0371  0.3662  0.0180
24473SOL    HW174870   8.915   7.399   4.200  0.2494  0.6552 -0.3005
24473SOL    HW274871   9.021   7.301   4.155 -0.5492 -1.2261  1.7253
24474SOL     OW74872   9.015   1.288   6.009 -0.1256 -0.1614 -0.1647
24474SOL    HW174873   9.077   1.349   6.049  0.6748 -0.7240 -0.5366
24474SOL    HW274874   9.025   1.301   5.915  0.5946 -1.3878 -0.2705
24475SOL     OW74875   0.341   4.164   6.111 -1.0646 -0.2313  0.0737
24475SOL    HW174876   0.384   4.119   6.184 -3.8549 -0.9897  1.4041
24475SOL    HW274877   0.340   4.100   6.040  2.1163  0.6788 -0.9509
24476SOL     OW74878   3.377   0.340   9.220  0.0936 -0.0302  0.1502
24476SOL    HW174879   3.331   0.291   9.287  1.0260 -1.2556 -0.0700
24476SOL    HW274880   3.331   0.320   9.139  0.7173 -0.8931 -0.0012
24477SOL     OW74881   5.797   0.525   8.115 -0.4642  0.1387 -0.0544
24477SOL    HW174882   5.721   0.473   8.142 -0.1463 -0.0220  0.5632
24477SOL    HW274883   5.795   0.601   8.174  0.5472 -0.4775  0.8017
24478SOL     OW74884   6.392   6.016   4.013 -0.2175  0.0123  0.0915
24478SOL    HW174885   6.305   6.031   3.975 -0.5160 -0.7001  0.4661
24478SOL    HW274886   6.374   5.969   4.094  0.6721 -3.7123 -1.6587
24479SOL     OW74887   2.900   6.232   6.843 -0.0489  0.2679  0.2886
24479SOL    HW174888   2.973   6.255   6.900 -0.6453  0.3750  1.0251
24479SOL    HW274889   2.936   6.238   6.754  1.2907 -1.2658  0.6779
24480SOL     OW74890   0.503   7.280   1.322 -0.4940 -0.6426  0.4844
24480SOL    HW174891   0.483   7.366   1.360  1.1485 -0.5794  1.2888
24480SOL    HW274892   0.421   7.252   1.282 -1.5310  0.5409  1.6867
24481SOL     OW74893   6.389   5.932   1.214 -0.1114 -0.3721 -0.3109
24481SOL    HW174894   6.406   5.981   1.133 -0.9532  1.1028  0.3487
24481SOL    HW274895   6.474   5.929   1.258  0.0595  0.0924 -0.5966
24482SOL     OW74896   9.149   4.503   1.515 -0.5599 -0.3493  0.1566
24482SOL    HW174897   9.084   4.433   1.513 -0.0404 -0.8241 -1.0321
24482SOL    HW274898   9.177   4.507   1.606  0.5247 -2.7928  0.0059
24483SOL     OW74899   5.785   0.769   5.077  0.7995  0.1678 -0.4509
24483SOL    HW174900   5.837   0.720   5.014 -1.3834 -1.9640 -0.7254
24483SOL    HW274901   5.751   0.843   5.028  2.2340  0.7148 -0.6743
24484SOL     OW74902   4.377   2.457   3.628 -0.1775  0.1611  0.1022
24484SOL    HW174903   4.354   2.367   3.649  0.0243  0.1352  0.2134
24484SOL    HW274904   4.467   2.467   3.660  0.0674  0.1786 -0.5833
24485SOL     OW74905   1.737   6.196   1.259  0.0763  0.1238  0.1753
24485SOL    HW174906   1.814   6.195   1.203  0.3585  0.3077  0.5528
24485SOL    HW274907   1.733   6.286   1.293 -0.4983  0.2143 -0.1053
24486SOL     OW74908   3.662   0.618   4.875  0.2112  0.7333 -0.2799
24486SOL    HW174909   3.737   0.559   4.875  1.1300  1.8636 -0.4648
24486SOL    HW274910   3.687   0.689   4.934 -1.5312  0.1575  1.2404
24487SOL     OW74911   2.986   7.857   7.839 -1.0553  0.4349 -0.3164
24487SOL    HW174912   3.012   7.943   7.805 -1.4726  0.2074 -1.2551
24487SOL    HW274913   3.068   7.817   7.866 -0.6442  0.4935 -1.4118
24488SOL     OW74914   9.199   1.186   4.506 -0.5643 -0.6588 -0.0667
24488SOL    HW174915   9.272   1.147   4.457 -1.4986 -0.5109 -1.6389
24488SOL    HW274916   9.219   1.167   4.597  0.9210 -1.5167 -0.5331
24489SOL     OW74917   1.567   0.582   4.235  0.2410  0.4170 -0.3012
24489SOL    HW174918   1.473   0.600   4.229  0.5250  2.1868 -0.0901
24489SOL    HW274919   1.605   0.628   4.161  1.0198  0.3453  0.0480
24490SOL     OW74920   7.917   0.872   8.568 -0.9193 -0.2127  0.0288
24490SOL    HW174921   8.011   0.886   8.553 -0.7756  0.1765  1.1755
24490SOL    HW274922   7.913   0.786   8.610 -1.0958 -0.2903 -0.1460
24491SOL     OW74923   1.167   2.179   7.671 -0.3029  0.1462  0.1464
24491SOL    HW174924   1.074   2.195   7.686 -0.3281 -0.5662  0.8186
24491SOL    HW274925   1.181   2.090   7.703  0.7581  0.5137  0.7416
24492SOL     OW74926   7.646   6.716   7.584  0.0733  0.4009 -0.6656
24492SOL    HW174927   7.665   6.741   7.494  0.7761  0.7854 -0.4159
24492SOL    HW274928   7.551   6.728   7.593  0.2040  1.7294 -0.9315
24493SOL     OW74929   2.457   0.055   2.255  0.2263 -0.3562 -0.0657
24493SOL    HW174930   2.381   0.013   2.214 -0.5918  0.2551  0.7820
24493SOL    HW274931   2.422   0.134   2.296  1.3281 -0.0576  0.3414
24494SOL     OW74932   1.274   5.252   0.516 -0.2068 -0.4437 -0.2074
24494SOL    HW174933   1.312   5.221   0.434  2.0933  1.7842 -0.0859
24494SOL    HW274934   1.306   5.190   0.582 -1.9421 -2.1541 -0.8398
24495SOL     OW74935   8.827   6.800   2.531  0.3228  0.0275 -0.7150
24495SOL    HW174936   8.773   6.773   2.605 -0.3579 -0.3387 -1.3387
24495SOL    HW274937   8.769   6.795   2.455  0.7817  1.1582 -1.1736
24496SOL     OW74938   6.657   6.228   8.392 -0.0975  0.7966 -0.6034
24496SOL    HW174939   6.695   6.207   8.477  1.1694 -1.2190 -1.5821
24496SOL    HW274940   6.651   6.323   8.391 -0.7897  0.8393  1.9685
24497SOL     OW74941   1.209   4.686   5.356  0.4108  0.0004  0.5738
24497SOL    HW174942   1.182   4.633   5.431 -0.2863 -1.1773 -0.4729
24497SOL    HW274943   1.134   4.683   5.296  0.7451  1.3623  0.0585
24498SOL     OW74944   5.611   4.705   2.140 -0.3697  0.0581  0.2745
24498SOL    HW174945   5.560   4.741   2.067 -0.1183  0.1530  0.1447
24498SOL    HW274946   5.573   4.618   2.155  0.4082 -0.4973 -0.8188
24499SOL     OW74947   1.737   8.434   4.717  0.2051  0.0513  0.2404
24499SOL    HW174948   1.763   8.441   4.625  2.2127  1.8157  0.8810
24499SOL    HW274949   1.686   8.514   4.733  3.8480  2.2889  1.7647
24500SOL     OW74950   0.852   7.404   6.268  0.1765 -0.1706 -0.0115
24500SOL    HW174951   0.777   7.380   6.322 -0.2525 -0.6276 -0.7887
24500SOL    HW274952   0.815   7.420   6.181  1.1435 -1.9288 -0.7973
24501SOL     OW74953   2.660   5.589   6.648 -0.1316  0.0710  0.3434
24501SOL    HW174954   2.605   5.513   6.627  0.6610 -0.8764  1.5709
24501SOL    HW274955   2.649   5.601   6.742  1.0511  0.4457  0.4430
24502SOL     OW74956   5.488   5.265   0.188 -0.2212 -0.3885 -0.7118
24502SOL    HW174957   5.576   5.228   0.175  0.7662  1.3990  0.4622
24502SOL    HW274958   5.486   5.342   0.131 -0.6822  0.0910 -0.0592
24503SOL     OW74959   5.483   5.067   6.388  0.2199  1.4013  0.0147
24503SOL    HW174960   5.466   5.051   6.481  2.6728  0.7782  0.4087
24503SOL    HW274961   5.578   5.075   6.381  0.0991  1.5031 -2.4396
24504SOL     OW74962   4.756   5.245   7.721 -0.4932  0.2082 -0.2328
24504SOL    HW174963   4.730   5.154   7.732  1.5780 -0.5516 -1.0971
24504SOL    HW274964   4.675   5.295   7.727 -1.4885 -1.5357  1.7476
24505SOL     OW74965   0.894   2.547   1.106 -0.2488 -0.2352 -0.2172
24505SOL    HW174966   0.980   2.586   1.098 -0.0714 -0.3538  0.9310
24505SOL    HW274967   0.910   2.453   1.099 -0.7008 -0.1949 -3.2135
24506SOL     OW74968   8.241   3.589   1.711 -0.4494 -0.1247  0.2514
24506SOL    HW174969   8.163   3.642   1.722  0.4385  1.2146  0.3753
24506SOL    HW274970   8.257   3.550   1.797 -1.4826 -1.1756 -0.0095
24507SOL     OW74971   4.557   3.576   4.597  0.0903  0.1017  0.5054
24507SOL    HW174972   4.463   3.560   4.599  0.3181 -1.3278  1.0955
24507SOL    HW274973   4.569   3.642   4.529 -1.1440 -1.1500 -1.0070
24508SOL     OW74974   6.509   1.065   7.926  0.1504 -0.0283 -0.4283
24508SOL    HW174975   6.520   0.970   7.932  2.0589  0.2570  2.5146
24508SOL    HW274976   6.414   1.077   7.916 -0.4560 -2.2262  1.6056
24509SOL     OW74977   4.205   4.782   8.193 -0.4692 -0.6529  0.1263
24509SOL    HW174978   4.137   4.767   8.260 -0.3963  1.0416  0.6166
24509SOL    HW274979   4.276   4.723   8.219  0.1243  0.9184  2.4246
24510SOL     OW74980   0.203   8.141   5.672 -0.0948 -0.0547 -0.1903
24510SOL    HW174981   0.287   8.173   5.705 -1.0288  1.2098  1.0552
24510SOL    HW274982   0.205   8.161   5.579  2.5342 -3.5350 -1.1334
24511SOL     OW74983   7.486   1.828   6.667 -0.0295 -0.6007  0.1889
24511SOL    HW174984   7.414   1.891   6.661  1.7928  1.4776 -1.3844
24511SOL    HW274985   7.457   1.754   6.613 -1.6758 -0.5871  0.9988
24512SOL     OW74986   1.968   7.617   5.724  0.3168  0.5704  0.0210
24512SOL    HW174987   1.922   7.572   5.653 -1.7662  1.3418  0.7945
24512SOL    HW274988   2.052   7.573   5.730 -0.6441 -1.5356 -0.9195
24513SOL     OW74989   8.614   8.311   4.766  0.3766  0.2499 -0.3763
24513SOL    HW174990   8.622   8.403   4.790  0.7323  0.5220 -1.4703
24513SOL    HW274991   8.596   8.265   4.848 -1.3451  1.4877 -0.0232
24514SOL     OW74992   3.943   7.007   4.511  0.6761 -0.2735 -0.2732
24514SOL    HW174993   3.890   7.005   4.431  1.1923  0.6744 -0.6625
24514SOL    HW274994   3.959   7.101   4.526  0.4330 -0.4270  1.0449
24515SOL     OW74995   8.354   5.880   3.686  0.6393 -0.4467 -0.1026
24515SOL    HW174996   8.302   5.839   3.755 -1.6628  1.6825 -0.4181
24515SOL    HW274997   8.386   5.961   3.725 -0.2166  0.5096 -1.2953
24516SOL     OW74998   7.275   1.501   2.421 -0.2374  0.0022  0.1012
24516SOL    HW174999   7.248   1.537   2.505 -0.1981 -0.4786  0.3176
24516SOL    HW275000   7.364   1.535   2.408 -0.4287  0.4795  0.0189
24517SOL     OW75001   4.157   0.853   5.529  0.2332 -0.3302  0.0651
24517SOL    HW175002   4.182   0.771   5.486  1.1051  0.6395 -1.3402
24517SOL    HW275003   4.122   0.907   5.458 -2.1227 -0.1315  1.2818
24518SOL     OW75004   3.846   5.063   3.114  0.3289  0.1605 -0.5554
24518SOL    HW175005   3.845   4.990   3.177  0.2718 -0.2639 -1.0378
24518SOL    HW275006   3.800   5.028   3.037  1.4535  0.2509 -1.2919
24519SOL     OW75007   3.415   2.509   1.083  0.1574  0.1103 -0.0523
24519SOL    HW175008   3.455   2.442   1.138  0.6285 -1.8212 -2.6034
24519SOL    HW275009   3.328   2.522   1.121  0.5653 -0.9136  1.3036
24520SOL     OW75010   7.329   1.729   7.408  0.0062 -0.2448 -0.8748
24520SOL    HW175011   7.247   1.678   7.407 -0.9096  1.1886 -1.2006
24520SOL    HW275012   7.302   1.816   7.436  1.6336 -0.0424  0.1876
24521SOL     OW75013   6.648   0.082   8.735 -0.0907  0.1334  0.4110
24521SOL    HW175014   6.600   0.155   8.774  0.8435 -0.6019  3.1887
24521SOL    HW275015   6.593   0.006   8.753 -0.0071 -0.1523 -0.4870
24522SOL     OW75016   1.194   7.652   0.085  0.0162  0.5848 -0.5462
24522SOL    HW175017   1.277   7.694   0.061  0.8077  0.2263  1.3710
24522SOL    HW275018   1.185   7.581   0.022  1.9127 -0.2343  0.0163
24523SOL     OW75019   0.004   8.781   5.215  0.0856 -0.4124  0.1897
24523SOL    HW175020  -0.050   8.834   5.274  0.4197  0.5268 -0.3282
24523SOL    HW275021  -0.057   8.754   5.146  0.3620  1.1015 -0.6870
24524SOL     OW75022   8.293   7.851   1.228 -0.1424  0.3729  0.9197
24524SOL    HW175023   8.307   7.758   1.249 -0.1383 -0.2874 -1.6789
24524SOL    HW275024   8.197   7.861   1.226 -0.1725 -0.0314 -0.4499
24525SOL     OW75025   7.709   0.511   7.242 -0.2632 -0.2737  0.1255
24525SOL    HW175026   7.706   0.428   7.289  1.2590 -0.7783 -0.5912
24525SOL    HW275027   7.788   0.554   7.275  0.5941 -0.4517 -1.5990
24526SOL     OW75028   6.498   3.277   5.382 -0.2540 -0.2706 -0.5732
24526SOL    HW175029   6.481   3.370   5.368 -0.9890 -0.2207  0.5272
24526SOL    HW275030   6.413   3.240   5.406 -0.1730 -1.4395 -1.9607
24527SOL     OW75031   0.193   0.864   6.578  0.6351 -0.4370 -0.6267
24527SOL    HW175032   0.273   0.905   6.609 -0.4647  0.1958  1.6058
24527SOL    HW275033   0.166   0.917   6.503  1.2759  0.5303 -0.1848
24528SOL     OW75034   9.220   0.035   5.162  0.0382  0.0564 -0.0652
24528SOL    HW175035   9.246  -0.024   5.233  0.9143 -0.7805 -1.0433
24528SOL    HW275036   9.276   0.010   5.088  0.3205  2.0040 -0.5680
24529SOL     OW75037   5.794   1.352   3.703  0.2894  0.5477 -0.9125
24529SOL    HW175038   5.811   1.288   3.634  0.4779  0.3728 -0.7034
24529SOL    HW275039   5.707   1.329   3.736  0.0904  0.7870 -1.2598
24530SOL     OW75040   0.055   3.023   4.265 -0.3017  0.3113 -0.5945
24530SOL    HW175041   0.086   3.106   4.228 -1.9403  1.2632  0.0887
24530SOL    HW275042   0.061   2.960   4.193  1.0453  0.9703 -1.0950
24531SOL     OW75043   1.986   0.497   8.713 -0.1183  0.1872 -0.6895
24531SOL    HW175044   2.034   0.566   8.667  0.6132 -1.2854 -2.2418
24531SOL    HW275045   1.954   0.539   8.793  0.6265  2.2005 -1.3893
24532SOL     OW75046   7.492   0.972   8.685 -0.0782  0.5283 -0.7744
24532SOL    HW175047   7.583   0.957   8.711 -0.0234  1.5687 -0.3162
24532SOL    HW275048   7.441   0.927   8.752  0.0863  1.7399  0.1921
24533SOL     OW75049   2.880   5.640   7.398  0.3153 -0.0817  0.6739
24533SOL    HW175050   2.966   5.681   7.405 -0.1325  0.8204  0.9871
24533SOL    HW275051   2.874   5.613   7.307  0.7406  0.2845  0.5328
24534SOL     OW75052   3.909   4.549   4.506 -0.1045 -0.6266  0.2033
24534SOL    HW175053   3.896   4.465   4.550  1.0690  0.2313  2.3340
24534SOL    HW275054   3.833   4.602   4.532 -1.4459 -1.2888 -2.0507
24535SOL     OW75055   0.781   4.878   3.900 -0.1679  0.7184 -0.0420
24535SOL    HW175056   0.843   4.809   3.924 -0.0718  0.8437  0.0704
24535SOL    HW275057   0.745   4.908   3.984  1.9271  2.8216  0.2188
24536SOL     OW75058   5.851   5.816   2.505  0.4438  0.2124  0.4439
24536SOL    HW175059   5.893   5.731   2.493 -0.0876 -0.0600  0.4844
24536SOL    HW275060   5.920   5.880   2.488  0.3585 -0.1909 -1.6195
24537SOL     OW75061   1.533   9.094   3.993 -0.0058 -0.0404  0.4397
24537SOL    HW175062   1.509   9.002   3.993  0.3196 -0.1322 -0.8640
24537SOL    HW275063   1.459   9.138   3.951  0.6899  0.0565 -0.7000
24538SOL     OW75064   3.585   7.273   0.308  0.5446 -0.3111 -0.3684
24538SOL    HW175065   3.648   7.229   0.364 -0.9823 -0.8891  0.9730
24538SOL    HW275066   3.597   7.233   0.222 -1.4130 -4.2180  0.9737
24539SOL     OW75067   0.287   5.226   6.552 -0.3208 -0.5657  0.5794
24539SOL    HW175068   0.343   5.190   6.621 -0.2403 -0.0812  0.7652
24539SOL    HW275069   0.211   5.168   6.551  0.3547 -1.4943  0.0366
24540SOL     OW75070   3.656   8.448   6.132  0.1976  0.2452  0.0078
24540SOL    HW175071   3.683   8.357   6.141 -0.2664  0.2638  2.2545
24540SOL    HW275072   3.709   8.495   6.198 -1.6281  1.0877  0.9555
24541SOL     OW75073   7.984   1.301   0.205 -0.0759  0.1484  0.4438
24541SOL    HW175074   8.046   1.345   0.148  0.4755 -0.2578  0.7209
24541SOL    HW275075   8.016   1.318   0.294 -1.3801  1.4649  0.6988
24542SOL     OW75076   2.499   3.521   2.454 -0.2688 -0.0523 -0.6088
24542SOL    HW175077   2.532   3.535   2.543 -0.5030  0.6501 -0.6231
24542SOL    HW275078   2.454   3.437   2.457 -2.9649  1.2897  0.7723
24543SOL     OW75079   1.696   2.100   0.224  0.2942 -0.0134 -0.5309
24543SOL    HW175080   1.692   2.013   0.185  1.2972  0.0430 -0.7897
24543SOL    HW275081   1.706   2.160   0.150  0.2802  0.2607 -0.3128
24544SOL     OW75082   0.778   3.665   6.155  0.0776  0.0182 -0.2123
24544SOL    HW175083   0.801   3.707   6.072  1.3923 -1.6528 -0.7516
24544SOL    HW275084   0.827   3.715   6.221 -0.0431  0.6270 -0.5734
24545SOL     OW75085   6.461   2.431   3.953  0.1308 -0.4733 -0.5991
24545SOL    HW175086   6.415   2.473   4.025  1.4959  0.5596 -0.2842
24545SOL    HW275087   6.400   2.435   3.880 -0.5333  0.2722 -0.0187
24546SOL     OW75088   8.667   0.553   3.231  0.5873 -0.2679 -0.0231
24546SOL    HW175089   8.613   0.506   3.168  0.3851 -0.7818  0.5213
24546SOL    HW275090   8.700   0.629   3.183 -1.9648  1.0074  0.0678
24547SOL     OW75091   6.528   6.984   7.568 -0.6727 -0.0529 -0.0896
24547SOL    HW175092   6.438   7.018   7.568  0.4981  3.5074  0.9405
24547SOL    HW275093   6.553   6.982   7.476 -1.8062 -1.2520 -0.4039
24548SOL     OW75094   0.128   1.018   6.375  0.1158 -0.1407  0.0434
24548SOL    HW175095   0.201   0.982   6.325 -0.8272 -1.2138 -0.6082
24548SOL    HW275096   0.118   1.108   6.343 -0.0279 -0.5912 -1.1983
24549SOL     OW75097   2.082   0.766   8.006  0.2303 -0.0751 -0.3783
24549SOL    HW175098   2.097   0.828   8.077  1.9681 -1.1954  0.3026
24549SOL    HW275099   2.036   0.693   8.046 -1.2157  0.4217 -1.0394
24550SOL     OW75100   0.570   4.997   8.600 -0.2310  0.2628 -0.0285
24550SOL    HW175101   0.641   5.041   8.646  0.0192 -0.4515  0.2782
24550SOL    HW275102   0.569   4.909   8.636 -0.1058 -0.2802 -1.2856
24551SOL     OW75103   3.481   1.776   1.356  0.2814  0.4232 -0.5460
24551SOL    HW175104   3.492   1.871   1.355  0.7944  0.3641 -1.2763
24551SOL    HW275105   3.560   1.743   1.400 -0.4195  0.3799  0.7433
24552SOL     OW75106   4.892   4.604   8.329 -0.5356 -0.3724  0.5896
24552SOL    HW175107   4.980   4.637   8.348 -0.8563  0.8863 -0.0540
24552SOL    HW275108   4.837   4.639   8.399 -0.9158  0.6664 -0.2121
24553SOL     OW75109   7.959   5.612   6.765  0.0915  0.0037 -1.5231
24553SOL    HW175110   8.011   5.651   6.695  0.0939  1.3394 -0.8096
24553SOL    HW275111   7.879   5.665   6.769 -0.9293 -1.4286 -1.9635
24554SOL     OW75112   8.436   0.863   3.360  0.3051  0.0154  0.6453
24554SOL    HW175113   8.385   0.935   3.398  0.0126  0.2311 -0.1186
24554SOL    HW275114   8.527   0.891   3.368  0.1966  0.4440  0.4180
24555SOL     OW75115   5.486   1.213   3.849  0.2143  0.4024  0.7327
24555SOL    HW175116   5.491   1.282   3.914 -1.3161  1.4293 -0.1669
24555SOL    HW275117   5.400   1.224   3.808  0.8167 -0.6436 -0.9637
24556SOL     OW75118   2.867   2.506   4.159 -0.6259  0.1183 -0.2429
24556SOL    HW175119   2.817   2.435   4.200 -0.9106  0.0944 -0.6258
24556SOL    HW275120   2.862   2.578   4.221  0.4502 -0.4850  0.5904
24557SOL     OW75121   2.339   4.409   5.120 -0.1778  0.1232  0.5819
24557SOL    HW175122   2.321   4.475   5.053  2.1479  0.4553  0.1783
24557SOL    HW275123   2.426   4.432   5.153  0.4900 -2.4203  0.8086
24558SOL     OW75124   8.679   6.421   3.405  0.5126 -0.0320  0.2132
24558SOL    HW175125   8.587   6.448   3.396  0.2738  0.0333  2.3705
24558SOL    HW275126   8.713   6.473   3.478  2.1099 -0.4820 -0.1690
24559SOL     OW75127   0.945   7.412   7.649  0.0355 -0.5642  0.4701
24559SOL    HW175128   0.915   7.371   7.567  2.5748 -0.4662 -0.6290
24559SOL    HW275129   0.969   7.338   7.705 -1.2725 -0.6234  0.9791
24560SOL     OW75130   4.577   2.511   2.566 -0.1768  0.1147 -0.3703
24560SOL    HW175131   4.621   2.539   2.646 -0.1464  0.6284 -0.5688
24560SOL    HW275132   4.486   2.539   2.578  0.0774  1.2781 -1.0306
24561SOL     OW75133   5.112   6.396   6.151  0.2435  0.6870  0.1034
24561SOL    HW175134   5.083   6.405   6.061 -0.7398  1.9109  0.5047
24561SOL    HW275135   5.199   6.357   6.145  0.8171  2.0894 -1.4541
24562SOL     OW75136   0.899   2.717   0.279  0.3742  0.1164  0.0801
24562SOL    HW175137   0.852   2.734   0.360 -0.5710  0.8498 -0.5895
24562SOL    HW275138   0.846   2.760   0.211  1.2076 -0.3544 -0.9044
24563SOL     OW75139   5.347   6.064   7.992  0.0163  0.5834 -0.3509
24563SOL    HW175140   5.340   6.159   7.996 -2.6270  0.5280 -1.4649
24563SOL    HW275141   5.316   6.041   7.905  0.5893 -1.2963 -0.1019
24564SOL     OW75142   5.405   6.825   8.202 -0.0606  0.5156 -0.5002
24564SOL    HW175143   5.319   6.867   8.211  1.3645  3.7402 -0.3512
24564SOL    HW275144   5.439   6.823   8.291 -0.2637 -1.5545 -0.4365
24565SOL     OW75145   0.362   3.244   5.984 -0.6748 -0.1689  0.0089
24565SOL    HW175146   0.393   3.168   5.934 -1.1580  0.7298 -1.7433
24565SOL    HW275147   0.269   3.252   5.961 -1.3399 -0.6045  2.2808
24566SOL     OW75148   7.898   9.174   0.066 -0.1014  0.1959 -0.5308
24566SOL    HW175149   7.899   9.138  -0.022 -1.2983  0.3478 -0.6150
24566SOL    HW275150   7.834   9.245   0.063 -1.8059 -1.1855  0.9736
24567SOL     OW75151   0.569   3.204   8.380  0.5092  0.1779  0.5392
24567SOL    HW175152   0.565   3.298   8.398 -1.0737  0.0276  1.1475
24567SOL    HW275153   0.626   3.170   8.449  0.0368  0.5276  1.1177
24568SOL     OW75154   5.596   6.262   4.418  0.0258 -0.1939  0.0574
24568SOL    HW175155   5.540   6.301   4.350  2.4918  0.8201 -1.5227
24568SOL    HW275156   5.573   6.310   4.498 -1.1905  0.3223 -0.5676
24569SOL     OW75157   6.300   8.600   2.721 -0.5456 -0.4896  0.1570
24569SOL    HW175158   6.248   8.527   2.686 -0.1113 -1.8209  2.1506
24569SOL    HW275159   6.269   8.610   2.811 -0.7816  2.0223 -0.1278
24570SOL     OW75160   0.130   5.896   2.057 -0.0660  0.1237  0.2942
24570SOL    HW175161   0.149   5.816   2.007 -3.1057  1.2750 -3.1526
24570SOL    HW275162   0.078   5.866   2.131 -0.2202 -1.1880 -0.3204
24571SOL     OW75163   8.425   5.779   3.447 -0.2878  0.1177  0.0131
24571SOL    HW175164   8.363   5.706   3.458  0.3414 -0.4228 -0.0172
24571SOL    HW275165   8.405   5.838   3.521  0.7038 -1.1895  1.3822
24572SOL     OW75166   8.353   0.023   8.448 -0.3109 -0.0937  0.0409
24572SOL    HW175167   8.279  -0.023   8.410  0.3509 -0.3052 -1.0302
24572SOL    HW275168   8.364   0.100   8.392  0.7409 -0.4604 -0.2720
24573SOL     OW75169   8.388   3.460   5.863  0.2954  0.2619  0.1801
24573SOL    HW175170   8.453   3.478   5.795 -0.1634 -0.2165 -0.3950
24573SOL    HW275171   8.358   3.547   5.891  0.5534  0.4637 -0.1642
24574SOL     OW75172   2.751   1.317   6.145  0.2229 -0.0440 -0.3113
24574SOL    HW175173   2.831   1.332   6.195  0.0596 -0.3580  0.0541
24574SOL    HW275174   2.715   1.405   6.130  1.1512  0.1734 -1.3648
24575SOL     OW75175   7.719   4.773   3.158 -0.1020 -0.0455 -0.3029
24575SOL    HW175176   7.737   4.865   3.178  1.1522  0.3073 -2.7465
24575SOL    HW275177   7.638   4.776   3.107  0.9147 -0.0231 -2.0005
24576SOL     OW75178   9.215   7.199   4.433 -0.2473 -0.2990 -0.2795
24576SOL    HW175179   9.134   7.240   4.462 -0.6402 -0.6560 -0.8280
24576SOL    HW275180   9.227   7.124   4.491 -0.1702 -0.0954 -0.0333
24577SOL     OW75181   4.497   7.945   4.952 -0.8046 -0.2007  0.4464
24577SOL    HW175182   4.483   7.855   4.922 -0.4113  0.2139 -1.1012
24577SOL    HW275183   4.586   7.946   4.985  0.2209  0.1828 -2.0697
24578SOL     OW75184   2.404   1.081   8.418  0.1617 -0.1551 -0.1869
24578SOL    HW175185   2.480   1.135   8.395 -0.0018  1.7887  3.1601
24578SOL    HW275186   2.442   1.003   8.457  0.5372  0.7850  1.4290
24579SOL     OW75187   7.973   1.260   6.517 -0.0899  0.3035  0.1810
24579SOL    HW175188   8.064   1.273   6.543 -0.3096 -0.6663  1.5768
24579SOL    HW275189   7.929   1.341   6.544  0.4913  1.1257 -1.2786
24580SOL     OW75190   7.503   5.959   6.346 -0.1560 -0.2610 -0.0857
24580SOL    HW175191   7.542   5.876   6.372  0.2208 -0.0788 -0.0538
24580SOL    HW275192   7.417   5.960   6.387 -0.1367 -0.6089 -0.0368
24581SOL     OW75193   4.733   6.396   0.620 -0.5561 -0.3375 -0.4222
24581SOL    HW175194   4.653   6.446   0.603 -1.3789 -1.8492 -1.2182
24581SOL    HW275195   4.801   6.444   0.572 -0.8864  1.1082  0.4692
24582SOL     OW75196   2.307   5.722   3.249 -0.3798 -0.7776  0.1485
24582SOL    HW175197   2.369   5.791   3.228 -1.2026 -0.1762 -0.3353
24582SOL    HW275198   2.335   5.647   3.197  0.8704 -1.0238  1.1189
24583SOL     OW75199   8.817   4.586   5.536 -0.0524  0.4772 -0.0035
24583SOL    HW175200   8.749   4.550   5.479  1.1005  0.7799 -1.6474
24583SOL    HW275201   8.858   4.655   5.483  2.1871 -0.3699  0.4958
24584SOL     OW75202   8.184   5.149   0.781  0.7919  0.2566 -0.4639
24584SOL    HW175203   8.093   5.120   0.779 -0.1649  2.9834 -2.2876
24584SOL    HW275204   8.226   5.102   0.709  1.3717 -2.2627  1.3921
24585SOL     OW75205   6.282   1.128   7.351 -0.2794  0.6890  0.2103
24585SOL    HW175206   6.342   1.068   7.307  0.5791 -0.1855  2.4316
24585SOL    HW275207   6.197   1.109   7.313  0.4037 -0.0608 -0.9965
24586SOL     OW75208   8.510   1.588   2.044 -0.2776  0.3277  0.1059
24586SOL    HW175209   8.555   1.671   2.055 -0.0221 -0.0869  2.8109
24586SOL    HW275210   8.564   1.540   1.980  1.8098  0.7830  1.4141
24587SOL     OW75211   6.004   8.424   0.659 -0.3034  0.0174  0.7974
24587SOL    HW175212   5.964   8.510   0.646 -1.5578 -0.6753 -0.1770
24587SOL    HW275213   6.014   8.416   0.754  1.5613  1.9634  0.8251
24588SOL     OW75214   8.465   1.944   5.011 -0.2517 -0.2984  0.0249
24588SOL    HW175215   8.531   1.938   5.080  1.3723 -2.4378 -1.5563
24588SOL    HW275216   8.411   2.019   5.034  0.6452 -0.5157  3.2089
24589SOL     OW75217   9.074   4.283   4.741  0.1662  0.1221  0.2002
24589SOL    HW175218   9.125   4.228   4.801  1.7114  0.6208 -0.5932
24589SOL    HW275219   9.113   4.370   4.751 -1.4803  0.8525  0.5894
24590SOL     OW75220   6.039   5.742   5.791  0.0044 -0.1331  0.4262
24590SOL    HW175221   6.029   5.837   5.787  1.1531 -0.0399 -0.6318
24590SOL    HW275222   6.099   5.726   5.864 -2.0983 -0.2556  2.2452
24591SOL     OW75223   4.341   6.173   9.215 -0.2290 -0.3849 -0.1776
24591SOL    HW175224   4.327   6.084   9.246  0.8417 -0.6784 -0.5145
24591SOL    HW275225   4.364   6.223   9.293 -1.9654 -0.1296  0.2056
24592SOL     OW75226   4.669   5.240   0.161  0.5095 -0.1867 -0.0987
24592SOL    HW175227   4.582   5.201   0.174 -0.5565  2.1818  0.4008
24592SOL    HW275228   4.674   5.253   0.066  1.0889 -1.8817 -0.3354
24593SOL     OW75229   6.955   4.495   8.600  0.0164 -0.1448 -0.1909
24593SOL    HW175230   6.860   4.483   8.592 -0.0078 -0.4506  0.4846
24593SOL    HW275231   6.964   4.585   8.634 -0.0263 -0.0596 -0.4065
24594SOL     OW75232   8.500   1.403   4.018  0.2668 -0.1171  0.0521
24594SOL    HW175233   8.447   1.419   3.940  2.0396 -1.9006 -1.6329
24594SOL    HW275234   8.549   1.484   4.031 -0.9007  0.6190  0.0901
24595SOL     OW75235   0.001   5.343   5.893 -0.4976 -0.1742  0.3508
24595SOL    HW175236   0.019   5.250   5.880 -0.2181 -0.6505  3.3810
24595SOL    HW275237  -0.063   5.346   5.964 -2.8614  1.9430 -1.6589
24596SOL     OW75238   2.182   4.456   8.968  0.2658  0.2330 -0.0448
24596SOL    HW175239   2.268   4.419   8.945  0.0761  0.0493 -0.4786
24596SOL    HW275240   2.133   4.454   8.885 -0.8475 -1.5230  0.6037
24597SOL     OW75241   8.945   6.597   4.379 -0.5651 -0.1962  0.0318
24597SOL    HW175242   9.007   6.595   4.451 -1.3424  0.9844  0.7858
24597SOL    HW275243   8.967   6.522   4.325  0.1998 -0.9691  1.3751
24598SOL     OW75244   5.032   6.007   2.090 -0.2964  0.1776  0.4217
24598SOL    HW175245   5.017   6.100   2.074  0.5287  0.3049  0.3695
24598SOL    HW275246   4.978   5.987   2.167 -1.9443  0.2512 -0.6734
24599SOL     OW75247   0.563   9.264   6.501 -0.7406 -0.1734  0.2966
24599SOL    HW175248   0.573   9.250   6.595 -1.1171 -0.5477  0.2812
24599SOL    HW275249   0.625   9.334   6.481 -0.2168 -0.5089  0.7151
24600SOL     OW75250   4.874   8.716   3.349 -0.1580  0.0907  0.1552
24600SOL    HW175251   4.830   8.800   3.335  0.5747  0.8334  1.9473
24600SOL    HW275252   4.818   8.652   3.305 -0.6426  1.5203 -1.4190
24601SOL     OW75253   1.334   3.601   8.719  0.1709 -0.4057 -0.0164
24601SOL    HW175254   1.384   3.523   8.693  0.0018 -0.5614  0.1269
24601SOL    HW275255   1.323   3.650   8.637  1.7724  0.3353  0.1797
24602SOL     OW75256   0.730   5.179   1.855  0.2826  0.0046 -0.0906
24602SOL    HW175257   0.694   5.109   1.910  0.5473  0.7525  1.0772
24602SOL    HW275258   0.671   5.183   1.779 -1.0797  0.0168  0.9173
24603SOL     OW75259   2.385   2.405   1.161  0.2923  0.0965  0.2277
24603SOL    HW175260   2.345   2.470   1.104  1.3182 -0.0462 -0.6844
24603SOL    HW275261   2.456   2.452   1.205  0.1606 -0.0630  0.6223
24604SOL     OW75262   4.521   6.709   5.402  0.2249 -0.2424 -0.2343
24604SOL    HW175263   4.601   6.760   5.392  0.9680 -1.3400  0.0072
24604SOL    HW275264   4.461   6.747   5.337  0.8364  0.7542 -0.2474
24605SOL     OW75265   2.976   4.211   7.904  0.5173 -0.1260 -0.0019
24605SOL    HW175266   2.912   4.203   7.833  1.4921 -1.4542 -0.7770
24605SOL    HW275267   2.922   4.218   7.983 -0.5955 -0.2533 -0.7216
24606SOL     OW75268   7.058   4.822   7.989 -0.0168 -0.6256 -0.0365
24606SOL    HW175269   6.995   4.791   7.924  0.9936 -1.7741 -0.5212
24606SOL    HW275270   7.104   4.743   8.017  0.1359 -0.0352  1.4780
24607SOL     OW75271   6.712   1.752   8.296  0.0578  0.1048 -0.3310
24607SOL    HW175272   6.733   1.743   8.389 -4.0364  2.7226  1.1109
24607SOL    HW275273   6.681   1.665   8.270 -0.6604 -0.2086  1.4079
24608SOL     OW75274   8.932   8.889   5.772  0.3129  0.3506 -0.3764
24608SOL    HW175275   8.931   8.825   5.702 -1.1008 -0.0312 -0.0430
24608SOL    HW275276   8.847   8.932   5.767  0.4930  0.8649  0.5961
24609SOL     OW75277   0.368   5.631   7.747  0.2702  0.5011  0.1383
24609SOL    HW175278   0.346   5.545   7.781 -0.7179  1.1633  1.2379
24609SOL    HW275279   0.425   5.614   7.672  0.9634 -1.0600  0.9884
24610SOL     OW75280   1.857   9.053   6.364  0.0463  0.3821  0.2409
24610SOL    HW175281   1.860   9.124   6.429  0.6002 -0.6910  1.4379
24610SOL    HW275282   1.848   8.973   6.416 -0.3151 -0.4648 -1.0619
24611SOL     OW75283   3.677   4.961   4.022 -0.6894 -0.0896  0.1629
24611SOL    HW175284   3.615   4.987   3.953 -1.3229 -0.9581  0.3905
24611SOL    HW275285   3.673   5.033   4.085  0.5695  1.1571 -1.0969
24612SOL     OW75286   0.802   5.937   6.760 -0.2723  0.0629  0.0322
24612SOL    HW175287   0.866   5.894   6.703 -1.4358 -0.5501 -0.8723
24612SOL    HW275288   0.774   6.014   6.711  0.1570  0.6208  0.6576
24613SOL     OW75289   5.339   0.815   9.094 -0.5282  0.0716 -0.1335
24613SOL    HW175290   5.386   0.836   9.174 -0.0001 -0.7699 -0.2072
24613SOL    HW275291   5.270   0.882   9.088 -1.9248 -1.0477  2.1124
24614SOL     OW75292   0.419   2.577   5.291 -0.1506 -0.1902 -0.0061
24614SOL    HW175293   0.479   2.545   5.224 -1.4478 -1.6664 -0.5236
24614SOL    HW275294   0.381   2.499   5.330 -2.3252  0.6502 -0.2648
24615SOL     OW75295   8.299   8.799   6.131  0.1346  0.0185 -0.0640
24615SOL    HW175296   8.252   8.720   6.157  0.2651 -0.5601 -1.4880
24615SOL    HW275297   8.341   8.776   6.048  0.6687  1.4000 -0.2123
24616SOL     OW75298   3.088   4.972   7.018  0.6665 -0.1476 -0.7819
24616SOL    HW175299   3.068   4.916   6.943  0.8958 -0.0334 -0.9305
24616SOL    HW275300   3.169   4.937   7.054  0.5743 -0.1815 -0.6080
24617SOL     OW75301   5.732   6.398   3.790  0.1123 -0.2906 -0.0700
24617SOL    HW175302   5.719   6.343   3.867  1.1003  1.6496  1.6008
24617SOL    HW275303   5.696   6.483   3.815  0.9723  0.5571 -1.5281
24618SOL     OW75304   1.029   1.945   6.664 -0.2409  0.1740 -0.3481
24618SOL    HW175305   1.031   1.997   6.583 -1.9955 -0.9875 -1.2005
24618SOL    HW275306   1.112   1.897   6.664  0.5647  1.4854 -0.5072
24619SOL     OW75307   0.885   3.711   0.579  0.2392 -0.1055 -0.0806
24619SOL    HW175308   0.791   3.730   0.570  0.1758 -0.3858  0.0029
24619SOL    HW275309   0.899   3.700   0.673  0.1015 -1.3787 -0.1944
24620SOL     OW75310   6.368   2.333   9.263  0.0601  0.1722 -0.2329
24620SOL    HW175311   6.334   2.396   9.326 -2.1586 -1.4315  0.3261
24620SOL    HW275312   6.399   2.259   9.316 -0.4504 -0.5711 -0.9349
24621SOL     OW75313   2.840   7.714   7.170  0.4575  0.4031  0.1380
24621SOL    HW175314   2.861   7.806   7.187  0.1180  0.2691  1.3697
24621SOL    HW275315   2.774   7.718   7.100 -1.0680  1.2413  1.5450
24622SOL     OW75316   5.890   1.657   0.353 -0.4531 -0.3292 -1.1866
24622SOL    HW175317   5.834   1.635   0.427  0.1793  0.0084 -0.5956
24622SOL    HW275318   5.844   1.622   0.277 -0.7326 -1.3867 -0.5544
24623SOL     OW75319   4.780   1.047   2.927  0.7713  0.4618 -0.8926
24623SOL    HW175320   4.728   1.051   2.848 -0.9877  1.1510  0.2425
24623SOL    HW275321   4.718   1.024   2.996  2.2710 -0.2301  0.2826
24624SOL     OW75322   7.536   4.474   1.623 -0.0170 -0.1918 -0.0852
24624SOL    HW175323   7.494   4.553   1.589 -0.4111 -0.4160 -0.1257
24624SOL    HW275324   7.558   4.496   1.713 -0.6434 -0.2243  0.0833
24625SOL     OW75325   7.541   2.939   4.047  0.7679  0.4585 -0.4313
24625SOL    HW175326   7.554   2.882   4.123 -1.4739  1.9704  1.2475
24625SOL    HW275327   7.613   3.002   4.051  0.1134  1.1755  1.1823
24626SOL     OW75328   1.269   1.763   6.687 -0.2562 -0.0314  0.4787
24626SOL    HW175329   1.309   1.679   6.667 -1.4766 -0.6464  0.5557
24626SOL    HW275330   1.206   1.744   6.757  1.7287  1.4995  2.8946
24627SOL     OW75331   7.407   5.090   2.472 -0.1067  0.5222  0.2621
24627SOL    HW175332   7.392   5.172   2.520 -0.4909  0.6356 -0.0443
24627SOL    HW275333   7.439   5.118   2.386 -0.8466  0.3864 -0.0730
24628SOL     OW75334   0.118   4.958   3.448  0.1251  0.1827 -1.2457
24628SOL    HW175335   0.182   4.981   3.381  1.2978 -3.1970 -1.4862
24628SOL    HW275336   0.033   4.980   3.410  0.8957  0.4401 -2.8738
24629SOL     OW75337   4.537   7.857   6.587  0.2966 -0.2788  0.4183
24629SOL    HW175338   4.628   7.862   6.615  0.5365  0.2054 -0.4158
24629SOL    HW275339   4.499   7.940   6.615  0.4056 -0.0102 -0.2082
24630SOL     OW75340   1.989   8.553   3.314 -0.1979  0.1020 -0.0727
24630SOL    HW175341   2.054   8.519   3.375  1.1000  0.6899 -1.0982
24630SOL    HW275342   2.031   8.628   3.273 -1.2141 -0.0078 -1.3773
24631SOL     OW75343   3.873   1.497   8.834  0.2287 -0.3218  0.4436
24631SOL    HW175344   3.827   1.536   8.760 -1.9692 -0.5736  1.6101
24631SOL    HW275345   3.888   1.406   8.808 -1.0562 -0.5632  0.5064
24632SOL     OW75346   5.774   4.159   7.394 -0.2424  0.2707 -0.0218
24632SOL    HW175347   5.820   4.093   7.447 -0.0518  0.3013 -0.1491
24632SOL    HW275348   5.699   4.112   7.358  0.4484 -0.1515 -0.9357
24633SOL     OW75349   6.597   8.423   1.588 -0.1529  0.5279  0.4136
24633SOL    HW175350   6.689   8.450   1.596 -0.6964  2.6320  0.0154
24633SOL    HW275351   6.558   8.447   1.672 -0.7911  1.6009 -0.1750
24634SOL     OW75352   4.004   3.707   5.049  0.0320  0.3965 -0.5288
24634SOL    HW175353   4.035   3.618   5.065  0.0698  0.6763  1.1733
24634SOL    HW275354   4.075   3.749   5.000  1.4603  0.3959  1.4302
24635SOL     OW75355   8.236   8.869   1.819  0.6922  0.3371 -0.0943
24635SOL    HW175356   8.308   8.897   1.763  1.1078 -1.6481 -0.6150
24635SOL    HW275357   8.258   8.779   1.844 -1.2201 -0.0489  0.3649
24636SOL     OW75358   6.442   2.440   5.659  0.1082 -0.2241 -0.3338
24636SOL    HW175359   6.458   2.355   5.701  2.5411  0.1374 -0.3909
24636SOL    HW275360   6.414   2.497   5.731  1.7426 -0.2645  0.3825
24637SOL     OW75361   1.942   7.655   1.899  0.4302 -0.2575  0.2372
24637SOL    HW175362   2.012   7.714   1.929  1.6242 -2.3317  1.8614
24637SOL    HW275363   1.971   7.568   1.927 -0.3829 -1.9426 -3.5248
24638SOL     OW75364   1.982   6.887   1.931 -0.8913  0.3418 -0.1425
24638SOL    HW175365   1.925   6.824   1.887 -1.5508 -0.8153  2.1864
24638SOL    HW275366   2.071   6.853   1.916 -0.8859  1.2010 -2.3378
24639SOL     OW75367   3.981   2.675   3.635  0.0397  0.9357  0.0593
24639SOL    HW175368   4.047   2.623   3.590 -0.5466 -0.3400  0.6036
24639SOL    HW275369   3.897   2.640   3.603 -0.3729  0.7212  1.2931
24640SOL     OW75370   4.781   8.366   6.932  0.1659  0.7009 -0.2516
24640SOL    HW175371   4.821   8.444   6.895  0.5416  1.5867  1.8803
24640SOL    HW275372   4.698   8.397   6.968 -0.2916 -0.1661 -0.5345
24641SOL     OW75373   2.550   8.861   0.516  0.0824  0.4227  0.2479
24641SOL    HW175374   2.606   8.905   0.580  0.2417  1.2942 -0.4619
24641SOL    HW275375   2.610   8.807   0.465 -0.2037 -1.1870  1.5401
24642SOL     OW75376   8.929   5.441   2.991 -0.3530 -0.4407  0.5837
24642SOL    HW175377   8.946   5.401   2.906  2.1098 -0.6585  1.0920
24642SOL    HW275378   8.948   5.534   2.978 -1.5888 -0.1827  0.5200
24643SOL     OW75379   4.199   6.722   7.059  0.2336 -0.3379 -0.4895
24643SOL    HW175380   4.169   6.646   7.009  0.5789 -0.8829  0.1176
24643SOL    HW275381   4.290   6.703   7.079 -0.0620 -0.4287  0.8752
24644SOL     OW75382   1.346   8.631   3.322  0.2278 -0.4403  0.6753
24644SOL    HW175383   1.366   8.594   3.236 -0.7479  1.5678 -0.5010
24644SOL    HW275384   1.270   8.582   3.352 -0.2286 -0.3042 -0.2239
24645SOL     OW75385   5.591   3.647   8.254 -0.8471  0.1406 -0.3728
24645SOL    HW175386   5.663   3.599   8.293  0.1713  1.0190 -1.0940
24645SOL    HW275387   5.528   3.659   8.325 -0.3110 -0.6857  0.2580
24646SOL     OW75388   1.346   9.107   4.684 -0.5746  0.0747 -0.1500
24646SOL    HW175389   1.275   9.149   4.635  1.0042  2.3172 -0.6528
24646SOL    HW275390   1.353   9.159   4.764  1.4030  0.7961 -0.7528
24647SOL     OW75391   3.991   0.972   4.559 -0.3990 -0.1669  0.7905
24647SOL    HW175392   3.900   0.941   4.557 -0.5403  0.2597  0.2015
24647SOL    HW275393   4.038   0.913   4.501 -0.3685 -0.1874  0.8361
24648SOL     OW75394   8.051   4.104   3.724  0.6339  0.1886 -0.3884
24648SOL    HW175395   8.016   4.076   3.639  0.4036 -1.3577  0.1772
24648SOL    HW275396   8.071   4.022   3.769  0.1606  0.9644  1.2976
24649SOL     OW75397   4.312   4.366   6.112 -0.5496  0.4904 -0.0832
24649SOL    HW175398   4.281   4.455   6.098 -0.3101  0.4096 -1.2284
24649SOL    HW275399   4.270   4.315   6.043  0.4491 -0.0165 -0.3238
24650SOL     OW75400   3.875   4.868   3.891  0.0921 -0.0667  0.5440
24650SOL    HW175401   3.920   4.799   3.941  0.2742  0.7223  1.4934
24650SOL    HW275402   3.808   4.901   3.950 -0.2555  0.3109 -0.0503
24651SOL     OW75403   5.801   1.758   0.900 -0.2217  0.4658 -0.6184
24651SOL    HW175404   5.823   1.724   0.813  0.7271 -0.7286  0.0517
24651SOL    HW275405   5.832   1.849   0.898  0.9336  0.0812 -1.1288
24652SOL     OW75406   3.122   1.616   2.392 -0.5189 -0.3702 -0.3630
24652SOL    HW175407   3.045   1.593   2.341  1.0280 -0.2705 -2.9465
24652SOL    HW275408   3.168   1.680   2.338  0.4218  1.0977  1.9904
24653SOL     OW75409   2.362   0.932   6.703  1.0402 -0.3214  0.8618
24653SOL    HW175410   2.276   0.902   6.672  0.6179  0.8516  0.8466
24653SOL    HW275411   2.342   1.009   6.756  2.2162  1.2506 -0.8528
24654SOL     OW75412   1.797   7.977   1.177  0.0057  0.5238  0.5037
24654SOL    HW175413   1.722   7.921   1.161 -0.5474  1.4120 -0.0358
24654SOL    HW275414   1.870   7.916   1.190 -0.8625 -0.3550  1.4032
24655SOL     OW75415   7.215   8.118   9.264  0.3969 -0.5697 -0.2112
24655SOL    HW175416   7.283   8.167   9.310  0.0680 -0.0718 -0.2414
24655SOL    HW275417   7.195   8.172   9.187  2.4139 -2.3741 -2.1449
24656SOL     OW75418   3.487   6.309   0.940 -0.0813 -0.3566  0.1737
24656SOL    HW175419   3.439   6.349   1.013 -0.6801  0.2003 -0.5148
24656SOL    HW275420   3.420   6.265   0.888  0.3391 -0.7311 -0.0642
24657SOL     OW75421   3.920   0.859   7.081  0.1948 -0.5773 -0.5215
24657SOL    HW175422   3.974   0.789   7.117 -1.1291 -2.3023 -1.7250
24657SOL    HW275423   3.980   0.911   7.027  1.8001  0.9686  2.4682
24658SOL     OW75424   2.432   0.678   2.065 -0.4672 -0.0318 -0.0771
24658SOL    HW175425   2.526   0.660   2.057 -0.6145 -0.0023 -2.7659
24658SOL    HW275426   2.400   0.679   1.975 -3.3608 -1.5474  0.8183
24659SOL     OW75427   7.350   8.953   5.812 -0.2300  0.1289  0.0640
24659SOL    HW175428   7.281   8.935   5.748  1.1301 -0.3290 -1.3372
24659SOL    HW275429   7.423   8.987   5.760  0.6963  0.3797  1.4702
24660SOL     OW75430   1.716   1.269   2.898 -0.6360  0.0137  0.2990
24660SOL    HW175431   1.784   1.269   2.965  0.2521 -0.4220 -0.5740
24660SOL    HW275432   1.736   1.193   2.843 -1.4527  0.2507 -0.3543
24661SOL     OW75433   2.361   8.102   0.792  0.5502  0.6275 -0.2007
24661SOL    HW175434   2.410   8.035   0.840  1.0052 -0.6757 -2.3259
24661SOL    HW275435   2.391   8.185   0.829  0.8597 -0.2816  1.6998
24662SOL     OW75436   8.445   2.335   8.827 -0.3571  0.3473 -0.4099
24662SOL    HW175437   8.388   2.378   8.762 -0.5488  0.7116 -0.0042
24662SOL    HW275438   8.516   2.398   8.842 -0.6431  0.5371  0.1910
24663SOL     OW75439   2.852   6.150   4.833 -0.0971  0.5434  0.0754
24663SOL    HW175440   2.856   6.134   4.927  0.2651  0.8434  0.1152
24663SOL    HW275441   2.778   6.099   4.802 -1.4062  1.9067  0.8345
24664SOL     OW75442   7.256   7.917   2.103  0.1902 -0.3697  0.2579
24664SOL    HW175443   7.253   7.872   2.187  0.5707 -2.0951 -0.6019
24664SOL    HW275444   7.331   7.977   2.111  0.5733 -0.9178  0.9577
24665SOL     OW75445   8.060   2.706   5.343 -0.3840 -1.0868 -0.1400
24665SOL    HW175446   8.095   2.727   5.430  0.3349 -0.4407 -0.5727
24665SOL    HW275447   7.967   2.689   5.359 -0.8159  1.3404  0.4579
24666SOL     OW75448   8.055   1.239   3.711 -0.8279 -0.7558 -0.2962
24666SOL    HW175449   7.974   1.290   3.718 -0.5460 -0.3671  0.1027
24666SOL    HW275450   8.066   1.200   3.797  1.1854  1.8627  0.7598
24667SOL     OW75451   5.240   8.076   3.735 -0.5928  0.3028 -0.0745
24667SOL    HW175452   5.161   8.098   3.783  0.0679  2.2442  0.2272
24667SOL    HW275453   5.209   8.035   3.654 -1.8023 -0.7772  0.9159
24668SOL     OW75454   5.032   6.162   4.647 -0.4952  0.4208 -0.0214
24668SOL    HW175455   5.120   6.198   4.657  0.1679 -1.1705  0.3060
24668SOL    HW275456   5.033   6.120   4.561 -0.2510 -1.2382  0.7354
24669SOL     OW75457   1.391   2.562   0.160 -0.3996  0.7320  0.0401
24669SOL    HW175458   1.303   2.597   0.175 -0.1991  1.1235  0.3169
24669SOL    HW275459   1.438   2.632   0.114  0.0811  0.9453  0.8289
24670SOL     OW75460   2.578   4.780   6.860 -0.3826 -0.0263  0.4183
24670SOL    HW175461   2.584   4.844   6.788 -0.1692 -0.7896 -0.2532
24670SOL    HW275462   2.505   4.812   6.913 -0.6799  0.4418 -0.2448
24671SOL     OW75463   6.004   3.885   5.178  0.3648  0.0965  0.6658
24671SOL    HW175464   5.910   3.900   5.188  0.3349 -0.9140  2.3706
24671SOL    HW275465   6.035   3.960   5.127 -1.3238  0.5430  0.2273
24672SOL     OW75466   1.106   2.618   4.972 -0.0356 -0.0271  0.1967
24672SOL    HW175467   1.018   2.609   4.935 -0.0684 -1.7513  0.5988
24672SOL    HW275468   1.117   2.712   4.985 -1.5590  0.2818 -0.4731
24673SOL     OW75469   3.609   8.063   5.521 -0.1434  0.0577  0.4373
24673SOL    HW175470   3.614   7.974   5.555  1.3414 -0.6096 -1.3557
24673SOL    HW275471   3.516   8.077   5.502 -0.1120 -2.2742 -1.9764
24674SOL     OW75472   5.435   8.858   5.976 -0.0182 -0.6291  0.1709
24674SOL    HW175473   5.468   8.833   5.890 -1.2574 -0.6903 -0.3113
24674SOL    HW275474   5.467   8.790   6.035  2.9706  0.7294  0.2799
24675SOL     OW75475   2.324   6.112   1.074  0.2532  0.1766  0.4676
24675SOL    HW175476   2.381   6.188   1.062  0.3603 -0.0265 -0.3747
24675SOL    HW275477   2.383   6.042   1.101  0.1553  0.3825  1.2385
24676SOL     OW75478   0.021   8.108   3.323  0.1088 -0.0931 -0.1498
24676SOL    HW175479  -0.073   8.092   3.318 -0.1260  1.0627  0.1119
24676SOL    HW275480   0.035   8.143   3.411  0.7099  0.1773 -0.3437
24677SOL     OW75481   6.524   1.722   4.905  0.6834  0.1227  0.6090
24677SOL    HW175482   6.455   1.733   4.971  1.3849  2.7667  1.0330
24677SOL    HW275483   6.523   1.805   4.856  1.1942 -1.1892 -1.7643
24678SOL     OW75484   1.543   4.568   7.541  0.5372 -0.4563 -0.3863
24678SOL    HW175485   1.570   4.495   7.597 -1.2812 -1.7029 -1.0709
24678SOL    HW275486   1.605   4.566   7.468  1.1119 -0.6511  0.0940
24679SOL     OW75487   6.526   4.644   1.416  0.2670 -0.3343 -0.0640
24679SOL    HW175488   6.499   4.657   1.507 -1.0178 -0.3991 -0.4203
24679SOL    HW275489   6.468   4.576   1.383 -1.3020  1.6766 -1.7662
24680SOL     OW75490   3.974   2.888   2.377 -0.6013 -0.1347  0.5339
24680SOL    HW175491   3.897   2.832   2.386 -1.0333  0.5412  1.0257
24680SOL    HW275492   3.939   2.976   2.363  0.0585 -0.1250 -1.3835
24681SOL     OW75493   1.036   8.216   5.747  0.4125  0.3991  0.2936
24681SOL    HW175494   1.079   8.158   5.810 -0.1040 -1.2730 -0.8208
24681SOL    HW275495   0.943   8.196   5.755  0.2393  0.9652 -0.2195
24682SOL     OW75496   4.714   1.606   5.216  0.0956  1.1349 -0.1010
24682SOL    HW175497   4.779   1.543   5.187 -0.0976  0.9823 -0.2039
24682SOL    HW275498   4.630   1.568   5.190 -0.0480  1.2410  0.1976
24683SOL     OW75499   2.620   2.495   1.637  0.1227 -0.1129  0.5537
24683SOL    HW175500   2.565   2.421   1.613  0.4235 -0.0905 -0.2103
24683SOL    HW275501   2.607   2.504   1.732 -0.7186 -0.4799  0.4827
24684SOL     OW75502   3.579   6.411   6.573 -0.1542  0.1359  0.2496
24684SOL    HW175503   3.602   6.503   6.560 -1.1941  0.3504 -0.2043
24684SOL    HW275504   3.538   6.385   6.491  2.9283 -1.6876 -0.8791
24685SOL     OW75505   2.286   5.401   2.449  0.4434  0.2588  0.0113
24685SOL    HW175506   2.240   5.317   2.445 -2.0726  1.3267  3.0939
24685SOL    HW275507   2.338   5.396   2.529  1.2048  1.2743 -0.3894
24686SOL     OW75508   4.214   8.447   4.794  0.8577  0.4370 -0.0615
24686SOL    HW175509   4.271   8.465   4.869  1.1000 -0.6631  0.0429
24686SOL    HW275510   4.274   8.439   4.720  0.6607  1.0630 -0.2942
24687SOL     OW75511   0.871   2.324   6.696 -0.1732 -0.0043  0.3428
24687SOL    HW175512   0.904   2.260   6.759 -0.2277  0.2655  0.6499
24687SOL    HW275513   0.949   2.362   6.657 -0.0826 -2.2218 -1.9162
24688SOL     OW75514   0.809   7.154   9.105  0.3431  0.8406  0.3546
24688SOL    HW175515   0.891   7.106   9.120 -0.5028 -0.8044 -0.0299
24688SOL    HW275516   0.752   7.091   9.061 -1.7449  1.3700  2.1277
24689SOL     OW75517   2.448   0.724   5.202  0.1232  0.3918 -0.4353
24689SOL    HW175518   2.492   0.678   5.274 -2.4657 -1.7946 -0.0857
24689SOL    HW275519   2.432   0.812   5.235  2.2689  0.6161  0.1738
24690SOL     OW75520   8.649   0.817   7.647  0.6641 -0.3643  0.0769
24690SOL    HW175521   8.715   0.748   7.643  1.7333  0.6552 -0.2787
24690SOL    HW275522   8.694   0.895   7.615  0.3839  1.1844  3.1051
24691SOL     OW75523   4.773   5.694   2.120 -0.0160 -0.3346  0.9518
24691SOL    HW175524   4.787   5.709   2.027  1.5225  1.7617  1.4552
24691SOL    HW275525   4.713   5.764   2.147 -1.4652 -1.6598  1.3456
24692SOL     OW75526   8.044   3.980   8.506  0.0430 -0.1793 -0.1010
24692SOL    HW175527   8.123   3.927   8.504  0.0052 -0.2833  0.7528
24692SOL    HW275528   8.008   3.967   8.594 -0.7377  0.1340 -0.3595
24693SOL     OW75529   1.224   1.284   0.476  0.1433 -0.0422 -0.3676
24693SOL    HW175530   1.274   1.205   0.496  1.3323  0.6695 -0.4448
24693SOL    HW275531   1.288   1.345   0.438 -1.0542  0.4314 -1.7223
24694SOL     OW75532   3.499   4.620   1.231 -0.4559  0.3642  0.2001
24694SOL    HW175533   3.468   4.601   1.319 -0.2200 -1.4657 -0.0689
24694SOL    HW275534   3.558   4.547   1.209  0.9362  1.6987 -0.7976
24695SOL     OW75535   5.235   6.666   2.813  0.0226 -0.0140  0.3995
24695SOL    HW175536   5.205   6.603   2.879 -0.7987 -0.2832 -0.2204
24695SOL    HW275537   5.318   6.629   2.781 -0.2971 -0.6221  0.2602
24696SOL     OW75538   0.167   4.654   7.733  0.3253 -0.3554 -0.0506
24696SOL    HW175539   0.135   4.597   7.803  0.2969 -2.8512 -1.9357
24696SOL    HW275540   0.261   4.659   7.747  0.4893 -1.8463 -0.4520
24697SOL     OW75541   2.355   4.071   4.372  0.2165 -0.0468 -0.6227
24697SOL    HW175542   2.271   4.047   4.333 -0.7213 -0.2936  1.3945
24697SOL    HW275543   2.375   3.998   4.431  1.0070  0.7792  0.1493
24698SOL     OW75544   2.390   6.156   7.614 -0.9891 -0.2883  0.0117
24698SOL    HW175545   2.348   6.072   7.636  0.2152 -0.9872 -0.2824
24698SOL    HW275546   2.481   6.145   7.640 -1.0123  1.2982  0.8723
24699SOL     OW75547   6.022   0.583   2.646 -0.9484 -0.2660  0.1976
24699SOL    HW175548   6.111   0.596   2.611 -0.5368  0.0798  1.3221
24699SOL    HW275549   6.036   0.535   2.728 -1.6209  1.3978  1.3417
24700SOL     OW75550   7.086   7.562   4.278 -0.2961  0.2255 -0.4357
24700SOL    HW175551   7.073   7.497   4.347 -0.2621  0.3015 -0.3567
24700SOL    HW275552   7.117   7.512   4.203  0.3153  0.2312 -0.1920
24701SOL     OW75553   4.193   0.666   8.350  0.6027  0.1229 -0.0454
24701SOL    HW175554   4.118   0.621   8.390  0.0809  0.8335 -0.2031
24701SOL    HW275555   4.209   0.741   8.407  0.1113  0.9193 -0.9335
24702SOL     OW75556   0.566   2.562   0.828  0.1383 -0.6852 -0.1768
24702SOL    HW175557   0.511   2.618   0.774 -0.5542 -0.7420  0.4424
24702SOL    HW275558   0.588   2.616   0.904  0.0726 -1.0004  0.0701
24703SOL     OW75559   5.307   1.929   3.310 -0.3752  0.0349 -0.2440
24703SOL    HW175560   5.336   1.859   3.252 -0.5041  0.2364 -0.5589
24703SOL    HW275561   5.216   1.907   3.330  0.1468 -0.9168  1.2255
24704SOL     OW75562   6.534   3.776   3.730  0.2971 -0.0134  0.1143
24704SOL    HW175563   6.509   3.839   3.798  1.0466 -0.7773  1.1222
24704SOL    HW275564   6.630   3.774   3.733  0.3163 -0.5108 -0.5534
24705SOL     OW75565   3.675   1.470   2.640  0.1614 -0.2336 -0.4465
24705SOL    HW175566   3.734   1.523   2.586 -1.1507  2.6507  0.7717
24705SOL    HW275567   3.697   1.494   2.730 -2.6431  0.7859  0.0586
24706SOL     OW75568   5.239   5.021   6.147 -0.2327  0.2115  0.9511
24706SOL    HW175569   5.152   5.031   6.109 -0.4246 -0.3317  1.2374
24706SOL    HW275570   5.247   5.094   6.208 -0.3635  0.4336  0.7082
24707SOL     OW75571   3.601   4.522   6.119 -0.2658  0.0600 -0.5962
24707SOL    HW175572   3.579   4.433   6.091 -2.0487  0.2257  0.1437
24707SOL    HW275573   3.697   4.522   6.126 -0.1325 -1.3814 -1.9222
24708SOL     OW75574   3.670   1.483   4.726 -0.0720 -0.1531  0.0115
24708SOL    HW175575   3.594   1.475   4.783 -0.4867 -0.1168 -0.5234
24708SOL    HW275576   3.738   1.429   4.767  0.0889  0.9520  1.2596
24709SOL     OW75577   5.538   0.890   6.413 -0.2692  0.6206 -0.3118
24709SOL    HW175578   5.549   0.828   6.485 -1.4011  1.1383  0.3431
24709SOL    HW275579   5.501   0.838   6.342 -0.7676  0.4469  0.0726
24710SOL     OW75580   0.305   0.185   6.420 -0.2317  0.4770 -0.1495
24710SOL    HW175581   0.297   0.090   6.415  1.5885  0.2677  0.0917
24710SOL    HW275582   0.279   0.217   6.334  0.7921 -0.4056 -0.8089
24711SOL     OW75583   3.821   4.492   2.038  0.4326  0.1297 -0.3302
24711SOL    HW175584   3.772   4.501   2.120  0.0131  0.7952 -0.6417
24711SOL    HW275585   3.755   4.466   1.974  0.6008  0.4506 -0.6353
24712SOL     OW75586   6.715   2.491   3.161 -0.0542 -0.0520  0.0241
24712SOL    HW175587   6.673   2.406   3.173 -0.7440  0.3100  0.2092
24712SOL    HW275588   6.685   2.544   3.235  2.0413 -0.2690  1.1066
24713SOL     OW75589   4.105   7.374   1.178  0.3316  0.2107 -0.4283
24713SOL    HW175590   4.051   7.295   1.172  0.8578 -0.1263 -0.8871
24713SOL    HW275591   4.142   7.371   1.266 -0.1812  0.3026 -0.2072
24714SOL     OW75592   0.838   2.871   6.203  0.5057 -0.1726 -0.7692
24714SOL    HW175593   0.918   2.869   6.255  1.1861 -2.1819 -1.7976
24714SOL    HW275594   0.768   2.882   6.268  1.5086  0.4413  0.2549
24715SOL     OW75595   8.468   4.714   1.347 -0.0848  0.5315  0.1521
24715SOL    HW175596   8.463   4.761   1.430 -0.1062  0.5303  0.1515
24715SOL    HW275597   8.525   4.767   1.292  0.2509  0.3316  0.3030
24716SOL     OW75598   4.260   9.208   0.434 -0.1744  0.0064  0.5969
24716SOL    HW175599   4.343   9.245   0.465 -0.0711  0.1561  0.1596
24716SOL    HW275600   4.211   9.283   0.401  1.2573 -0.4602 -3.1014
24717SOL     OW75601   0.683   4.667   4.669 -0.4897 -0.2909 -0.0233
24717SOL    HW175602   0.751   4.724   4.634 -0.7044  0.3801  0.6264
24717SOL    HW275603   0.628   4.725   4.721 -0.1016 -1.2648  1.5330
24718SOL     OW75604   8.229   7.588   3.506 -0.1930  0.1271 -0.3818
24718SOL    HW175605   8.185   7.581   3.421  1.6348 -0.5049 -1.3280
24718SOL    HW275606   8.304   7.646   3.489  0.1245  0.0973  0.8299
24719SOL     OW75607   5.862   3.110   7.858  0.0085 -0.3251  0.0075
24719SOL    HW175608   5.893   3.184   7.805 -0.7706  0.0775  0.0984
24719SOL    HW275609   5.937   3.086   7.912  0.4393  0.0417 -0.4132
24720SOL     OW75610   1.801   2.893   3.774  0.2831 -0.0986 -0.6218
24720SOL    HW175611   1.750   2.974   3.779  0.1028 -0.1928 -0.9117
24720SOL    HW275612   1.891   2.922   3.762  0.1114  0.0523 -1.6319
24721SOL     OW75613   1.351   6.088   8.179  0.7016  0.0184  0.6100
24721SOL    HW175614   1.432   6.135   8.197  1.4064  0.1137 -2.3243
24721SOL    HW275615   1.354   6.012   8.238  2.7744  0.1569  0.7548
24722SOL     OW75616   5.914   3.193   5.707 -0.1254  0.1147  0.1112
24722SOL    HW175617   5.915   3.186   5.802  0.2809 -0.1322  0.0894
24722SOL    HW275618   5.970   3.268   5.687  2.1088 -1.5099 -0.0611
24723SOL     OW75619   0.317   6.402   8.457  0.0705  0.0841  0.0806
24723SOL    HW175620   0.330   6.391   8.363 -2.8809  1.9552 -0.6448
24723SOL    HW275621   0.405   6.417   8.491  1.2463 -0.7916 -2.3123
24724SOL     OW75622   6.142   8.492   9.044  0.4579 -0.7992  0.6104
24724SOL    HW175623   6.064   8.545   9.062  0.3146 -1.0447  0.7054
24724SOL    HW275624   6.108   8.407   9.017  0.6826 -0.7362  0.1086
24725SOL     OW75625   5.479   0.955   3.894 -0.3033 -0.6556  0.2292
24725SOL    HW175626   5.496   1.042   3.858  0.9669 -0.5941  0.9035
24725SOL    HW275627   5.528   0.954   3.977 -2.0298 -1.2711  1.2834
24726SOL     OW75628   1.112   2.039   2.220  0.1562  1.0687  0.1899
24726SOL    HW175629   1.168   2.083   2.285  0.3179  0.8566  0.1927
24726SOL    HW275630   1.027   2.084   2.228  0.4741  1.7488 -0.1862
24727SOL     OW75631   0.940   5.476   8.321  0.5576 -0.7865  0.5896
24727SOL    HW175632   0.893   5.432   8.392  0.0531  0.5448  1.1296
24727SOL    HW275633   0.895   5.448   8.241  0.9079 -2.0259  0.8144
24728SOL     OW75634   6.718   2.171   5.647 -0.1775 -0.1919 -0.4795
24728SOL    HW175635   6.728   2.080   5.618  1.1064  0.1256 -1.0928
24728SOL    HW275636   6.638   2.170   5.700  0.1955 -1.8102  0.1118
24729SOL     OW75637   1.687   7.799   1.843 -0.2511 -0.1758 -0.4707
24729SOL    HW175638   1.708   7.872   1.784  0.2890 -0.7863 -1.0368
24729SOL    HW275639   1.769   7.751   1.852 -0.2754 -0.0049  0.9245
24730SOL     OW75640   2.810   4.425   0.194 -0.1193  0.3011 -0.7500
24730SOL    HW175641   2.793   4.519   0.190 -0.3269  0.3828  1.1194
24730SOL    HW275642   2.723   4.384   0.188 -0.0403  0.2207 -1.4317
24731SOL     OW75643   6.228   0.845   0.968  0.3734  0.0764 -0.2529
24731SOL    HW175644   6.225   0.750   0.956 -0.4492  0.3308 -2.3447
24731SOL    HW275645   6.253   0.880   0.882 -1.6248  1.8673 -0.1696
24732SOL     OW75646   0.269   4.853   2.678 -0.0305  0.3144  0.0950
24732SOL    HW175647   0.208   4.784   2.651  0.8241 -0.6401  0.5116
24732SOL    HW275648   0.300   4.824   2.764  0.6383  1.0309  0.1040
24733SOL     OW75649   1.672   6.201   8.773 -0.6809 -0.1292 -0.4507
24733SOL    HW175650   1.629   6.166   8.851  0.7883 -0.0468  0.4345
24733SOL    HW275651   1.633   6.152   8.700 -0.2429 -2.0792  0.5664
24734SOL     OW75652   2.157   7.680   2.983  0.2469 -0.5423  0.4244
24734SOL    HW175653   2.221   7.744   3.014 -0.7912  1.4527 -1.2503
24734SOL    HW275654   2.072   7.717   3.007 -0.5228  0.2257 -2.8642
24735SOL     OW75655   0.437   4.333   3.437 -0.0132  0.0125 -0.4364
24735SOL    HW175656   0.418   4.308   3.527 -0.8599  2.5945  0.1760
24735SOL    HW275657   0.516   4.284   3.415 -0.0221 -0.9972  1.5520
24736SOL     OW75658   0.534   4.026   6.251 -0.3208 -0.1424  0.5692
24736SOL    HW175659   0.588   4.069   6.317 -1.7400  0.4634  1.3828
24736SOL    HW275660   0.520   3.938   6.285  0.1569 -0.3123  0.3401
24737SOL     OW75661   2.919   6.394   5.293 -0.0593  0.1482  0.2778
24737SOL    HW175662   2.882   6.469   5.340  0.4790  0.2891  0.4846
24737SOL    HW275663   3.006   6.424   5.266 -0.6551  0.3742 -1.5277
24738SOL     OW75664   3.923   3.945   0.930 -0.4093 -0.1167  0.0984
24738SOL    HW175665   3.861   4.007   0.891 -1.8552 -1.0932  0.7294
24738SOL    HW275666   3.959   3.991   1.006 -0.0832  0.5945 -0.4777
24739SOL     OW75667   0.715   0.831   5.050  0.2216  0.2271 -0.1066
24739SOL    HW175668   0.796   0.808   5.095  0.9588 -0.9872 -1.9525
24739SOL    HW275669   0.714   0.927   5.050  0.8497  0.2536  1.2818
24740SOL     OW75670   4.447   0.476   8.856  0.1347 -0.3599 -0.1223
24740SOL    HW175671   4.386   0.460   8.928 -0.2008 -0.9464 -0.5287
24740SOL    HW275672   4.529   0.436   8.885 -0.1194 -0.9750 -0.2479
24741SOL     OW75673   6.315   1.202   5.621  0.0291 -0.4304  0.4483
24741SOL    HW175674   6.355   1.182   5.537  0.1697  1.6110 -0.0118
24741SOL    HW275675   6.223   1.221   5.601 -0.0879 -0.5394  0.8522
24742SOL     OW75676   3.347   9.140   4.955  0.0403 -0.1795 -0.1735
24742SOL    HW175677   3.340   9.078   5.029 -1.7710 -1.9869 -1.7360
24742SOL    HW275678   3.440   9.162   4.952  0.7713 -2.7115  0.6135
24743SOL     OW75679   7.914   6.522   3.631 -0.0032 -0.1777  0.7654
24743SOL    HW175680   7.964   6.602   3.646 -0.3838 -0.2638  2.9242
24743SOL    HW275681   7.869   6.536   3.548  1.3586  1.0730  0.2035
24744SOL     OW75682   6.363   0.281   3.866  0.0675  0.9615 -0.4796
24744SOL    HW175683   6.400   0.213   3.809  0.4552  1.7162 -1.1455
24744SOL    HW275684   6.438   0.313   3.916  0.0511  1.5106 -0.8054
24745SOL     OW75685   7.797   2.702   5.650 -1.0086  0.3613  0.0721
24745SOL    HW175686   7.847   2.683   5.730  0.0146 -0.8386 -0.8024
24745SOL    HW275687   7.822   2.791   5.627  0.9517 -0.2598 -0.4270
24746SOL     OW75688   1.415   7.015   1.394  0.0023  0.2273  0.1373
24746SOL    HW175689   1.452   7.095   1.433  0.7811 -0.6656  1.3278
24746SOL    HW275690   1.443   7.017   1.303  2.3115  0.0391  0.7832
24747SOL     OW75691   8.810   6.601   0.255  0.4020  0.0126 -0.0591
24747SOL    HW175692   8.768   6.678   0.293  2.3444  0.5125  1.1958
24747SOL    HW275693   8.740   6.536   0.249 -0.7041  1.0184  1.3135
24748SOL     OW75694   2.226   5.127   2.414 -0.4672 -0.2281 -0.5548
24748SOL    HW175695   2.216   5.037   2.385 -0.0036 -1.6603  3.0980
24748SOL    HW275696   2.155   5.141   2.477  1.0029  0.9531  0.9630
24749SOL     OW75697   3.740   3.087   2.738 -0.0318  0.4148  0.1752
24749SOL    HW175698   3.670   3.064   2.677 -0.5313  0.9841  0.5254
24749SOL    HW275699   3.764   3.177   2.714 -0.7546  0.9249  1.2922
24750SOL     OW75700   3.179   2.041   5.615  0.3988  0.2885 -0.2454
24750SOL    HW175701   3.243   2.048   5.544  0.5515 -0.0399 -0.1403
24750SOL    HW275702   3.133   1.959   5.599  0.4468  0.2030  0.0442
24751SOL     OW75703   2.577   4.761   1.116  0.0340 -0.2056  0.0231
24751SOL    HW175704   2.505   4.790   1.173 -0.8584  0.0199 -1.1811
24751SOL    HW275705   2.534   4.728   1.037  1.1922 -1.7626  0.0062
24752SOL     OW75706   4.062   3.445   5.064  0.4599  0.2625  0.0462
24752SOL    HW175707   4.074   3.402   5.148  1.2605  1.6523  0.6733
24752SOL    HW275708   4.109   3.390   5.001  0.9185 -0.1101  0.7091
24753SOL     OW75709   2.285   7.500   2.804 -0.0817  0.1808  0.3404
24753SOL    HW175710   2.238   7.447   2.740 -0.9382  0.8895  0.3577
24753SOL    HW275711   2.222   7.515   2.874  0.5335  0.2296  0.8946
24754SOL     OW75712   2.612   1.261   8.336  0.2722  0.3234  0.1518
24754SOL    HW175713   2.622   1.261   8.241  0.5158 -0.4937  0.1712
24754SOL    HW275714   2.693   1.222   8.369  0.0618  0.3147  0.6748
24755SOL     OW75715   4.984   3.155   7.039  0.6906  0.1236 -0.6656
24755SOL    HW175716   5.007   3.190   7.125 -0.0604 -2.2636  0.6088
24755SOL    HW275717   5.061   3.103   7.013 -0.1564 -1.5082 -0.0367
24756SOL     OW75718   6.596   0.267   0.841  0.1550 -0.0752  0.0762
24756SOL    HW175719   6.518   0.278   0.894  0.2979 -0.6602  0.4046
24756SOL    HW275720   6.636   0.354   0.840  0.4614 -0.1807  1.4033
24757SOL     OW75721   4.106   8.019   0.313  0.1237 -0.5336 -0.2048
24757SOL    HW175722   4.119   8.110   0.337 -0.7251 -0.4187 -0.1840
24757SOL    HW275723   4.019   7.997   0.344 -0.0965 -1.0419 -1.1301
24758SOL     OW75724   7.522   3.780   8.634 -0.5249  0.1660  0.0157
24758SOL    HW175725   7.538   3.874   8.649 -0.2502 -0.0922  1.5333
24758SOL    HW275726   7.428   3.770   8.647 -0.2046 -0.1787  2.7538
24759SOL     OW75727   2.147   5.626   3.465 -0.1189 -0.2596 -0.9613
24759SOL    HW175728   2.159   5.533   3.480  1.1149 -0.0150 -0.3016
24759SOL    HW275729   2.230   5.656   3.428  0.5320  1.0625  1.3916
24760SOL     OW75730   1.156   7.187   2.863  0.1107 -0.4044 -0.2984
24760SOL    HW175731   1.093   7.125   2.899  1.2859 -0.5867  1.6036
24760SOL    HW275732   1.240   7.159   2.899  0.8183  1.7273 -0.1564
24761SOL     OW75733   1.482   4.388   0.866  0.1149 -0.3752  0.0484
24761SOL    HW175734   1.480   4.442   0.944  0.9375 -1.9746  1.2502
24761SOL    HW275735   1.421   4.316   0.884  0.8071 -1.1232 -0.4637
24762SOL     OW75736   1.441   8.191   2.181 -0.1872  1.0156  0.5537
24762SOL    HW175737   1.428   8.273   2.230 -1.1698  0.6572  0.9208
24762SOL    HW275738   1.478   8.130   2.245 -0.0924  0.9745  0.4590
24763SOL     OW75739   8.347   8.059   7.464  0.2423  0.2536  0.4305
24763SOL    HW175740   8.367   7.966   7.466 -0.6155  0.0458 -0.0732
24763SOL    HW275741   8.409   8.096   7.400 -0.4309 -0.2451 -0.5401
24764SOL     OW75742   5.625   2.454   0.175 -0.4791  0.2950  0.1969
24764SOL    HW175743   5.638   2.518   0.245  0.6449 -0.2289  0.4954
24764SOL    HW275744   5.633   2.504   0.094 -0.5166  0.6920  0.4395
24765SOL     OW75745   8.152   8.881   6.580 -0.0879  0.2456  0.3279
24765SOL    HW175746   8.193   8.943   6.641 -1.6546  1.3574  0.3179
24765SOL    HW275747   8.084   8.932   6.536  0.1414 -0.8649 -1.4530
24766SOL     OW75748   7.738   0.941   7.428  0.1521  0.5051 -0.2397
24766SOL    HW175749   7.661   0.902   7.386  0.9699 -1.1626 -0.2917
24766SOL    HW275750   7.705   0.980   7.509 -0.5665 -1.4476  0.4643
24767SOL     OW75751   2.305   1.930   7.114  0.1258 -0.7697  0.1014
24767SOL    HW175752   2.220   1.954   7.152  0.2403  1.7729 -1.0414
24767SOL    HW275753   2.369   1.979   7.166  0.7046 -1.0117 -0.3726
24768SOL     OW75754   0.244   2.404   9.034 -0.1758  0.6120  0.6436
24768SOL    HW175755   0.207   2.397   8.946 -0.8990 -0.5883  1.0094
24768SOL    HW275756   0.321   2.459   9.024  1.6910 -2.1118 -1.3629
24769SOL     OW75757   6.839   7.054   1.901  0.3329  0.2259 -0.5373
24769SOL    HW175758   6.787   7.031   1.978  1.6491  0.3848  0.4392
24769SOL    HW275759   6.877   6.971   1.873  0.3903  0.2762 -0.6064
24770SOL     OW75760   3.890   7.909   4.544 -0.2801 -0.2656 -0.1899
24770SOL    HW175761   3.933   7.993   4.527 -0.5077 -0.2041 -0.4612
24770SOL    HW275762   3.811   7.911   4.490 -0.8501 -0.1968  0.6307
24771SOL     OW75763   8.511   1.115   1.376  0.0430  0.0318 -0.1377
24771SOL    HW175764   8.516   1.040   1.318  1.1301  0.9344 -1.2619
24771SOL    HW275765   8.582   1.103   1.439  0.0615  0.0036 -0.1648
24772SOL     OW75766   3.286   0.281   7.966  0.2736 -0.2904  0.1338
24772SOL    HW175767   3.201   0.286   8.009 -0.0168 -1.1082 -0.3164
24772SOL    HW275768   3.343   0.336   8.019 -0.5469  0.3236  0.4033
24773SOL     OW75769   6.638   0.353   1.968 -0.5745 -0.4047  0.0196
24773SOL    HW175770   6.680   0.434   1.996  0.4648 -1.2599  1.0680
24773SOL    HW275771   6.689   0.325   1.891  0.9767 -1.5041  1.3597
24774SOL     OW75772   7.151   3.091   3.296 -0.0037  0.1615  0.0750
24774SOL    HW175773   7.089   3.163   3.285  0.2337  0.5809  1.3111
24774SOL    HW275774   7.155   3.050   3.210 -3.6749 -1.2939  0.4110
24775SOL     OW75775   4.967   4.588   8.799  0.1992 -0.4143 -0.0816
24775SOL    HW175776   5.061   4.605   8.800 -0.1200  1.6519 -0.2557
24775SOL    HW275777   4.931   4.654   8.740 -1.2718 -1.7998 -0.8020
24776SOL     OW75778   8.579   3.408   3.178  0.3356 -0.4367 -0.3112
24776SOL    HW175779   8.592   3.494   3.218 -0.0430  0.5063 -2.1215
24776SOL    HW275780   8.485   3.394   3.181  0.5112 -1.4637  1.2583
24777SOL     OW75781   4.816   7.478   6.707 -0.1153  0.2315  0.6323
24777SOL    HW175782   4.870   7.540   6.757  0.1943  0.0094  0.5763
24777SOL    HW275783   4.850   7.392   6.731 -0.7468  0.0638  0.9502
24778SOL     OW75784   7.801   5.158   3.489 -0.7848  0.2681 -0.5868
24778SOL    HW175785   7.845   5.237   3.458  1.8893 -1.3674 -1.3308
24778SOL    HW275786   7.785   5.175   3.582 -0.1661  1.6483 -0.7041
24779SOL     OW75787   9.181   2.790   4.722  0.0334 -0.4814  0.4756
24779SOL    HW175788   9.214   2.864   4.671 -1.4094 -1.8146 -2.6962
24779SOL    HW275789   9.239   2.718   4.699 -0.2083 -0.9637  1.3390
24780SOL     OW75790   5.606   7.349   4.466  0.2576  0.1780  0.1672
24780SOL    HW175791   5.586   7.350   4.373 -0.1225  1.9691  0.2209
24780SOL    HW275792   5.593   7.440   4.494  0.4392 -0.3014  1.9476
24781SOL     OW75793   5.599   7.008   7.774 -0.2269  0.5312 -0.1117
24781SOL    HW175794   5.588   7.030   7.867 -0.4912 -0.9356  0.2303
24781SOL    HW275795   5.621   6.915   7.774  0.5704  0.6977 -1.4896
24782SOL     OW75796   6.644   3.703   6.681 -0.4354 -0.4601  0.0051
24782SOL    HW175797   6.656   3.702   6.587  0.0124  3.1755 -0.1326
24782SOL    HW275798   6.720   3.657   6.717  0.0243 -0.8105 -1.3896
24783SOL     OW75799   8.094   2.824   5.095 -0.4989  0.4369 -0.3424
24783SOL    HW175800   8.071   2.784   5.179 -1.7291  1.6754 -0.0395
24783SOL    HW275801   8.113   2.915   5.117 -0.3008  0.6389 -1.3354
24784SOL     OW75802   0.692   1.738   6.163  0.2756 -0.2738  0.7411
24784SOL    HW175803   0.612   1.786   6.180  0.2794 -0.2124  0.5888
24784SOL    HW275804   0.708   1.750   6.069  1.6108  1.4764  1.1452
24785SOL     OW75805   8.383   3.858   3.619  0.1030 -0.3669 -0.4683
24785SOL    HW175806   8.372   3.862   3.714 -0.1811 -1.1343 -0.4669
24785SOL    HW275807   8.361   3.946   3.589  0.2438 -0.1055  0.1795
24786SOL     OW75808   5.430   7.326   3.089 -0.0623  0.4082  0.0432
24786SOL    HW175809   5.522   7.328   3.114 -0.3915 -0.0945  1.3894
24786SOL    HW275810   5.404   7.234   3.097 -0.8285  0.6304  0.2427
24787SOL     OW75811   4.175   5.626   4.757 -0.2765  0.3951 -0.2288
24787SOL    HW175812   4.141   5.713   4.737  1.1144  0.5368 -2.4501
24787SOL    HW275813   4.111   5.566   4.719 -1.5669  0.3675  1.8711
24788SOL     OW75814   3.177   9.152   1.132 -0.3579  0.2819 -0.0053
24788SOL    HW175815   3.188   9.126   1.041  0.1371  0.6436 -0.0529
24788SOL    HW275816   3.139   9.074   1.174 -1.0284  0.2702 -0.6051
24789SOL     OW75817   4.914   5.638   5.300 -0.2387  0.8098  0.4907
24789SOL    HW175818   4.867   5.603   5.376  2.4346  1.3572  2.5375
24789SOL    HW275819   4.881   5.727   5.290 -1.4459  0.3552  0.2114
24790SOL     OW75820   7.495   9.077   1.142 -0.6130  0.0436  0.2513
24790SOL    HW175821   7.427   9.084   1.075  0.0652  3.1408 -0.2536
24790SOL    HW275822   7.577   9.086   1.094 -0.0735  1.1302  1.3259
24791SOL     OW75823   3.179   5.552   6.277 -0.1247  0.1005 -0.1924
24791SOL    HW175824   3.145   5.466   6.303 -0.4839  0.4701  0.5966
24791SOL    HW275825   3.254   5.532   6.221 -0.1255 -0.7335  0.0885
24792SOL     OW75826   2.914   1.421   6.314 -0.3145  0.3035  0.4024
24792SOL    HW175827   2.947   1.382   6.395 -0.1808  1.1027  0.7402
24792SOL    HW275828   2.993   1.440   6.263 -0.3640  0.4090  0.3649
24793SOL     OW75829   6.148   6.905   4.904  0.2920  0.3122  0.3190
24793SOL    HW175830   6.233   6.904   4.949  0.9367 -0.8275 -0.8585
24793SOL    HW275831   6.160   6.964   4.830  0.3404 -0.4801 -0.3233
24794SOL     OW75832   4.811   2.483   0.897  0.3689  0.5549 -0.7726
24794SOL    HW175833   4.743   2.550   0.893  0.4172  0.5759 -1.3326
24794SOL    HW275834   4.779   2.421   0.963  0.0212  0.7992 -0.7076
24795SOL     OW75835   7.653   0.421   2.139 -0.0565  0.2574 -0.8503
24795SOL    HW175836   7.717   0.419   2.210  0.3343 -0.8853 -1.2308
24795SOL    HW275837   7.568   0.417   2.184  0.1006  1.8122 -0.3473
24796SOL     OW75838   6.084   0.467   2.870  0.3173  0.4776 -0.1956
24796SOL    HW175839   6.085   0.381   2.912  2.0807  0.3920 -0.3476
24796SOL    HW275840   6.111   0.528   2.939  1.1974  0.6062 -0.6347
24797SOL     OW75841   1.054   8.358   6.661  0.0650  0.1495 -1.1246
24797SOL    HW175842   1.053   8.343   6.756  0.6283  0.8025 -1.0095
24797SOL    HW275843   1.109   8.435   6.650  1.1651 -0.7600 -2.1082
24798SOL     OW75844   2.109   9.173   6.160  0.2357  0.2738  0.1432
24798SOL    HW175845   2.135   9.146   6.248  1.2335 -0.9252 -0.4885
24798SOL    HW275846   2.046   9.106   6.133 -0.3949  0.8763  0.0947
24799SOL     OW75847   9.160   7.214   3.388  0.1108  0.3499  0.0095
24799SOL    HW175848   9.172   7.275   3.460  1.7217  0.8664 -0.6510
24799SOL    HW275849   9.079   7.242   3.345 -0.2093  0.7789  0.8881
24800SOL     OW75850   0.898   5.865   3.545 -0.4402  0.5692  0.3996
24800SOL    HW175851   0.841   5.839   3.618 -0.1276  1.3721  0.9507
24800SOL    HW275852   0.986   5.838   3.573 -0.5644 -1.0503 -0.6293
24801SOL     OW75853   2.080   7.277   4.575  0.0963 -0.2728  0.3514
24801SOL    HW175854   2.045   7.234   4.653 -2.3584  0.6621 -0.1237
24801SOL    HW275855   2.132   7.350   4.609 -1.7310  0.7179  1.2237
24802SOL     OW75856   0.403   4.426   0.291  0.2849  0.3859 -0.1476
24802SOL    HW175857   0.483   4.474   0.313  0.8870 -0.3077 -0.7712
24802SOL    HW275858   0.422   4.386   0.207 -1.4255  1.7684 -1.2608
24803SOL     OW75859   3.403   3.642   7.464  0.0855  0.0781  0.5301
24803SOL    HW175860   3.347   3.718   7.479  0.8312  0.6233  0.6216
24803SOL    HW275861   3.462   3.641   7.539  0.8074  0.0648 -0.0325
24804SOL     OW75862   2.686   7.398   1.745  1.0142  0.6272  0.0989
24804SOL    HW175863   2.690   7.309   1.709  0.7966 -0.1422  1.8958
24804SOL    HW275864   2.595   7.407   1.775  1.1249  1.3352  0.2253
24805SOL     OW75865   7.974   0.623   5.939 -0.2536  0.1349  0.2376
24805SOL    HW175866   7.975   0.537   5.896 -3.6253  0.6055 -1.1156
24805SOL    HW275867   8.043   0.672   5.896 -0.7411 -0.7758 -1.7398
24806SOL     OW75868   2.541   4.476   2.369 -0.1010  0.1024 -0.4357
24806SOL    HW175869   2.456   4.517   2.354 -0.7020 -1.2382 -0.8685
24806SOL    HW275870   2.546   4.466   2.464 -0.5091  0.0398 -0.4168
24807SOL     OW75871   7.583   8.152   1.280  0.0969 -0.4756 -0.0703
24807SOL    HW175872   7.512   8.170   1.218  0.7229  1.8658 -0.1854
24807SOL    HW275873   7.538   8.138   1.364 -0.5698 -0.7622 -0.4564
24808SOL     OW75874   8.595   0.510   3.490 -0.7709  0.2592 -0.1351
24808SOL    HW175875   8.670   0.561   3.519 -1.8609  1.8221  0.0791
24808SOL    HW275876   8.590   0.526   3.396 -1.3743  0.9602  0.0023
24809SOL     OW75877   8.347   6.587   1.640 -0.1109 -0.0653  0.5485
24809SOL    HW175878   8.252   6.574   1.635 -0.5835  3.2135 -1.9332
24809SOL    HW275879   8.379   6.561   1.554  0.6196  2.3957  0.0158
24810SOL     OW75880   7.188   1.318   0.893 -0.4835 -0.0466  0.3777
24810SOL    HW175881   7.223   1.369   0.965  2.1296 -0.7402 -0.3176
24810SOL    HW275882   7.168   1.232   0.931  0.6793 -0.3406  0.3411
24811SOL     OW75883   7.536   6.270   3.050 -0.5081  0.5586  0.0020
24811SOL    HW175884   7.496   6.232   3.129 -0.3056 -0.4399 -0.3620
24811SOL    HW275885   7.462   6.285   2.991 -0.4299 -0.7025 -0.4321
24812SOL     OW75886   4.920   6.096   8.745  0.4801  0.0539  0.5185
24812SOL    HW175887   4.893   6.004   8.747  1.7045 -0.3018  1.5907
24812SOL    HW275888   4.839   6.144   8.728 -0.3762 -1.1443  1.0778
24813SOL     OW75889   7.585   5.409   1.313  0.1476  0.1485 -0.4712
24813SOL    HW175890   7.634   5.401   1.394  1.3944  1.3911 -1.0801
24813SOL    HW275891   7.559   5.319   1.292  0.4422 -0.2695  0.8958
24814SOL     OW75892   6.553   7.641   8.672 -0.3661  0.3711 -0.4922
24814SOL    HW175893   6.463   7.669   8.659  0.1003  2.2297 -0.0558
24814SOL    HW275894   6.568   7.573   8.606 -2.1123 -0.0980 -0.4438
24815SOL     OW75895   0.524   1.549   3.571  0.3676  0.0918 -0.0325
24815SOL    HW175896   0.521   1.565   3.477 -1.8330 -0.0098 -0.0318
24815SOL    HW275897   0.476   1.467   3.583 -0.1000  0.5253  1.2366
24816SOL     OW75898   0.354   6.043   2.057  0.1769  0.7467  0.4329
24816SOL    HW175899   0.413   5.976   2.023 -0.4413  1.2732 -1.9031
24816SOL    HW275900   0.266   6.010   2.038 -0.1635  1.7518  0.1477
24817SOL     OW75901   9.075   9.070   7.330 -0.0033  0.1356 -0.6327
24817SOL    HW175902   9.096   9.051   7.239 -0.9562 -0.0448 -0.8248
24817SOL    HW275903   9.005   9.135   7.326 -1.1007 -0.9648 -0.0715
24818SOL     OW75904   5.966   0.912   1.418 -0.9750 -0.3098 -0.0729
24818SOL    HW175905   6.020   0.932   1.495 -2.9873  1.1618  1.0463
24818SOL    HW275906   6.029   0.905   1.346  1.0105 -1.9413  1.6686
24819SOL     OW75907   5.402   5.894   2.799  0.1002 -0.3150  0.0838
24819SOL    HW175908   5.307   5.900   2.811 -0.1353 -0.0223 -1.7318
24819SOL    HW275909   5.428   5.819   2.852 -1.2126 -0.6628  0.2663
24820SOL     OW75910   1.233   0.926   6.512 -0.1873 -0.1279 -0.2500
24820SOL    HW175911   1.276   0.923   6.427 -0.0764 -0.9249 -0.1718
24820SOL    HW275912   1.263   0.847   6.557  1.2624  1.1951  1.2607
24821SOL     OW75913   5.660   9.064   4.135  0.0859  0.0813 -0.1523
24821SOL    HW175914   5.575   9.065   4.179 -0.0251 -0.3988 -0.3366
24821SOL    HW275915   5.686   8.971   4.137  0.8580  0.3035  0.3785
24822SOL     OW75916   8.335   8.062   9.268  0.1269 -0.3572 -0.5256
24822SOL    HW175917   8.361   8.026   9.183 -3.4038 -2.3969 -0.9453
24822SOL    HW275918   8.357   7.993   9.331  0.1033 -0.0555 -0.1832
24823SOL     OW75919   5.486   8.962   4.493 -0.0638  0.2084 -0.0819
24823SOL    HW175920   5.503   8.962   4.588 -0.7753  1.1194  0.0635
24823SOL    HW275921   5.463   8.872   4.473 -0.6486  0.1588  0.7689
24824SOL     OW75922   1.965   6.770   6.522  0.4307  0.0425 -0.3603
24824SOL    HW175923   1.960   6.769   6.617  0.6417  0.0996 -0.3487
24824SOL    HW275924   2.003   6.685   6.499  0.1697 -0.0638 -0.4064
24825SOL     OW75925   5.315   6.183   2.722 -0.1192 -0.2414  0.7618
24825SOL    HW175926   5.381   6.120   2.751 -0.8511 -0.3557  2.2777
24825SOL    HW275927   5.239   6.164   2.777 -0.5770  1.5385  0.7839
24826SOL     OW75928   9.207   6.232   1.403  0.0184 -0.2567  0.2556
24826SOL    HW175929   9.274   6.246   1.336 -1.7288 -1.4676 -1.8931
24826SOL    HW275930   9.191   6.318   1.440  1.0307  0.4703 -0.9336
24827SOL     OW75931   2.896   1.867   2.496  0.0570 -0.0867  0.2824
24827SOL    HW175932   2.872   1.945   2.445 -0.6352 -1.2047 -1.1694
24827SOL    HW275933   2.992   1.864   2.491  0.1540  1.1068  1.0549
24828SOL     OW75934   7.422   5.001   1.034  0.4967 -0.4375 -0.1742
24828SOL    HW175935   7.408   5.025   0.943  0.1532 -1.2822 -0.3519
24828SOL    HW275936   7.421   4.905   1.034 -0.4892 -0.4454  0.8619
24829SOL     OW75937   2.446   1.187   4.818  0.0383 -0.6360 -0.0401
24829SOL    HW175938   2.390   1.209   4.893  0.7035 -0.6245  0.4537
24829SOL    HW275939   2.533   1.217   4.843  1.0884 -3.9836  0.7714
24830SOL     OW75940   7.652   8.150   4.089  0.6980  0.5359 -0.2453
24830SOL    HW175941   7.604   8.127   4.009  1.1405  0.6261 -0.5411
24830SOL    HW275942   7.651   8.246   4.091  0.1750  0.5268  0.1774
24831SOL     OW75943   8.864   5.708   2.940  0.6788 -0.0216 -0.5980
24831SOL    HW175944   8.770   5.695   2.931  0.6753  0.7162 -1.8799
24831SOL    HW275945   8.873   5.784   2.997  0.4812  0.1601 -0.8071
24832SOL     OW75946   8.291   5.562   1.839 -0.0665  0.1251  0.4039
24832SOL    HW175947   8.222   5.511   1.797  0.3274 -0.7110  0.7581
24832SOL    HW275948   8.372   5.516   1.818  0.2055  0.0481  1.5282
24833SOL     OW75949   7.466   2.559   3.268 -0.1557 -0.6453 -0.2446
24833SOL    HW175950   7.397   2.591   3.326 -0.0563  1.6693 -1.2879
24833SOL    HW275951   7.529   2.631   3.265  2.4391 -2.7002  0.7652
24834SOL     OW75952   1.278   1.788   5.725 -0.2549  0.2069 -0.2394
24834SOL    HW175953   1.363   1.815   5.689 -0.1120  1.4224  0.9111
24834SOL    HW275954   1.259   1.705   5.682  1.1109  0.3370 -1.1639
24835SOL     OW75955   6.967   2.956   1.017  0.0905 -0.3497 -0.8229
24835SOL    HW175956   6.919   2.887   1.061  1.0820  0.1068  1.0944
24835SOL    HW275957   7.058   2.927   1.019  0.6397  1.2728  0.7076
24836SOL     OW75958   3.754   9.178   6.653 -0.1034  0.4171  0.1867
24836SOL    HW175959   3.709   9.261   6.667  0.9419  0.7708  1.7384
24836SOL    HW275960   3.693   9.112   6.685 -2.1955  0.1749 -3.6855
24837SOL     OW75961   0.144   1.787   6.134  0.1740 -0.7752  0.1008
24837SOL    HW175962   0.094   1.856   6.178  1.3588 -0.6890  1.3733
24837SOL    HW275963   0.087   1.759   6.062 -0.3214  1.5456 -0.4967
24838SOL     OW75964   2.697   7.557   0.791  0.2457 -0.6512  0.0876
24838SOL    HW175965   2.720   7.645   0.823  0.8479 -1.2345  1.3139
24838SOL    HW275966   2.749   7.546   0.712  1.7750 -0.6987  1.0693
24839SOL     OW75967   0.326   1.095   0.427  0.1676  0.2922 -0.5354
24839SOL    HW175968   0.336   1.029   0.495 -0.6047  1.5481  0.8661
24839SOL    HW275969   0.307   1.045   0.348  0.1418 -1.1794  0.3547
24840SOL     OW75970   0.734   4.193   8.684  0.2271 -0.2901  0.5673
24840SOL    HW175971   0.666   4.125   8.679  1.3381 -1.3587 -1.3464
24840SOL    HW275972   0.713   4.242   8.764 -1.9948 -1.3972  0.7508
24841SOL     OW75973   5.502   1.662   7.569  0.1270  0.0428 -0.0734
24841SOL    HW175974   5.529   1.629   7.654 -1.4323 -0.6810  0.1676
24841SOL    HW275975   5.410   1.638   7.561 -0.3712  2.0322 -1.0228
24842SOL     OW75976   5.860   2.686   6.253 -0.2857  0.3777 -0.3496
24842SOL    HW175977   5.781   2.642   6.286  0.7622 -3.0314 -1.9221
24842SOL    HW275978   5.884   2.637   6.175  2.1389  2.7553 -1.2586
24843SOL     OW75979   3.985   3.251   7.284  0.3831  0.3000 -0.3344
24843SOL    HW175980   4.034   3.210   7.212  0.3775 -0.5782  0.1491
24843SOL    HW275981   3.956   3.334   7.248  2.4686  0.9894 -0.5598
24844SOL     OW75982   9.209   3.342   1.692 -0.8024  0.2549 -0.8089
24844SOL    HW175983   9.256   3.425   1.685  1.4207 -0.9464 -1.1838
24844SOL    HW275984   9.155   3.338   1.613  0.5146  0.5467 -1.7657
24845SOL     OW75985   0.895   5.457   4.172  0.4580 -0.5309  0.1534
24845SOL    HW175986   0.831   5.521   4.141 -0.4414 -1.7551 -0.5993
24845SOL    HW275987   0.951   5.440   4.096 -0.3587 -1.8700 -0.1784
24846SOL     OW75988   0.233   4.896   8.284  0.4893 -0.1170 -0.5641
24846SOL    HW175989   0.207   4.934   8.368  0.8823  0.5145 -0.7251
24846SOL    HW275990   0.257   4.805   8.305  1.1212  0.1949  0.1030
24847SOL     OW75991   0.716   0.748   4.220 -0.4698  0.4891 -0.4220
24847SOL    HW175992   0.719   0.654   4.201 -2.9316  0.1972  0.3085
24847SOL    HW275993   0.767   0.758   4.301 -1.8553 -0.5970  0.6391
24848SOL     OW75994   1.266   3.403   0.382  0.5524 -0.1020  0.0754
24848SOL    HW175995   1.357   3.410   0.352  1.1215 -0.6644  1.5293
24848SOL    HW275996   1.246   3.309   0.375  0.6049 -0.2056  1.0799
24849SOL     OW75997   1.907   5.173   4.448 -0.2187  0.0351  0.3354
24849SOL    HW175998   1.865   5.088   4.454  2.4189 -1.2928  2.0753
24849SOL    HW275999   1.961   5.168   4.368 -1.2328  0.7115 -0.4157
24850SOL     OW76000   0.961   6.632   5.234 -0.5556  0.2982  0.3484
24850SOL    HW176001   0.979   6.545   5.198 -0.8639 -0.3034  1.6081
24850SOL    HW276002   0.867   6.645   5.219 -0.8630 -0.3078  1.6344
24851SOL     OW76003   4.207   3.370   5.537  0.1954 -0.2035 -0.1229
24851SOL    HW176004   4.142   3.362   5.606  0.9107 -0.5074  0.5199
24851SOL    HW276005   4.232   3.462   5.538 -0.1284 -0.1085 -0.3014
24852SOL     OW76006   8.871   4.455   3.211 -0.2775  0.0419 -0.1115
24852SOL    HW176007   8.922   4.394   3.264 -0.5559  0.1768  0.3173
24852SOL    HW276008   8.819   4.399   3.153  0.5194 -0.0922 -0.7094
24853SOL     OW76009   8.036   5.559   6.073 -0.2037  0.8798 -0.3210
24853SOL    HW176010   8.116   5.604   6.045  1.2471 -1.3597  0.0015
24853SOL    HW276011   8.012   5.504   5.999  0.4400 -0.8639  0.7172
24854SOL     OW76012   6.338   8.372   0.691  0.5924 -0.2061  0.0818
24854SOL    HW176013   6.247   8.343   0.686  1.1423 -1.9741 -0.7116
24854SOL    HW276014   6.337   8.462   0.661 -0.9767  0.0191  0.7090
24855SOL     OW76015   6.845   8.099   2.952 -0.3571 -0.0984 -0.3479
24855SOL    HW176016   6.917   8.042   2.979  0.7106  1.0257 -0.6868
24855SOL    HW276017   6.841   8.166   3.021 -1.4688 -0.4730 -0.0388
24856SOL     OW76018   7.190   7.542   8.176 -0.7947  0.3328 -0.1560
24856SOL    HW176019   7.113   7.574   8.225 -0.5978 -0.6119  0.8050
24856SOL    HW276020   7.157   7.525   8.088 -1.4494  0.8969 -0.0309
24857SOL     OW76021   1.249   7.685   6.823 -0.0326  0.3655 -0.2071
24857SOL    HW176022   1.181   7.706   6.759  1.2219  0.5320 -1.5468
24857SOL    HW276023   1.289   7.605   6.791  0.8529  0.6370  0.1771
24858SOL     OW76024   2.755   8.318   1.546 -0.4574  0.3929 -0.0509
24858SOL    HW176025   2.670   8.293   1.509  0.1907 -0.6997 -0.8922
24858SOL    HW276026   2.760   8.272   1.630 -0.5847  0.1926 -0.1507
24859SOL     OW76027   5.152   5.263   9.115  0.5139 -0.7636 -0.2453
24859SOL    HW176028   5.208   5.314   9.057 -1.5534  1.8631 -0.1199
24859SOL    HW276029   5.120   5.191   9.061  0.3562  0.3792 -1.7213
24860SOL     OW76030   0.526   0.312   8.882 -0.0025  0.2110 -0.6907
24860SOL    HW176031   0.541   0.219   8.864  0.0801 -0.4933  2.4135
24860SOL    HW276032   0.614   0.348   8.897 -0.1676  0.1958  0.4017
24861SOL     OW76033   7.712   2.677   0.440 -0.5056 -0.0510 -0.3505
24861SOL    HW176034   7.714   2.699   0.533  0.2808  0.1146 -0.3978
24861SOL    HW276035   7.659   2.746   0.400 -1.9675 -0.8467  0.1417
24862SOL     OW76036   3.817   7.540   3.806 -0.5528 -0.4219 -0.5458
24862SOL    HW176037   3.876   7.614   3.794 -0.5061 -0.4082 -0.2269
24862SOL    HW276038   3.863   7.481   3.866 -0.3966 -0.9217 -1.1395
24863SOL     OW76039   4.294   1.528   0.806  0.3583  0.1791  0.5302
24863SOL    HW176040   4.221   1.588   0.824  0.0178 -0.0166 -0.1564
24863SOL    HW276041   4.265   1.478   0.729  1.0267 -0.2204  0.5353
24864SOL     OW76042   9.022   4.847   5.874  0.2748  0.0225  0.0182
24864SOL    HW176043   9.092   4.785   5.854 -0.1605 -1.4425  2.5530
24864SOL    HW276044   8.942   4.803   5.844  0.3066  1.6476 -2.7791
24865SOL     OW76045   8.074   9.012   5.173  0.0493 -0.6587  0.3507
24865SOL    HW176046   7.985   8.983   5.195  0.2812 -0.8787  1.0449
24865SOL    HW276047   8.127   8.981   5.246  0.6343 -0.1821  0.1320
24866SOL     OW76048   2.300   4.242   9.173 -0.0245  0.1119 -0.2084
24866SOL    HW176049   2.355   4.281   9.105  1.9139 -0.6922  0.8068
24866SOL    HW276050   2.334   4.153   9.182 -2.2365 -0.8077 -0.2441
24867SOL     OW76051   7.423   1.011   3.316  0.5012  0.5180  0.1142
24867SOL    HW176052   7.445   1.032   3.407  0.4461  0.1731  0.2066
24867SOL    HW276053   7.345   1.064   3.297  0.1928  0.1799  0.4375
24868SOL     OW76054   5.994   0.191   7.982  0.2390 -0.2074  0.3713
24868SOL    HW176055   5.923   0.129   7.995 -1.3502  1.4914  0.1711
24868SOL    HW276056   5.992   0.246   8.060  2.9683 -1.5939  1.5418
24869SOL     OW76057   8.088   6.429   6.801 -0.0655  0.2867  0.5908
24869SOL    HW176058   8.127   6.512   6.826 -1.0788  1.3795 -1.1627
24869SOL    HW276059   7.999   6.432   6.837 -0.0139 -0.1561  0.7614
24870SOL     OW76060   8.811   4.680   1.260  0.6663  0.6258 -0.3347
24870SOL    HW176061   8.791   4.602   1.311 -0.5044  0.7147 -0.6331
24870SOL    HW276062   8.744   4.743   1.284  0.7557  1.0522 -1.1574
24871SOL     OW76063   3.845   1.834   6.233 -0.7771 -0.5572  1.0143
24871SOL    HW176064   3.933   1.800   6.214 -0.9188 -0.9848  1.1197
24871SOL    HW276065   3.859   1.927   6.252 -0.3657 -0.5910  0.8849
24872SOL     OW76066   8.953   0.688   1.669  0.2080 -0.1503 -0.5909
24872SOL    HW176067   8.898   0.760   1.638 -0.1036 -0.8539 -1.7287
24872SOL    HW276068   8.898   0.611   1.661  0.3978 -0.4892  1.0132
24873SOL     OW76069   4.138   2.201   8.721 -0.3459  0.3835 -0.1501
24873SOL    HW176070   4.118   2.289   8.754 -1.7055  0.3836 -0.9099
24873SOL    HW276071   4.075   2.187   8.651  2.3556  0.3330 -2.7336
24874SOL     OW76072   4.661   5.907   6.760  0.4218 -0.0255 -0.2105
24874SOL    HW176073   4.666   5.875   6.670 -0.7140  0.0541 -0.3163
24874SOL    HW276074   4.567   5.922   6.775  0.7331  1.3496  0.5089
24875SOL     OW76075   8.373   4.787   6.017  0.1754  0.1361  0.4790
24875SOL    HW176076   8.405   4.703   6.048 -0.3956 -1.6043 -3.1171
24875SOL    HW276077   8.452   4.837   5.996  0.5343 -0.4809  0.3302
24876SOL     OW76078   6.143   9.054   8.425 -0.1912  0.1537  0.3955
24876SOL    HW176079   6.131   9.089   8.514 -0.0809 -0.3079  0.5939
24876SOL    HW276080   6.070   8.993   8.414  0.5092 -0.7300  0.6377
24877SOL     OW76081   8.271   2.910   7.238 -0.2407  0.4690 -0.1711
24877SOL    HW176082   8.349   2.859   7.219  0.2926  0.8047  0.9950
24877SOL    HW276083   8.244   2.882   7.325 -2.2489 -0.6183 -1.0669
24878SOL     OW76084   7.525   1.058   4.496  0.3236  0.3128 -0.7661
24878SOL    HW176085   7.526   1.034   4.589  1.7301 -1.8722 -1.2664
24878SOL    HW276086   7.445   1.110   4.486 -0.9607 -1.0659  1.2895
24879SOL     OW76087   6.915   6.872   9.177 -0.3013 -0.0460 -0.1431
24879SOL    HW176088   6.831   6.907   9.205 -0.1275  1.6040 -1.4551
24879SOL    HW276089   6.917   6.889   9.082  1.9083  0.9552  0.0123
24880SOL     OW76090   2.336   5.449   4.887  0.1514 -0.3002  0.2658
24880SOL    HW176091   2.405   5.396   4.847 -0.2262  0.6105 -1.6683
24880SOL    HW276092   2.262   5.389   4.897  0.4419 -0.6803  0.1326
24881SOL     OW76093   6.425   7.252   4.911 -0.2315  0.0954  0.1138
24881SOL    HW176094   6.411   7.346   4.902  1.1420  0.3549  0.3902
24881SOL    HW276095   6.504   7.245   4.965 -0.3548 -1.2193  0.1596
24882SOL     OW76096   9.253   6.739   8.663 -0.3135 -0.2860  0.3616
24882SOL    HW176097   9.323   6.703   8.608  0.1734  0.5234  0.4441
24882SOL    HW276098   9.214   6.808   8.610  0.7644  1.1511  1.3265
24883SOL     OW76099   1.049   8.920   6.644 -0.1990  0.2505  0.0139
24883SOL    HW176100   1.136   8.953   6.664  0.8140 -2.1128 -0.1566
24883SOL    HW276101   1.023   8.869   6.721 -1.0603  0.2032 -0.2871
24884SOL     OW76102   4.296   5.520   6.803 -0.2302 -0.0901  0.3513
24884SOL    HW176103   4.246   5.569   6.738  0.2157  0.6466  0.5564
24884SOL    HW276104   4.386   5.525   6.773 -0.2482 -1.3445  0.0299
24885SOL     OW76105   7.316   5.486   4.089 -0.1046  0.6955  0.2863
24885SOL    HW176106   7.223   5.483   4.110  0.0052  0.3858  0.7357
24885SOL    HW276107   7.321   5.534   4.006 -0.6218  1.1193  0.4986
24886SOL     OW76108   4.691   7.881   3.536 -0.1872 -0.1422  0.1431
24886SOL    HW176109   4.607   7.861   3.494 -0.8823 -2.0173  2.2175
24886SOL    HW276110   4.753   7.820   3.497 -0.4026 -0.5954  0.5079
24887SOL     OW76111   2.021   7.737   5.401  0.3541  0.1935 -0.2545
24887SOL    HW176112   2.050   7.666   5.345 -1.1961  0.0400 -0.9105
24887SOL    HW276113   2.049   7.817   5.356 -2.5885  0.1664 -2.4108
24888SOL     OW76114   1.255   1.427   3.341  0.5306 -0.4459 -0.5555
24888SOL    HW176115   1.221   1.396   3.425 -0.6571 -0.3759 -0.9986
24888SOL    HW276116   1.230   1.359   3.279  1.1194 -0.3356 -0.9228
24889SOL     OW76117   7.516   6.828   6.220 -0.0568 -0.1581  0.3169
24889SOL    HW176118   7.586   6.764   6.214 -0.1274 -0.1696 -0.6467
24889SOL    HW276119   7.461   6.811   6.143 -0.8807  0.1199  0.8283
24890SOL     OW76120   1.580   5.612   2.156 -0.7626  0.2139  0.0950
24890SOL    HW176121   1.591   5.605   2.251 -1.2659 -0.9253  0.0922
24890SOL    HW276122   1.665   5.587   2.120 -0.4066  1.1673  0.2401
24891SOL     OW76123   3.937   7.135   5.354  0.0005 -0.3592 -0.4346
24891SOL    HW176124   3.912   7.139   5.446  0.0269 -0.1910 -0.4351
24891SOL    HW276125   3.856   7.155   5.307 -0.0720 -0.6830 -0.4548
24892SOL     OW76126   4.577   6.078   1.436  0.3283  0.0608 -0.8611
24892SOL    HW176127   4.520   6.111   1.367  1.0580 -0.1010 -1.5610
24892SOL    HW276128   4.518   6.044   1.503 -0.4368  1.8437 -0.5754
24893SOL     OW76129   1.654   1.240   8.520 -0.1857  0.2817 -0.1977
24893SOL    HW176130   1.747   1.224   8.536 -0.1792  1.1409  0.7437
24893SOL    HW276131   1.611   1.158   8.545  0.2636  0.1036  0.0084
24894SOL     OW76132   3.513   9.028   3.907 -0.0689  0.4315 -0.6578
24894SOL    HW176133   3.516   9.118   3.873 -0.2304  0.9530  0.6795
24894SOL    HW276134   3.538   9.036   3.999 -2.1652 -0.6021  0.0548
24895SOL     OW76135   1.792   3.753   8.073  0.5556 -0.3067 -0.0533
24895SOL    HW176136   1.843   3.682   8.035 -0.8446 -0.1020 -2.4688
24895SOL    HW276137   1.754   3.800   7.998 -0.9840  1.1754  1.5392
24896SOL     OW76138   0.367   1.358   0.734 -0.4622  0.2291 -0.2799
24896SOL    HW176139   0.417   1.338   0.656 -3.5931  0.4129 -2.5189
24896SOL    HW276140   0.402   1.442   0.765  1.2938 -0.1967 -1.0235
24897SOL     OW76141   8.190   4.377   7.447 -0.3402  0.2848  0.2851
24897SOL    HW176142   8.263   4.423   7.406  0.2240  1.0069  1.9687
24897SOL    HW276143   8.214   4.285   7.446  0.9024  0.5648  1.3054
24898SOL     OW76144   0.043   0.461   6.531  0.2728 -0.0905 -0.1224
24898SOL    HW176145  -0.050   0.443   6.547  0.6626 -0.6790  1.8523
24898SOL    HW276146   0.058   0.434   6.440 -1.5221  0.2096 -0.5407
24899SOL     OW76147   4.233   0.462   6.347 -0.0563 -0.0585 -0.4219
24899SOL    HW176148   4.144   0.430   6.332  0.1414 -1.3279  0.9453
24899SOL    HW276149   4.274   0.395   6.402  1.6211  0.7039 -0.6896
24900SOL     OW76150   2.477   6.506   8.672  0.3871 -0.4287  0.3309
24900SOL    HW176151   2.529   6.447   8.618 -0.7675 -0.7000 -0.5207
24900SOL    HW276152   2.500   6.593   8.641 -0.4359 -0.5884 -0.7998
24901SOL     OW76153   3.639   3.801   9.119  0.0851  0.2910 -0.3839
24901SOL    HW176154   3.572   3.868   9.134 -2.0353 -1.4095 -1.5946
24901SOL    HW276155   3.708   3.847   9.071 -0.3008  2.0568  0.6605
24902SOL     OW76156   5.739   7.915   1.761  0.0119  0.0647 -0.3493
24902SOL    HW176157   5.798   7.990   1.763  0.8605 -0.5938  1.9781
24902SOL    HW276158   5.756   7.868   1.842  0.4414 -3.3917 -2.2481
24903SOL     OW76159   7.388   1.655   4.503 -0.0107 -0.0878 -0.2836
24903SOL    HW176160   7.392   1.672   4.597 -1.2470 -1.9157  0.1503
24903SOL    HW276161   7.305   1.695   4.475 -0.0064 -0.1880 -0.4431
24904SOL     OW76162   0.888   2.970   3.884 -0.6785  0.3669 -0.3801
24904SOL    HW176163   0.936   3.052   3.889 -1.2125  0.7169 -0.8900
24904SOL    HW276164   0.838   2.977   3.803  0.0752 -0.8910 -0.9918
24905SOL     OW76165   6.519   1.457   0.436  0.9042  0.2213 -0.0739
24905SOL    HW176166   6.466   1.531   0.466  0.6657  1.2520 -2.7184
24905SOL    HW276167   6.587   1.496   0.382  2.3750 -1.3560  0.5388
24906SOL     OW76168   8.507   8.677   3.224  0.1012  0.1029  0.0927
24906SOL    HW176169   8.548   8.590   3.219  0.0114  0.1273 -1.9426
24906SOL    HW276170   8.465   8.678   3.310 -1.2472 -2.5157 -0.4091
24907SOL     OW76171   0.187   5.956   8.015 -0.2153 -0.1013  0.6269
24907SOL    HW176172   0.108   5.903   8.002  1.5263 -2.6901  0.0347
24907SOL    HW276173   0.182   5.983   8.107 -0.7581 -2.0741  1.2361
24908SOL     OW76174   2.829   6.105   3.041 -0.2309 -0.2012  0.0021
24908SOL    HW176175   2.833   6.042   2.969  0.9179  1.1532 -1.1768
24908SOL    HW276176   2.901   6.079   3.100  0.2549  0.0057 -0.4918
24909SOL     OW76177   8.351   3.411   2.423 -0.2546  0.1433 -0.6520
24909SOL    HW176178   8.257   3.401   2.410  0.1555 -2.2187 -2.4366
24909SOL    HW276179   8.359   3.482   2.487 -3.2999 -0.7837  0.9545
24910SOL     OW76180   7.568   2.448   7.745 -0.1107 -0.0013 -0.1380
24910SOL    HW176181   7.580   2.474   7.836 -2.1118 -1.3017  0.5634
24910SOL    HW276182   7.494   2.387   7.747 -1.3290  1.1980 -2.8162
24911SOL     OW76183   7.951   2.240   5.849 -0.2878 -0.5870 -0.1946
24911SOL    HW176184   7.870   2.291   5.854 -0.1905 -0.4832  0.3269
24911SOL    HW276185   8.017   2.304   5.821 -0.0179 -0.2474  1.1582
24912SOL     OW76186   2.297   5.708   6.029 -0.1083 -0.1721 -0.1686
24912SOL    HW176187   2.348   5.695   5.950  0.8482  1.2341  0.1783
24912SOL    HW276188   2.338   5.651   6.094 -0.7811 -1.1870 -0.6052
24913SOL     OW76189   3.771   7.724   0.246  0.0944 -0.1277 -0.1568
24913SOL    HW176190   3.724   7.642   0.264  1.3496 -1.1382 -1.3407
24913SOL    HW276191   3.852   7.717   0.297 -0.8763  1.5797  1.8194
24914SOL     OW76192   3.056   3.028   8.825 -0.4328  0.1021 -0.4455
24914SOL    HW176193   3.019   2.943   8.802 -0.7998  0.5556 -1.6248
24914SOL    HW276194   3.030   3.086   8.753 -0.8517  1.4075  0.7133
24915SOL     OW76195   1.181   8.300   7.944  0.6541 -0.1260 -0.4593
24915SOL    HW176196   1.258   8.290   8.000  1.7975  0.6064 -1.8204
24915SOL    HW276197   1.217   8.300   7.855 -0.8521  0.9372 -1.0937
24916SOL     OW76198   6.504   3.436   2.436 -0.1162  0.6093 -0.1445
24916SOL    HW176199   6.546   3.353   2.412  0.1367  0.4548  0.7817
24916SOL    HW276200   6.572   3.502   2.422 -0.3127  0.6618 -0.8682
24917SOL     OW76201   6.115   3.299   4.113  0.4191 -0.2222 -1.0314
24917SOL    HW176202   6.072   3.368   4.163 -2.8084 -0.3284 -3.3313
24917SOL    HW276203   6.127   3.227   4.176 -1.0904  0.5359  0.1867
24918SOL     OW76204   3.074   6.701   8.528 -0.4217  0.3874  0.0855
24918SOL    HW176205   2.982   6.677   8.522 -0.7607  1.8253 -1.3297
24918SOL    HW276206   3.119   6.642   8.468 -0.8436  1.3379 -1.2290
24919SOL     OW76207   1.705   3.783   2.700  0.2538  0.0113  0.2875
24919SOL    HW176208   1.750   3.799   2.617 -1.1464 -2.5437 -1.0882
24919SOL    HW276209   1.744   3.701   2.732 -0.0960  0.3160  1.5274
24920SOL     OW76210   9.069   3.534   2.588  0.0036 -0.2661 -0.3033
24920SOL    HW176211   9.154   3.542   2.632 -0.3187 -1.4496  0.6042
24920SOL    HW276212   9.009   3.508   2.658 -1.4027  1.7728 -0.6582
24921SOL     OW76213   1.893   6.834   0.959  0.4363  0.2416 -0.0641
24921SOL    HW176214   1.961   6.879   1.009  1.6871  0.6694 -2.0200
24921SOL    HW276215   1.931   6.824   0.871 -1.3733 -1.0742 -0.7562
24922SOL     OW76216   2.542   8.031   3.499 -0.1566  0.0168 -0.3996
24922SOL    HW176217   2.609   8.000   3.561  0.0400 -0.1858 -0.7128
24922SOL    HW276218   2.591   8.065   3.425 -0.3748  0.9421 -0.1363
24923SOL     OW76219   0.624   0.022   6.768 -0.1310 -0.2756 -0.7095
24923SOL    HW176220   0.714  -0.009   6.760  0.2294  0.9246 -1.4982
24923SOL    HW276221   0.603   0.012   6.861  0.4088 -1.6219 -0.7170
24924SOL     OW76222   5.065   8.970   5.813  0.0488 -1.3033  0.1897
24924SOL    HW176223   5.117   8.896   5.843  0.2084 -0.9668  0.7512
24924SOL    HW276224   4.974   8.943   5.827  0.1221 -0.4505  2.7856
24925SOL     OW76225   6.963   3.281   5.723  0.0948 -0.4874 -0.6260
24925SOL    HW176226   6.947   3.375   5.713  0.5600 -0.1506  1.3527
24925SOL    HW276227   6.881   3.240   5.695  0.1188  0.4315 -2.1648
24926SOL     OW76228   2.253   3.279   3.410 -0.6809  0.3568  0.2261
24926SOL    HW176229   2.175   3.251   3.363  0.4304 -2.2129 -0.2339
24926SOL    HW276230   2.272   3.208   3.471  2.3135 -0.0743 -0.9873
24927SOL     OW76231   7.275   6.220   6.270  0.4988  0.3070  0.7565
24927SOL    HW176232   7.236   6.282   6.208 -0.3250  0.4784  1.4341
24927SOL    HW276233   7.354   6.188   6.225  0.0076  0.5455 -0.3139
24928SOL     OW76234   4.307   1.357   1.703  0.9056 -0.2863  0.2622
24928SOL    HW176235   4.305   1.376   1.610 -0.3665 -0.3226  0.2721
24928SOL    HW276236   4.280   1.265   1.709  3.4634 -1.1079  0.4927
24929SOL     OW76237   8.986   3.770   8.678  0.4163  0.3793 -0.3821
24929SOL    HW176238   9.028   3.686   8.659  2.1358  0.9911  0.5069
24929SOL    HW276239   8.918   3.779   8.611  0.2895 -1.6408 -0.5732
24930SOL     OW76240   3.616   5.726   8.421 -0.4260  0.6959  0.0359
24930SOL    HW176241   3.625   5.683   8.336 -0.6093  0.2845  0.2259
24930SOL    HW276242   3.543   5.787   8.409  0.2538  1.4512 -0.4304
24931SOL     OW76243   2.757   7.838   3.162  0.1057 -0.0214 -0.2978
24931SOL    HW176244   2.825   7.901   3.139 -0.0303  0.4444  0.5163
24931SOL    HW276245   2.795   7.788   3.234  0.0245 -0.5482 -0.6171
24932SOL     OW76246   1.808   6.665   0.314 -0.2599  0.1664 -0.3182
24932SOL    HW176247   1.836   6.712   0.392 -0.7730  0.7414 -0.4744
24932SOL    HW276248   1.890   6.640   0.271  0.0205  0.2203  0.1774
24933SOL     OW76249   2.679   3.956   4.983  0.0177  0.2996  0.7961
24933SOL    HW176250   2.716   4.023   4.926  0.0373  0.5610  1.1126
24933SOL    HW276251   2.754   3.906   5.014 -0.0900 -0.5849 -0.3257
24934SOL     OW76252   2.749   8.347   3.424 -0.7015 -0.3323 -0.2875
24934SOL    HW176253   2.722   8.289   3.353  0.6434  0.9374 -1.9263
24934SOL    HW276254   2.825   8.304   3.462  0.1530  0.1720 -1.3520
24935SOL     OW76255   3.887   8.548   2.386 -0.1065  0.2622 -0.4691
24935SOL    HW176256   3.875   8.542   2.481 -0.3132 -1.3686 -0.5785
24935SOL    HW276257   3.904   8.641   2.370  0.3555  0.4957  1.2116
24936SOL     OW76258   4.087   4.132   2.441 -0.3258  0.3018 -0.3745
24936SOL    HW176259   4.084   4.180   2.359  2.0187  2.2749  0.5569
24936SOL    HW276260   4.005   4.155   2.485 -1.8922 -1.2531 -2.2884
24937SOL     OW76261   7.194   0.712   8.617  0.0912  0.5789  0.2543
24937SOL    HW176262   7.115   0.720   8.670  1.0968  2.9816  1.5837
24937SOL    HW276263   7.189   0.785   8.555  0.2205 -0.5943 -1.1638
24938SOL     OW76264   7.500   0.944   4.741  0.3492  0.6926 -0.1702
24938SOL    HW176265   7.412   0.914   4.716  1.1315 -1.1107 -0.9502
24938SOL    HW276266   7.497   0.949   4.836 -1.0716  2.2818 -0.2525
24939SOL     OW76267   1.123   1.655   1.219 -0.0235  0.2738  0.3560
24939SOL    HW176268   1.141   1.736   1.267  0.3538 -0.4765  1.5365
24939SOL    HW276269   1.180   1.660   1.142 -1.9857  2.3571 -1.0858
24940SOL     OW76270   7.211   7.096   3.825  0.0060 -0.9144 -0.4755
24940SOL    HW176271   7.197   7.107   3.731  0.6150 -0.1666 -0.4899
24940SOL    HW276272   7.293   7.143   3.843 -0.0751 -1.0951  0.4170
24941SOL     OW76273   1.760   6.977   5.052 -0.0683 -0.5769  0.6103
24941SOL    HW176274   1.688   7.014   5.103 -0.2636  4.1788 -2.4626
24941SOL    HW276275   1.839   7.008   5.096 -0.1241  0.2005  0.1693
24942SOL     OW76276   3.872   7.022   0.029  0.6324  0.0669 -0.1607
24942SOL    HW176277   3.799   7.015   0.090  0.4079 -1.0021 -0.5398
24942SOL    HW276278   3.865   6.946  -0.028  1.8630  0.1072 -0.4154
24943SOL     OW76279   6.826   5.692   5.848 -0.0301  0.2062 -0.0085
24943SOL    HW176280   6.822   5.598   5.828  0.1450 -0.1227  1.3401
24943SOL    HW276281   6.760   5.704   5.916  0.9029  0.7655  0.8235
24944SOL     OW76282   5.715   0.783   0.526 -1.1397  0.3970 -0.3947
24944SOL    HW176283   5.698   0.703   0.477 -0.4101  1.3090 -2.2084
24944SOL    HW276284   5.652   0.846   0.492 -0.5946  1.0649 -0.1936
24945SOL     OW76285   2.361   4.883   1.235 -0.5070 -0.3023  0.2303
24945SOL    HW176286   2.325   4.862   1.321  0.7433  0.9367  1.1034
24945SOL    HW276287   2.291   4.861   1.173 -1.9421  0.0730  1.6661
24946SOL     OW76288   0.732   3.194   2.385  0.4964 -0.4105 -0.1058
24946SOL    HW176289   0.691   3.117   2.345 -0.0372 -0.7257  1.0105
24946SOL    HW276290   0.772   3.162   2.465  0.8607  0.3544  0.0331
24947SOL     OW76291   5.058   3.179   8.294 -0.6377 -0.2781  0.1252
24947SOL    HW176292   5.121   3.250   8.307 -0.3510 -0.3830 -0.6635
24947SOL    HW276293   5.040   3.147   8.383 -0.1404  0.2303  0.4177
24948SOL     OW76294   4.095   4.101   6.418 -0.6806  0.0163  0.1629
24948SOL    HW176295   4.162   4.091   6.486 -0.0630 -0.8123 -0.5496
24948SOL    HW276296   4.105   4.191   6.387  1.5216 -0.6824 -1.3640
24949SOL     OW76297   4.725   3.504   1.673  0.5169  0.1265  0.4792
24949SOL    HW176298   4.674   3.428   1.703 -1.0677  2.3805  4.2561
24949SOL    HW276299   4.672   3.542   1.602  1.3929 -2.1497 -1.5510
24950SOL     OW76300   0.739   5.021   3.412  0.2124 -0.3446 -0.6104
24950SOL    HW176301   0.661   5.065   3.377  1.5965  1.6831 -1.2928
24950SOL    HW276302   0.703   4.953   3.470 -2.0566  0.6798 -0.6902
24951SOL     OW76303   0.640   6.396   7.654  0.9693  0.0452 -0.1675
24951SOL    HW176304   0.708   6.328   7.649 -0.9270 -2.4109  3.3859
24951SOL    HW276305   0.561   6.353   7.621  0.3174  1.6215 -0.7416
24952SOL     OW76306   4.822   0.026   2.702  0.0496  0.3669 -0.1618
24952SOL    HW176307   4.730   0.006   2.721  0.7144 -1.0714  1.8009
24952SOL    HW276308   4.840   0.107   2.749  0.1262 -0.0656  0.5637
24953SOL     OW76309   8.463   5.840   0.012  0.0811 -0.4755  0.1980
24953SOL    HW176310   8.388   5.784   0.030  0.9134 -1.4121  0.9102
24953SOL    HW276311   8.426   5.926  -0.008 -1.1359 -0.7434  1.2250
24954SOL     OW76312   4.718   7.010   0.688  0.9528 -0.6838  0.2756
24954SOL    HW176313   4.781   6.959   0.738  1.3045 -0.9619 -0.4405
24954SOL    HW276314   4.685   6.950   0.622 -0.5885 -0.7528  1.0507
24955SOL     OW76315   1.087   3.889   7.291  0.2041  0.1556 -0.3576
24955SOL    HW176316   1.002   3.854   7.265  1.1605 -0.6225 -2.8103
24955SOL    HW276317   1.083   3.982   7.271 -0.4351  0.3603  0.6700
24956SOL     OW76318   4.487   3.586   0.261  0.9593 -0.0777  0.2786
24956SOL    HW176319   4.483   3.670   0.305 -0.2304 -0.5142  1.0462
24956SOL    HW276320   4.564   3.543   0.298  1.4504  0.5732  0.0305
24957SOL     OW76321   7.580   0.350   1.173 -0.2555  0.3843  0.7608
24957SOL    HW176322   7.493   0.356   1.132  0.1494  0.9010 -0.0565
24957SOL    HW276323   7.593   0.436   1.213  0.2116  0.5928  0.1731
24958SOL     OW76324   6.706   6.996   4.043  0.4256  0.6137  0.4002
24958SOL    HW176325   6.768   6.944   3.992  0.5265  1.0835  0.0372
24958SOL    HW276326   6.741   6.994   4.132  1.3400  1.4104  0.0821
24959SOL     OW76327   4.598   5.358   0.410  0.2407 -0.6230 -0.4033
24959SOL    HW176328   4.597   5.382   0.317 -0.5308 -0.1075 -0.2758
24959SOL    HW276329   4.510   5.323   0.426 -0.4670  1.4635  0.6479
24960SOL     OW76330   2.786   1.614   7.901  0.1271  0.2305 -0.0111
24960SOL    HW176331   2.732   1.662   7.964 -1.2337  2.3534 -2.5704
24960SOL    HW276332   2.859   1.672   7.882  0.4722 -0.3280 -0.4333
24961SOL     OW76333   1.738   0.150   4.475 -0.4988 -0.3186  0.1581
24961SOL    HW176334   1.652   0.116   4.500 -0.7959  0.6727  0.5382
24961SOL    HW276335   1.719   0.230   4.425  0.1311 -1.5881 -2.2658
24962SOL     OW76336   4.713   0.202   8.804 -0.3005  0.3250  0.2620
24962SOL    HW176337   4.675   0.230   8.721  0.4406  0.1681 -0.1377
24962SOL    HW276338   4.638   0.192   8.863 -1.0451 -1.3436 -0.8952
24963SOL     OW76339   6.692   9.256   4.466  0.6274 -0.0397 -0.1498
24963SOL    HW176340   6.742   9.281   4.388  0.8466 -0.5322 -0.1696
24963SOL    HW276341   6.603   9.285   4.447  0.7460  0.1396 -0.4445
24964SOL     OW76342   8.807   6.018   0.430  0.2339 -0.3912 -0.2718
24964SOL    HW176343   8.822   6.111   0.446 -1.2036  0.1379 -1.7326
24964SOL    HW276344   8.739   5.993   0.493 -1.8443  0.4575 -2.0424
24965SOL     OW76345   1.889   6.387   3.660  0.5485 -0.0956 -0.0324
24965SOL    HW176346   1.888   6.307   3.607  1.7475 -0.4127  0.3872
24965SOL    HW276347   1.852   6.454   3.602 -1.6417 -1.1736  0.0376
24966SOL     OW76348   0.157   3.551   4.160 -0.0173  0.0280  0.8172
24966SOL    HW176349   0.236   3.588   4.200 -0.3938  0.5547  1.0954
24966SOL    HW276350   0.085   3.592   4.209 -0.4830  0.3541 -0.1285
24967SOL     OW76351   4.062   6.181   8.421  0.2436  0.4581  0.1696
24967SOL    HW176352   4.066   6.161   8.514 -0.1893  0.9103  0.2866
24967SOL    HW276353   3.975   6.151   8.394 -0.3753  2.0610  0.3201
24968SOL     OW76354   2.961   2.764   8.587  0.0589 -0.2232 -0.0349
24968SOL    HW176355   2.986   2.744   8.497 -1.1797 -0.0104 -0.4418
24968SOL    HW276356   2.879   2.813   8.579 -0.3337 -0.6364  1.2247
24969SOL     OW76357   3.817   1.801   3.463  0.0159  0.1648 -0.7011
24969SOL    HW176358   3.751   1.732   3.456 -0.1543  0.5017 -3.1314
24969SOL    HW276359   3.772   1.872   3.509 -0.9545 -0.0624 -1.2707
24970SOL     OW76360   9.273   1.033   0.539 -0.2075  0.2881  0.0857
24970SOL    HW176361   9.186   1.046   0.578  0.4682 -0.0627  1.8065
24970SOL    HW276362   9.301   1.121   0.513 -1.6007  0.2511 -1.7778
24971SOL     OW76363   4.105   8.464   6.622 -0.2952  0.0623 -0.4055
24971SOL    HW176364   4.053   8.516   6.562 -0.9308 -0.0144  0.0699
24971SOL    HW276365   4.042   8.405   6.663  0.3552 -0.8683 -0.7010
24972SOL     OW76366   8.296   5.838   5.215  0.3091  0.2138  0.0047
24972SOL    HW176367   8.201   5.841   5.203  0.1944  0.7929  0.9771
24972SOL    HW276368   8.327   5.780   5.145 -0.7898 -0.2667 -0.1058
24973SOL     OW76369   2.362   5.965   8.838  0.4528 -0.3638  0.2024
24973SOL    HW176370   2.346   5.875   8.811 -1.3132  0.0036 -0.1067
24973SOL    HW276371   2.282   5.991   8.884  0.4556  1.3899 -0.7000
24974SOL     OW76372   0.189   6.999   1.236  0.3603  0.0204 -0.2357
24974SOL    HW176373   0.107   7.031   1.275  0.1451  0.9855 -1.4188
24974SOL    HW276374   0.229   6.946   1.304 -0.8277  0.2648  0.6809
24975SOL     OW76375   3.065   0.131   6.507  0.0932  0.2981  1.2246
24975SOL    HW176376   3.000   0.161   6.571 -0.0796  1.7269  0.4180
24975SOL    HW276377   3.014   0.081   6.443 -0.0847  0.6910  1.0549
24976SOL     OW76378   4.483   1.519   3.975  0.2058  0.3256 -0.0527
24976SOL    HW176379   4.492   1.608   4.010 -1.1039  0.9128 -1.0779
24976SOL    HW276380   4.478   1.463   4.052 -0.2974  1.3019  0.6558
24977SOL     OW76381   3.411   8.792   5.735  0.2247 -0.2145 -0.9629
24977SOL    HW176382   3.502   8.776   5.759  1.1542  1.3730 -3.1909
24977SOL    HW276383   3.393   8.729   5.666 -1.4625 -2.6489  1.4740
24978SOL     OW76384   7.393   6.835   8.576  0.4458  0.0882 -0.1808
24978SOL    HW176385   7.303   6.866   8.566  0.9526  2.5412  1.6762
24978SOL    HW276386   7.420   6.809   8.488 -1.1725  2.0466 -1.3457
24979SOL     OW76387   7.698   6.610   6.192  0.7201 -0.3131  0.0891
24979SOL    HW176388   7.708   6.594   6.286  0.4953 -0.7317  0.0389
24979SOL    HW276389   7.787   6.629   6.162  0.7485  0.1605  0.4442
24980SOL     OW76390   0.582   1.288   3.815  0.1539 -0.4725 -0.1639
24980SOL    HW176391   0.602   1.376   3.848 -0.3258 -1.3527  2.8251
24980SOL    HW276392   0.524   1.303   3.741  0.0542  1.7482  0.2809
24981SOL     OW76393   4.587   3.763   2.827 -0.2499 -0.3910  0.4861
24981SOL    HW176394   4.536   3.797   2.754  0.4205 -3.2580 -1.4702
24981SOL    HW276395   4.677   3.791   2.810 -0.2713 -0.0858  0.8584
24982SOL     OW76396   6.539   0.379   6.836  0.0213 -0.4423  0.9369
24982SOL    HW176397   6.631   0.362   6.814 -0.0982 -0.6235  0.5595
24982SOL    HW276398   6.515   0.453   6.781 -0.0664 -0.4154  1.0124
24983SOL     OW76399   5.894   7.052   4.722 -0.4568 -0.1997  0.2105
24983SOL    HW176400   5.949   7.122   4.757  1.1797 -0.9881 -0.6398
24983SOL    HW276401   5.807   7.092   4.714  0.0586  1.2344  1.2040
24984SOL     OW76402   5.188   6.590   3.658 -0.2061 -0.9109  0.5582
24984SOL    HW176403   5.146   6.616   3.576  0.4646  1.3102  0.8635
24984SOL    HW276404   5.281   6.586   3.637 -0.1072 -1.1236  1.0335
24985SOL     OW76405   3.930   7.944   1.798 -0.2658  0.2738 -0.3316
24985SOL    HW176406   3.835   7.941   1.786 -0.3275 -0.1452  0.2139
24985SOL    HW276407   3.951   8.038   1.797 -0.9106  0.4759  1.1050
24986SOL     OW76408   6.678   1.474   0.643  0.0178 -0.4201  0.4104
24986SOL    HW176409   6.618   1.469   0.569 -1.0071 -1.2892  1.2664
24986SOL    HW276410   6.653   1.554   0.689  0.5440  0.0302 -0.0672
24987SOL     OW76411   2.099   7.062   0.720  0.3565 -0.8853 -0.3145
24987SOL    HW176412   2.182   7.053   0.673  0.4288  2.4357 -1.0276
24987SOL    HW276413   2.123   7.102   0.804 -0.5249  0.2834 -0.6053
24988SOL     OW76414   8.233   8.037   4.287 -0.0879  0.4361  0.3196
24988SOL    HW176415   8.169   8.097   4.248  0.0816 -0.5585 -1.6064
24988SOL    HW276416   8.291   8.094   4.339 -0.6723  1.7612 -0.4275
24989SOL     OW76417   7.949   0.358   1.969  0.0982  0.8806 -0.1849
24989SOL    HW176418   7.982   0.448   1.963  2.0515  0.2714  0.8921
24989SOL    HW276419   7.941   0.342   2.063 -1.1558  0.2112 -0.3833
24990SOL     OW76420   8.169   4.327   3.200  0.0559  0.4110 -0.2090
24990SOL    HW176421   8.233   4.390   3.168 -0.6935  0.0666 -2.5418
24990SOL    HW276422   8.120   4.375   3.267  0.8519  1.6300 -0.4641
24991SOL     OW76423   1.496   6.433   5.572  0.1875 -0.5246 -0.1196
24991SOL    HW176424   1.453   6.349   5.584  0.8827 -0.9632 -0.6340
24991SOL    HW276425   1.572   6.414   5.517 -1.9264  1.0276 -4.0403
24992SOL     OW76426   6.490   3.315   6.388  0.6213  0.4217 -0.2494
24992SOL    HW176427   6.549   3.366   6.443  0.0778  1.8436 -0.9490
24992SOL    HW276428   6.402   3.346   6.412  0.2091 -0.8337 -0.0524
24993SOL     OW76429   3.992   7.660   0.882 -0.3544 -0.2723  0.3925
24993SOL    HW176430   3.949   7.579   0.854 -2.1851  0.2647  1.4668
24993SOL    HW276431   3.971   7.723   0.813  3.1959 -1.1950 -1.7818
24994SOL     OW76432   5.478   8.383   0.627  0.4835  0.1162 -0.4958
24994SOL    HW176433   5.539   8.430   0.684 -2.0246  0.3442  2.2248
24994SOL    HW276434   5.416   8.449   0.598 -2.3311 -1.0416  2.3468
24995SOL     OW76435   0.479   7.911   2.152  0.4002 -0.3487  0.6088
24995SOL    HW176436   0.465   7.862   2.071  1.1773  0.5532 -0.0932
24995SOL    HW276437   0.391   7.930   2.183 -0.0849  2.5187 -2.0500
24996SOL     OW76438   3.809   4.126   8.300  0.8869  0.2929 -0.0398
24996SOL    HW176439   3.795   4.125   8.205  0.1409  0.2838  0.0639
24996SOL    HW276440   3.853   4.209   8.316 -0.8784  1.3069 -0.1604
24997SOL     OW76441   5.180   7.432   8.107  0.5464 -0.4504 -0.4620
24997SOL    HW176442   5.183   7.473   8.020  0.0791  0.0968 -0.2220
24997SOL    HW276443   5.091   7.448   8.138 -0.3481 -3.4695 -1.2152
24998SOL     OW76444   7.548   1.270   6.983 -0.0161 -0.1126 -0.0411
24998SOL    HW176445   7.628   1.320   7.000 -1.2435  1.3472  1.8832
24998SOL    HW276446   7.568   1.181   7.012  0.1801  0.8092  2.9576
24999SOL     OW76447   3.454   0.245   8.788  0.1572  0.0192 -0.1256
24999SOL    HW176448   3.388   0.177   8.776 -0.0570  0.4011 -1.2536
24999SOL    HW276449   3.495   0.224   8.872 -1.4533 -0.1691  0.6442
25000SOL     OW76450   4.745   3.024   7.127 -0.2243 -0.3437 -0.0975
25000SOL    HW176451   4.799   3.029   7.206  0.6974  1.4270 -0.7874
25000SOL    HW276452   4.802   3.057   7.057 -1.4082 -0.7535 -1.3048
25001SOL     OW76453   3.185   7.820   7.626  0.3849  0.1250  0.7551
25001SOL    HW176454   3.102   7.847   7.589 -0.6299 -0.0158  2.7940
25001SOL    HW276455   3.172   7.728   7.651  1.8720 -0.5591 -0.8071
25002SOL     OW76456   0.738   5.332   8.445  0.1258 -0.5858 -0.0611
25002SOL    HW176457   0.700   5.297   8.525 -1.2498 -0.2830 -0.5531
25002SOL    HW276458   0.714   5.269   8.377  0.5765 -0.4239 -0.3771
25003SOL     OW76459   1.481   6.714   5.505  0.2858 -0.2748  0.3873
25003SOL    HW176460   1.564   6.738   5.547 -0.1896 -0.7841  1.6938
25003SOL    HW276461   1.467   6.623   5.531 -1.4794  0.2877  1.6221
25004SOL     OW76462   8.895   0.578   6.943 -0.0980 -0.0689 -0.3255
25004SOL    HW176463   8.863   0.528   6.868  1.1829 -0.8960 -0.3532
25004SOL    HW276464   8.991   0.578   6.932 -0.0277  1.8283  0.0438
25005SOL     OW76465   5.603   4.831   2.435 -0.0478 -0.6187 -0.2428
25005SOL    HW176466   5.688   4.845   2.476  0.3974 -1.6707 -0.7664
25005SOL    HW276467   5.624   4.810   2.344 -0.7821 -1.9737 -0.1303
25006SOL     OW76468   2.012   2.313   5.404  0.3528  0.1034 -0.0666
25006SOL    HW176469   2.070   2.253   5.356  2.7476  0.4057  2.1690
25006SOL    HW276470   2.007   2.391   5.349  0.8939 -0.4958 -0.9896
25007SOL     OW76471   5.535   2.485   2.218 -0.0404 -0.7925 -0.1431
25007SOL    HW176472   5.537   2.552   2.149 -0.8474 -1.8665 -1.2549
25007SOL    HW276473   5.627   2.463   2.233  0.1220 -0.8786 -1.2220
25008SOL     OW76474   0.501   0.568   3.518 -0.0090 -0.4546  0.7035
25008SOL    HW176475   0.594   0.557   3.501  0.2339  1.6138  0.3824
25008SOL    HW276476   0.472   0.634   3.454 -1.2225  0.3857  2.0479
25009SOL     OW76477   6.335   7.319   8.570  0.0541  0.1369  0.6228
25009SOL    HW176478   6.416   7.364   8.592 -0.0619  0.7174 -0.0993
25009SOL    HW276479   6.270   7.356   8.629 -0.0044  0.8091  0.1505
25010SOL     OW76480   4.307   8.362   6.430 -0.6928 -0.0947 -0.4220
25010SOL    HW176481   4.387   8.387   6.478 -1.2160  0.8884 -0.0336
25010SOL    HW276482   4.239   8.360   6.497 -1.2384  0.2874 -0.9588
25011SOL     OW76483   6.343   2.403   3.702 -0.0908 -0.6268 -0.0080
25011SOL    HW176484   6.430   2.441   3.689 -0.4742  0.0189 -0.7744
25011SOL    HW276485   6.297   2.421   3.620 -1.3701  0.1804  0.8752
25012SOL     OW76486   1.411   4.014   5.677  0.2945 -0.2419  0.4608
25012SOL    HW176487   1.459   4.026   5.595  0.3421  0.7313  0.6129
25012SOL    HW276488   1.455   3.942   5.721  0.7366 -0.2807 -0.0345
25013SOL     OW76489   3.414   4.912   3.127 -0.2835 -0.3549  0.8042
25013SOL    HW176490   3.420   4.916   3.031  1.4925 -2.7135  0.7078
25013SOL    HW276491   3.333   4.865   3.144 -0.0472 -0.9363  0.3801
25014SOL     OW76492   5.575   8.759   2.257  0.4567 -0.2245  0.2602
25014SOL    HW176493   5.663   8.740   2.288  1.2096  0.0400 -1.5888
25014SOL    HW276494   5.526   8.678   2.270  1.4210 -0.8889 -0.1864
25015SOL     OW76495   5.542   1.471   2.945 -0.2446  0.2535  0.3821
25015SOL    HW176496   5.577   1.387   2.917 -0.6505  0.5335 -1.0786
25015SOL    HW276497   5.458   1.479   2.899 -0.8456  0.8626  1.5524
25016SOL     OW76498   2.044   2.969   3.977 -0.1197  0.2668 -0.4474
25016SOL    HW176499   2.007   2.972   4.066  1.7859  1.4898  0.3582
25016SOL    HW276500   2.013   3.050   3.936 -1.3376 -0.4873 -1.1067
25017SOL     OW76501   7.599   7.905   7.702  0.3117  0.1122 -0.0812
25017SOL    HW176502   7.609   7.886   7.609 -0.1174 -0.8309  0.0493
25017SOL    HW276503   7.668   7.855   7.744  1.5190  1.7834  0.0068
25018SOL     OW76504   5.019   8.190   6.763  0.3230 -0.2957  0.5362
25018SOL    HW176505   5.041   8.275   6.801  2.4937 -0.5487 -0.0036
25018SOL    HW276506   5.006   8.209   6.670  0.4783 -0.4953  0.4738
25019SOL     OW76507   6.868   6.709   7.905  0.5062 -0.0392  0.1673
25019SOL    HW176508   6.789   6.760   7.891 -0.1838 -0.5858  1.7805
25019SOL    HW276509   6.938   6.761   7.866 -0.3604  1.4543  0.5213
25020SOL     OW76510   0.891   3.358   0.911 -0.1111  0.4414 -0.0711
25020SOL    HW176511   0.856   3.326   0.828  0.2466 -1.2550  0.3932
25020SOL    HW276512   0.815   3.369   0.968 -0.0800 -2.4665  0.6793
25021SOL     OW76513   9.046   5.949   5.699  0.3059  0.4000 -0.3898
25021SOL    HW176514   9.104   5.873   5.707 -1.6290 -1.3963 -2.1155
25021SOL    HW276515   8.969   5.926   5.750  0.0358  1.6022 -0.2392
25022SOL     OW76516   5.393   6.684   4.152 -0.0421 -0.0625  0.0472
25022SOL    HW176517   5.315   6.665   4.204  0.8844 -1.1380  1.1087
25022SOL    HW276518   5.367   6.756   4.095 -2.0129 -0.8162 -0.1060
25023SOL     OW76519   4.011   7.698   3.456 -0.2053  0.1139 -0.9332
25023SOL    HW176520   3.960   7.736   3.527 -1.1128 -0.7988 -1.0658
25023SOL    HW276521   3.945   7.663   3.395  0.5279 -2.2747 -0.4821
25024SOL     OW76522   5.979   7.238   8.696  0.3170  0.7019 -0.2650
25024SOL    HW176523   5.971   7.274   8.784 -1.4928 -0.5369  0.1250
25024SOL    HW276524   6.010   7.148   8.710  0.0867  0.5199 -0.8877
25025SOL     OW76525   6.262   0.752   7.978  0.3582  0.7489  0.0999
25025SOL    HW176526   6.194   0.694   7.943  1.2900  0.2706 -0.9829
25025SOL    HW276527   6.300   0.794   7.900  0.6305  1.7709  0.7648
25026SOL     OW76528   6.785   1.719   5.719  0.4356  0.3695  0.1188
25026SOL    HW176529   6.699   1.727   5.760 -0.2267  1.3168 -1.3607
25026SOL    HW276530   6.800   1.625   5.712 -1.7496  0.0956 -2.0557
25027SOL     OW76531   4.164   0.816   2.162  0.6287  0.4739 -0.2339
25027SOL    HW176532   4.161   0.892   2.220  0.3711 -0.0141  0.4064
25027SOL    HW276533   4.167   0.741   2.221 -1.2120 -0.1109 -0.8197
25028SOL     OW76534   8.861   4.302   0.613 -0.0043  0.2499  0.1308
25028SOL    HW176535   8.835   4.216   0.646 -0.0415 -0.8328 -2.5091
25028SOL    HW276536   8.778   4.345   0.589 -0.0779  1.5270  2.3881
25029SOL     OW76537   8.920   4.077   1.731 -0.3843  0.1242  0.1464
25029SOL    HW176538   9.012   4.052   1.731 -0.5061 -0.3437  0.1557
25029SOL    HW276539   8.878   4.013   1.788 -0.9877 -0.7398 -1.2133
25030SOL     OW76540   0.041   4.318   7.700 -0.2027 -0.0863  0.2902
25030SOL    HW176541   0.015   4.238   7.744  1.2929 -0.1794  1.0794
25030SOL    HW276542   0.062   4.379   7.770  2.3276 -0.2731 -0.1825
25031SOL     OW76543   0.289   0.948   4.870 -0.2961 -0.0992  0.6883
25031SOL    HW176544   0.202   0.956   4.909 -1.8142 -0.2502 -2.3593
25031SOL    HW276545   0.275   0.898   4.790  2.3970  0.8482 -0.5118
25032SOL     OW76546   5.252   2.860   2.239  0.2738  0.0435 -0.2363
25032SOL    HW176547   5.177   2.912   2.270  1.0320 -0.1158  2.0757
25032SOL    HW276548   5.273   2.804   2.313  2.3296 -0.3283 -1.0539
25033SOL     OW76549   4.747   9.058   0.348 -0.1533  0.0796 -0.1926
25033SOL    HW176550   4.755   9.141   0.397  0.7037 -0.2116  0.1877
25033SOL    HW276551   4.837   9.037   0.323 -0.2329 -1.1995  0.5012
25034SOL     OW76552   4.177   6.684   1.814 -0.5806 -0.3862 -0.1345
25034SOL    HW176553   4.100   6.661   1.866  1.2791 -1.3278  2.3454
25034SOL    HW276554   4.183   6.780   1.821 -0.9048 -0.4122  0.5824
25035SOL     OW76555   7.571   5.209   4.583  0.1132 -0.0622  0.7363
25035SOL    HW176556   7.520   5.161   4.648  0.0514 -1.7281 -0.4804
25035SOL    HW276557   7.647   5.154   4.566 -0.8868 -0.7782 -2.0733
25036SOL     OW76558   6.300   8.749   1.872 -0.6782  0.3052  0.3715
25036SOL    HW176559   6.233   8.695   1.914 -0.4574  0.3036  0.7226
25036SOL    HW276560   6.342   8.797   1.944 -1.3054  1.4502 -0.0013
25037SOL     OW76561   7.393   1.125   0.197 -0.0536 -0.0842 -0.1278
25037SOL    HW176562   7.482   1.102   0.224  0.1954 -0.0254 -0.8729
25037SOL    HW276563   7.356   1.170   0.272  1.0804  1.2837 -0.3553
25038SOL     OW76564   2.657   9.038   2.046 -0.0426  0.6781  0.0681
25038SOL    HW176565   2.711   8.993   1.982 -0.8548 -0.3928  0.1078
25038SOL    HW276566   2.652   9.129   2.014  0.6127  0.4640 -0.6730
25039SOL     OW76567   4.155   4.659   1.417  0.5067 -0.0915 -0.7657
25039SOL    HW176568   4.113   4.640   1.334 -2.3357 -2.3568  0.9871
25039SOL    HW276569   4.120   4.744   1.443  0.7753  0.2456 -1.5090
25040SOL     OW76570   5.032   6.946   6.901  0.2580 -0.6394 -0.2594
25040SOL    HW176571   4.972   6.924   6.972 -2.0571  1.6663 -1.3551
25040SOL    HW276572   4.987   6.916   6.822  0.8639  0.5047 -1.0620
25041SOL     OW76573   5.088   3.285   5.866  0.2639 -0.1847  0.1735
25041SOL    HW176574   4.996   3.300   5.842  0.1195 -0.2094  0.6990
25041SOL    HW276575   5.138   3.340   5.805 -0.1077 -0.0373 -0.0025
25042SOL     OW76576   1.550   1.646   0.603 -0.1310 -0.0127  0.1347
25042SOL    HW176577   1.537   1.703   0.678  0.7253  0.2212  0.1178
25042SOL    HW276578   1.622   1.687   0.555 -0.2663 -0.4925 -0.4853
25043SOL     OW76579   8.412   1.950   6.663 -0.1252 -0.0261 -0.5261
25043SOL    HW176580   8.368   1.932   6.747 -0.3398 -0.5457 -0.7440
25043SOL    HW276581   8.343   1.986   6.608  0.2000  1.0633 -0.2339
25044SOL     OW76582   5.075   7.980   5.524  0.3750  0.1999  0.3673
25044SOL    HW176583   5.130   7.944   5.453  0.0853  2.4109 -1.0660
25044SOL    HW276584   5.136   8.000   5.594  1.1141  0.6147 -0.3749
25045SOL     OW76585   3.963   2.055   5.937 -0.1864  0.3601 -0.0545
25045SOL    HW176586   3.885   2.111   5.936 -0.7076 -0.3466 -0.7757
25045SOL    HW276587   3.947   1.991   5.867  0.6042 -0.3886  0.4270
25046SOL     OW76588   6.474   0.083   1.276 -0.2827 -0.2707  0.2421
25046SOL    HW176589   6.446   0.047   1.192  1.0000 -1.7786  0.4208
25046SOL    HW276590   6.416   0.041   1.340  1.0519 -1.9224  0.4255
25047SOL     OW76591   3.548   3.577   3.965 -0.0771  0.2735 -0.0708
25047SOL    HW176592   3.515   3.666   3.953 -0.7878  0.0982  0.5148
25047SOL    HW276593   3.514   3.529   3.890  1.2585  0.7384 -1.0071
25048SOL     OW76594   3.393   5.289   4.288  0.4279  0.1181 -0.0339
25048SOL    HW176595   3.395   5.367   4.232 -2.2416 -0.9877 -1.9129
25048SOL    HW276596   3.356   5.319   4.371  2.0862  1.3313  0.2960
25049SOL     OW76597   6.497   1.032   4.791 -0.8350  0.6750 -0.4909
25049SOL    HW176598   6.527   1.078   4.869  0.7092  0.4852 -0.9356
25049SOL    HW276599   6.454   0.953   4.824 -1.1811  1.1368  0.1859
25050SOL     OW76600   1.924   6.333   9.169 -1.1118  0.2674 -0.3023
25050SOL    HW176601   1.876   6.386   9.232 -0.6161  0.4456 -0.0656
25050SOL    HW276602   1.869   6.332   9.091 -0.8988  1.5809 -0.4905
25051SOL     OW76603   7.655   5.083   2.274  0.0815  0.4061  0.3741
25051SOL    HW176604   7.574   5.098   2.225 -0.1381 -0.9088  0.3143
25051SOL    HW276605   7.702   5.017   2.224  0.7326  0.4333  0.9394
25052SOL     OW76606   3.635   0.268   2.418  0.0520  0.0355 -0.2221
25052SOL    HW176607   3.616   0.301   2.330  1.9952 -0.2906 -0.8014
25052SOL    HW276608   3.728   0.247   2.417  0.2711  0.5737  2.1011
25053SOL     OW76609   5.113   2.003   7.721  0.0267 -0.3282  0.3819
25053SOL    HW176610   5.099   2.037   7.810 -1.8276 -0.9913  0.3846
25053SOL    HW276611   5.150   1.916   7.735  0.0194 -0.3145  0.4924
25054SOL     OW76612   3.239   5.524   0.785  0.0027 -0.6289 -0.0645
25054SOL    HW176613   3.296   5.529   0.862  0.2425  1.7579 -0.3041
25054SOL    HW276614   3.155   5.494   0.819  0.3476 -0.4324  1.0018
25055SOL     OW76615   0.160   2.851   1.990  0.0961  0.3780 -0.0430
25055SOL    HW176616   0.095   2.791   1.952 -0.0017 -0.4042  1.2966
25055SOL    HW276617   0.161   2.926   1.930  0.7073 -1.2060 -2.1523
25056SOL     OW76618   9.242   2.528   5.434 -0.4613 -0.1310  0.4377
25056SOL    HW176619   9.231   2.620   5.412  0.4031  0.3080  1.7332
25056SOL    HW276620   9.246   2.484   5.349 -1.7250  0.8982 -0.1908
25057SOL     OW76621   5.212   8.779   1.335  0.2298  0.0750 -0.7086
25057SOL    HW176622   5.304   8.754   1.324  0.8219  1.4857  0.7252
25057SOL    HW276623   5.186   8.812   1.249  1.5420  1.0628 -0.7661
25058SOL     OW76624   7.812   4.652   1.707  0.8341 -0.4534 -0.1698
25058SOL    HW176625   7.813   4.563   1.743  0.8949 -0.3380  0.1177
25058SOL    HW276626   7.903   4.668   1.682  1.0110 -0.1201  0.6609
25059SOL     OW76627   1.677   6.797   6.947  0.4446  1.2199  0.0306
25059SOL    HW176628   1.681   6.725   6.884  0.4545  0.6957  0.6147
25059SOL    HW276629   1.584   6.810   6.962  0.3954 -1.1511  2.6374
25060SOL     OW76630   0.775   3.267   6.353 -0.4306  0.1561 -0.2560
25060SOL    HW176631   0.725   3.266   6.271 -2.6780  1.5080  1.0129
25060SOL    HW276632   0.826   3.348   6.349  0.2530 -0.2790 -0.7096
25061SOL     OW76633   7.306   7.812   7.765  0.1337 -0.2217  0.1249
25061SOL    HW176634   7.232   7.871   7.753  0.2247  0.1642  1.3271
25061SOL    HW276635   7.379   7.856   7.721 -0.1987 -0.2950 -0.5068
25062SOL     OW76636   3.269   0.500   0.381  0.0492  0.8273 -0.2023
25062SOL    HW176637   3.241   0.507   0.472  1.3088  0.6798  0.2098
25062SOL    HW276638   3.206   0.554   0.332 -1.8847 -0.7361  0.4580
25063SOL     OW76639   2.705   6.627   0.288  0.4522  0.3162 -0.5630
25063SOL    HW176640   2.739   6.607   0.201  2.3640 -0.5897  0.3240
25063SOL    HW276641   2.669   6.545   0.320  0.7392  0.3605 -0.1048
25064SOL     OW76642   3.781   2.334   2.548  0.2585 -0.0499 -0.7995
25064SOL    HW176643   3.756   2.369   2.634  0.4644  1.6114 -1.3882
25064SOL    HW276644   3.791   2.411   2.493 -1.3424 -1.1310 -2.7411
25065SOL     OW76645   4.602   2.772   9.142  0.0058 -0.3938  0.2650
25065SOL    HW176646   4.515   2.768   9.105  0.8532 -1.0070 -1.7985
25065SOL    HW276647   4.642   2.849   9.103  1.1564 -1.4386 -0.6958
25066SOL     OW76648   7.127   4.384   3.143  0.2700 -0.2068  0.2845
25066SOL    HW176649   7.065   4.383   3.217 -1.3930 -0.4447 -1.0613
25066SOL    HW276650   7.185   4.310   3.161 -0.4711 -0.6239  1.0627
25067SOL     OW76651   6.140   3.792   4.193 -0.1280 -0.0859 -0.2111
25067SOL    HW176652   6.083   3.745   4.254  0.0207 -0.8945 -0.6853
25067SOL    HW276653   6.080   3.832   4.130 -0.1879 -1.2722 -0.9508
25068SOL     OW76654   1.409   5.973   1.774 -0.0339 -0.5169 -0.4204
25068SOL    HW176655   1.338   5.909   1.770 -0.0814 -0.5016  0.1621
25068SOL    HW276656   1.489   5.922   1.762 -0.1308 -0.5495 -0.9520
25069SOL     OW76657   5.706   6.267   8.716  0.2579 -0.6938  0.7022
25069SOL    HW176658   5.694   6.183   8.672 -0.6876 -0.3349  0.2423
25069SOL    HW276659   5.778   6.309   8.668 -1.9277  0.4637 -1.7965
25070SOL     OW76660   2.590   0.811   8.018 -0.1229  0.3816 -0.1969
25070SOL    HW176661   2.581   0.867   7.941 -1.8023 -0.6951 -0.8323
25070SOL    HW276662   2.678   0.774   8.011 -0.2578  0.2730 -1.6237
25071SOL     OW76663   6.016   4.203   8.623  0.4671 -0.4686  0.4677
25071SOL    HW176664   6.053   4.291   8.621  0.9426 -0.6683 -0.8362
25071SOL    HW276665   6.049   4.164   8.704  0.8954  0.2732  0.6575
25072SOL     OW76666   0.156   8.042   7.533 -0.0037  0.1173 -0.5039
25072SOL    HW176667   0.223   8.001   7.588 -2.5363 -1.6993  1.4832
25072SOL    HW276668   0.169   8.136   7.547  0.6437 -0.2416  1.8052
25073SOL     OW76669   8.632   6.161   3.432 -0.0171 -0.1846  0.2296
25073SOL    HW176670   8.579   6.165   3.512  0.0887 -0.6315  0.3266
25073SOL    HW276671   8.664   6.250   3.419 -0.9012  0.1246  0.0948
25074SOL     OW76672   4.669   7.309   6.973  0.1585  0.4102  0.0275
25074SOL    HW176673   4.609   7.364   7.024 -0.0901 -0.0725  0.2661
25074SOL    HW276674   4.671   7.350   6.886 -1.7270 -0.4210 -0.4543
25075SOL     OW76675   3.024   5.627   1.209  0.3187  0.0106  0.4466
25075SOL    HW176676   2.936   5.627   1.173  0.8324  0.1322 -0.8777
25075SOL    HW276677   3.028   5.548   1.263 -0.7260  0.2414  0.8739
25076SOL     OW76678   6.273   2.650   8.922 -0.3215  0.2813 -0.2812
25076SOL    HW176679   6.364   2.682   8.921 -0.2991  0.2000 -0.7334
25076SOL    HW276680   6.223   2.725   8.953 -0.1439  0.4477 -0.3899
25077SOL     OW76681   5.964   0.815   1.062 -0.3151 -0.3312 -0.3311
25077SOL    HW176682   5.953   0.808   0.967  0.6299  0.5541 -0.5310
25077SOL    HW276683   6.056   0.839   1.073 -0.5183 -0.0176  0.7898
25078SOL     OW76684   5.423   6.896   8.839 -0.3715  0.4648 -0.2437
25078SOL    HW176685   5.388   6.922   8.924  2.2828  1.0140  0.7866
25078SOL    HW276686   5.503   6.848   8.860 -1.5313 -2.6904 -2.3600
25079SOL     OW76687   8.805   2.575   9.058  0.2330  0.0204 -0.2910
25079SOL    HW176688   8.722   2.591   9.013  0.0734 -1.2863 -0.4940
25079SOL    HW276689   8.781   2.523   9.135  0.8261 -0.0744 -0.1676
25080SOL     OW76690   8.383   9.056   5.538 -0.4650 -0.5043  0.2707
25080SOL    HW176691   8.412   9.086   5.451  0.9565 -1.2604  0.4559
25080SOL    HW276692   8.439   8.981   5.557 -0.3199  0.0337  2.1248
25081SOL     OW76693   3.224   1.234   7.327 -0.2351  0.2356 -0.1513
25081SOL    HW176694   3.285   1.281   7.384  0.0800  0.1771 -0.4398
25081SOL    HW276695   3.279   1.193   7.260 -0.2714 -2.2251  1.2069
25082SOL     OW76696   7.042   0.928   3.423 -0.5319 -0.2107 -0.0185
25082SOL    HW176697   6.973   0.890   3.477 -0.0861 -1.5011 -0.3182
25082SOL    HW276698   6.996   0.975   3.353 -1.0964 -0.3432  0.2620
25083SOL     OW76699   4.308   4.360   6.932  0.4689  0.2882  0.0430
25083SOL    HW176700   4.381   4.299   6.921  0.9354  0.7476  0.4924
25083SOL    HW276701   4.261   4.327   7.009  0.7783  0.5397  0.3458
25084SOL     OW76702   2.267   6.323   8.598 -0.1638 -0.1669  0.2339
25084SOL    HW176703   2.285   6.262   8.527 -2.0107  0.2077 -0.6129
25084SOL    HW276704   2.353   6.360   8.620  0.8247 -2.1703 -0.0040
25085SOL     OW76705   7.320   4.275   7.462  0.2353 -0.0724  0.2398
25085SOL    HW176706   7.371   4.230   7.394  1.0061  0.1377  0.6618
25085SOL    HW276707   7.286   4.353   7.419  1.9974  0.8736  0.4678
25086SOL     OW76708   9.065   8.986   6.208 -0.2644 -0.3080  0.4751
25086SOL    HW176709   9.127   8.928   6.252  1.0659  0.1749 -0.7118
25086SOL    HW276710   8.990   8.989   6.268 -0.2339 -2.9003  0.7806
25087SOL     OW76711   1.656   6.477   6.126  0.5823 -0.2338  0.5861
25087SOL    HW176712   1.603   6.440   6.196  1.1719  0.7127  1.5596
25087SOL    HW276713   1.710   6.403   6.096 -0.8869 -1.0718 -0.0807
25088SOL     OW76714   6.069   4.670   2.056  0.1601 -0.9842  0.1823
25088SOL    HW176715   6.076   4.585   2.013  1.0261 -2.1784  2.5106
25088SOL    HW276716   6.014   4.722   1.997  0.2444 -2.8765 -1.6962
25089SOL     OW76717   4.281   4.954   3.859 -0.0292 -0.2027 -0.0431
25089SOL    HW176718   4.282   4.993   3.946  0.7664 -1.2365  0.4216
25089SOL    HW276719   4.196   4.980   3.822  0.2189  1.4702  0.4558
25090SOL     OW76720   2.613   5.455   3.359  0.0767 -0.8206 -0.5535
25090SOL    HW176721   2.563   5.497   3.429  0.7515  0.1809 -0.6426
25090SOL    HW276722   2.696   5.503   3.357  1.1605 -2.5773 -0.2524
25091SOL     OW76723   2.862   7.980   6.354  0.1406  0.1115  0.6663
25091SOL    HW176724   2.887   7.934   6.434 -2.5057  0.5424  1.8750
25091SOL    HW276725   2.793   8.040   6.383 -0.0562  1.1475 -1.7571
25092SOL     OW76726   6.057   7.621   1.708  0.3763  0.7104 -0.5612
25092SOL    HW176727   6.142   7.577   1.708  1.0128  1.9027 -0.6352
25092SOL    HW276728   6.068   7.694   1.648 -0.0835  2.0588  0.9321
25093SOL     OW76729   2.730   3.956   5.785 -0.5133 -0.5597  0.0401
25093SOL    HW176730   2.761   4.012   5.855 -0.4054  3.1741 -2.6626
25093SOL    HW276731   2.807   3.908   5.756  0.4156  0.9617 -0.0994
25094SOL     OW76732   9.033   1.033   0.340  0.2752 -0.7566  0.2455
25094SOL    HW176733   9.042   1.079   0.423 -1.0002  0.1375 -0.0842
25094SOL    HW276734   9.080   1.087   0.277  0.7235 -1.1200  0.2580
25095SOL     OW76735   2.411   0.085   7.866  0.1685  0.0238 -0.3064
25095SOL    HW176736   2.402   0.175   7.897 -0.5248  0.4105 -1.5476
25095SOL    HW276737   2.334   0.040   7.900  0.2169  0.0426 -0.1707
25096SOL     OW76738   4.409   2.296   1.137  0.5693  0.2481 -0.7626
25096SOL    HW176739   4.358   2.341   1.070  1.1809  1.1277 -0.6508
25096SOL    HW276740   4.348   2.233   1.175 -0.0095  0.2922 -1.6012
25097SOL     OW76741   4.904   3.158   6.781  0.4041 -0.0059  0.4214
25097SOL    HW176742   4.940   3.218   6.715  1.7164 -0.6852  0.5035
25097SOL    HW276743   4.952   3.179   6.861  0.8640 -1.1390  0.4568
25098SOL     OW76744   7.205   0.461   8.755  0.1113 -0.3255  0.5265
25098SOL    HW176745   7.241   0.515   8.685 -0.2043  0.1146  0.6980
25098SOL    HW276746   7.221   0.371   8.726  0.4261 -0.1451  0.1239
25099SOL     OW76747   7.973   3.125   8.538  0.3426  0.0837  0.4761
25099SOL    HW176748   7.942   3.079   8.460  0.1587 -0.2893  0.7653
25099SOL    HW276749   7.896   3.167   8.574  0.2066 -0.6247  1.0448
25100SOL     OW76750   3.994   7.153   6.209 -0.7030 -0.1776 -0.0089
25100SOL    HW176751   4.058   7.155   6.138 -0.3300 -1.0296  0.2978
25100SOL    HW276752   4.042   7.183   6.286 -0.2443 -2.1575  0.5333
25101SOL     OW76753   2.159   6.477   9.069 -0.1856 -0.8036  0.3759
25101SOL    HW176754   2.141   6.570   9.077  1.3749 -0.5410  1.1841
25101SOL    HW276755   2.077   6.434   9.091 -0.6850  0.3641  0.8234
25102SOL     OW76756   0.982   5.782   6.954  0.4046 -0.0732  0.8590
25102SOL    HW176757   1.014   5.716   6.894  0.6686  0.8698 -0.0693
25102SOL    HW276758   0.921   5.835   6.903  1.9263  1.8005  0.8604
25103SOL     OW76759   6.363   5.421   5.843  0.1796 -0.3604  0.2635
25103SOL    HW176760   6.345   5.433   5.750 -3.4467  1.5091  0.9751
25103SOL    HW276761   6.343   5.329   5.860 -4.5764  0.3158 -0.1257
25104SOL     OW76762   6.995   4.407   7.608 -0.1327 -0.1786  0.0855
25104SOL    HW176763   7.074   4.378   7.654 -0.1716 -0.3932  0.0130
25104SOL    HW276764   6.923   4.383   7.666 -0.3204 -2.0788 -0.8952
25105SOL     OW76765   0.827   1.101   6.616  0.1311 -0.1533 -0.0738
25105SOL    HW176766   0.807   1.036   6.549  0.3353 -1.3820  1.0176
25105SOL    HW276767   0.919   1.086   6.638  0.5477  1.3340 -0.6526
25106SOL     OW76768   4.616   3.226   0.626  0.3384  0.0250  0.1724
25106SOL    HW176769   4.700   3.267   0.606  0.8212 -0.9473  0.1449
25106SOL    HW276770   4.634   3.132   0.623 -0.1320 -0.2018  2.7428
25107SOL     OW76771   2.636   2.672   2.508  0.6577 -0.7116  0.1652
25107SOL    HW176772   2.556   2.719   2.531 -0.0929 -1.9084  0.1052
25107SOL    HW276773   2.607   2.582   2.491  1.9127 -1.0115 -0.5476
25108SOL     OW76774   9.149   6.765   6.509  0.3501  0.1063 -0.1186
25108SOL    HW176775   9.161   6.853   6.476  1.0703  1.0374  2.3721
25108SOL    HW276776   9.057   6.762   6.536  0.7093  0.6822  1.2437
25109SOL     OW76777   0.892   0.694   8.366 -0.2851 -0.0782 -0.5490
25109SOL    HW176778   0.910   0.654   8.452  0.8989  1.4255 -0.0495
25109SOL    HW276779   0.834   0.768   8.386 -0.5276 -0.1075 -1.1400
25110SOL     OW76780   5.489   1.851   8.640  0.2870  0.0308 -0.4596
25110SOL    HW176781   5.455   1.762   8.631 -0.1379  0.2179 -0.7036
25110SOL    HW276782   5.441   1.888   8.714 -0.1834  0.3567 -0.9208
25111SOL     OW76783   7.537   5.577   0.407 -0.1286 -0.4630 -0.0279
25111SOL    HW176784   7.629   5.598   0.424 -0.6405  0.6127  1.7821
25111SOL    HW276785   7.510   5.640   0.340 -0.1053  0.8234  1.1106
25112SOL     OW76786   8.445   2.276   5.550 -0.8081 -0.2296 -0.0155
25112SOL    HW176787   8.500   2.335   5.602 -0.4894  0.1449 -0.7533
25112SOL    HW276788   8.474   2.290   5.460 -2.1725  0.0398 -0.4357
25113SOL     OW76789   7.420   2.848   8.650 -0.2503 -0.0297 -0.2660
25113SOL    HW176790   7.425   2.792   8.573 -1.8271  1.2523 -1.3542
25113SOL    HW276791   7.471   2.925   8.627 -1.2330  0.6283 -0.3052
25114SOL     OW76792   5.806   6.226   0.099  0.1652  0.4644 -0.1341
25114SOL    HW176793   5.791   6.161   0.168  1.2090 -0.4358 -0.7343
25114SOL    HW276794   5.813   6.309   0.147 -1.2768  0.1797  0.6304
25115SOL     OW76795   5.530   5.433   9.251 -0.5232 -0.2226  0.2608
25115SOL    HW176796   5.581   5.506   9.285 -0.7030 -0.8829  2.0373
25115SOL    HW276797   5.459   5.474   9.201 -0.3397  0.7967  0.8202
25116SOL     OW76798   6.088   7.074   7.277  0.5039 -0.0321  0.2069
25116SOL    HW176799   6.043   7.155   7.301 -1.2511 -1.0525  0.5401
25116SOL    HW276800   6.041   7.041   7.201  1.2585 -0.7016  0.0095
25117SOL     OW76801   0.714   6.499   4.471 -0.0108 -0.1455 -0.4928
25117SOL    HW176802   0.639   6.471   4.523  0.1142  1.8325  0.8440
25117SOL    HW276803   0.780   6.431   4.487 -0.9795 -1.1356 -0.5225
25118SOL     OW76804   3.695   4.721   3.080  0.4285 -0.1066 -0.3159
25118SOL    HW176805   3.625   4.786   3.087 -0.5928 -1.2256  0.4324
25118SOL    HW276806   3.667   4.665   3.007 -0.1739 -1.3284  0.8041
25119SOL     OW76807   4.413   3.186   4.123  0.0207 -0.5266 -0.3126
25119SOL    HW176808   4.431   3.093   4.131  0.0784 -1.0004 -4.0226
25119SOL    HW276809   4.500   3.228   4.127 -0.0917 -0.3421  2.6648
25120SOL     OW76810   8.847   6.302   8.940  0.1968 -0.3097 -0.1583
25120SOL    HW176811   8.876   6.342   8.858 -0.5511  2.3973  0.7855
25120SOL    HW276812   8.764   6.260   8.918 -0.3540  0.9968 -0.6712
25121SOL     OW76813   5.482   7.152   7.105  0.1226  0.3719  0.6092
25121SOL    HW176814   5.459   7.066   7.068  0.5953  0.0127  1.1372
25121SOL    HW276815   5.467   7.213   7.033 -3.0931  0.2845  1.0301
25122SOL     OW76816   3.347   5.301   8.334  0.1282  0.2987 -0.0436
25122SOL    HW176817   3.339   5.370   8.399 -1.4221  0.4946 -0.4141
25122SOL    HW276818   3.440   5.279   8.334  0.5555  1.9748  0.4854
25123SOL     OW76819   8.184   3.598   7.805  0.0961  0.3196 -0.1299
25123SOL    HW176820   8.143   3.616   7.720  1.6258 -0.0206 -0.9647
25123SOL    HW276821   8.199   3.503   7.804  2.0913  0.6034 -0.4282
25124SOL     OW76822   2.162   4.576   5.572 -0.4182  0.0895 -0.1864
25124SOL    HW176823   2.098   4.538   5.512 -1.2001 -0.9885  1.2846
25124SOL    HW276824   2.110   4.634   5.628  0.4540  1.8506 -1.0992
25125SOL     OW76825   2.394   1.419   8.146 -0.1248 -0.2316 -0.2284
25125SOL    HW176826   2.486   1.399   8.166  0.2489  1.4833 -0.0394
25125SOL    HW276827   2.347   1.337   8.163  1.4409 -1.3136 -0.9025
25126SOL     OW76828   5.405   1.107   8.516  0.2294 -0.3530 -0.0617
25126SOL    HW176829   5.406   1.068   8.604 -0.9268  0.8199  0.5172
25126SOL    HW276830   5.364   1.040   8.461 -0.0870 -0.6700  0.5437
25127SOL     OW76831   0.316   1.403   9.021  1.1237 -0.0697 -0.4987
25127SOL    HW176832   0.252   1.426   8.953  0.8103 -0.6624 -0.4104
25127SOL    HW276833   0.400   1.399   8.974  0.4427 -4.2416 -1.7766
25128SOL     OW76834   5.336   8.482   2.071  0.1599 -0.6711 -0.3513
25128SOL    HW176835   5.378   8.544   2.011  1.3061  0.0275  1.1190
25128SOL    HW276836   5.408   8.432   2.108 -0.6354 -1.8491 -0.3443
25129SOL     OW76837   4.943   7.663   4.735 -0.2611  0.2297 -0.0858
25129SOL    HW176838   4.923   7.608   4.811 -1.3496  2.1448  1.0673
25129SOL    HW276839   5.026   7.706   4.758 -0.4354  0.5801 -0.1104
25130SOL     OW76840   1.062   8.706   4.333  0.4132  0.1790  0.0758
25130SOL    HW176841   1.126   8.778   4.338  0.4114  0.7354 -4.2821
25130SOL    HW276842   0.977   8.748   4.344  0.5265  0.1321  1.3669
25131SOL     OW76843   3.399   3.683   0.566  0.0411 -0.2613  0.1235
25131SOL    HW176844   3.462   3.664   0.636  0.9655 -0.1341 -0.6680
25131SOL    HW276845   3.349   3.602   0.557 -0.7466  0.0207  1.5764
25132SOL     OW76846   0.759   1.508   3.411  0.7954 -0.2910 -0.2672
25132SOL    HW176847   0.845   1.548   3.413  0.7316 -0.0897 -1.0756
25132SOL    HW276848   0.719   1.532   3.494 -0.2357  3.6143 -1.6855
25133SOL     OW76849   8.506   2.734   5.995 -0.1124 -0.4612 -0.2920
25133SOL    HW176850   8.502   2.829   6.005 -0.4590 -0.2325 -2.2930
25133SOL    HW276851   8.481   2.700   6.081 -0.3780  1.2410  0.3419
25134SOL     OW76852   7.226   2.530   7.701  0.1740 -0.2107 -0.2907
25134SOL    HW176853   7.211   2.515   7.795 -3.6955  1.8410 -0.3803
25134SOL    HW276854   7.211   2.445   7.660 -0.0561 -0.7109  0.7973
25135SOL     OW76855   7.405   2.029   8.202 -0.2592  0.0473 -0.2177
25135SOL    HW176856   7.438   2.115   8.176 -1.2093  0.5294  0.1574
25135SOL    HW276857   7.364   1.994   8.122 -1.7500  0.8504  0.1650
25136SOL     OW76858   6.149   6.454   2.039  0.2643 -0.9194  0.2964
25136SOL    HW176859   6.232   6.502   2.042 -0.8748  1.1907 -0.2265
25136SOL    HW276860   6.114   6.460   2.128 -1.1951  1.8195 -0.3498
25137SOL     OW76861   2.098   1.044   8.599  0.4075 -0.1422  0.5991
25137SOL    HW176862   2.136   1.003   8.677  1.3083  0.9459  0.7559
25137SOL    HW276863   2.152   1.121   8.584  0.2145 -0.3034 -1.0753
25138SOL     OW76864   0.275   1.887   2.664 -0.3881 -0.1757 -0.2616
25138SOL    HW176865   0.182   1.907   2.677 -0.0724  0.1442  2.1373
25138SOL    HW276866   0.293   1.815   2.725  0.7737 -0.7689 -1.2612
25139SOL     OW76867   0.581   3.013   4.176 -0.2690 -0.3799  0.1203
25139SOL    HW176868   0.642   2.941   4.162 -2.3850 -2.0549 -1.0861
25139SOL    HW276869   0.567   3.050   4.089  0.3996  1.2145  0.6508
25140SOL     OW76870   4.246   5.351   0.456  0.0092  0.0234 -0.0441
25140SOL    HW176871   4.156   5.384   0.465  0.6918  1.6614  1.2654
25140SOL    HW276872   4.236   5.269   0.407 -2.5422 -1.5531  2.7691
25141SOL     OW76873   5.809   5.394   1.845 -0.1246  0.2076  0.2305
25141SOL    HW176874   5.738   5.452   1.875  0.2200  0.2469  0.9841
25141SOL    HW276875   5.774   5.353   1.766 -0.5532  1.0976 -0.0609
25142SOL     OW76876   1.809   7.404   5.159 -0.2405  0.2605  0.2707
25142SOL    HW176877   1.880   7.365   5.109  0.2468  0.0827  1.0765
25142SOL    HW276878   1.754   7.449   5.094 -0.6712 -1.5207 -0.6529
25143SOL     OW76879   8.206   1.540   5.587 -0.1635  0.0078  0.1091
25143SOL    HW176880   8.143   1.549   5.515 -0.9143  1.3696  0.8824
25143SOL    HW276881   8.170   1.470   5.642  0.7624 -1.5107 -1.1285
25144SOL     OW76882   2.884   2.570   0.113  0.2200  0.0307  0.1481
25144SOL    HW176883   2.944   2.496   0.127  0.0793 -0.7457 -2.6743
25144SOL    HW276884   2.942   2.646   0.102  0.5011 -0.1090  0.6366
25145SOL     OW76885   2.927   4.024   2.887  0.6038 -0.2209  0.5637
25145SOL    HW176886   2.888   4.064   2.965  0.9105  0.2869  0.4649
25145SOL    HW276887   2.993   4.087   2.859 -1.2566  0.9074 -1.6121
25146SOL     OW76888   6.066   8.847   4.818  0.2525  0.1092 -0.8211
25146SOL    HW176889   5.975   8.849   4.787  0.2586  0.7237 -0.8117
25146SOL    HW276890   6.114   8.899   4.753  0.6388 -0.3922 -0.9427
25147SOL     OW76891   6.320   8.888   6.811  0.1083  0.4142 -0.1504
25147SOL    HW176892   6.268   8.902   6.891  0.1534 -0.1536 -0.0155
25147SOL    HW276893   6.376   8.965   6.805  0.1236  0.4501  0.3853
25148SOL     OW76894   5.984   1.311   2.739  0.0498  0.4549  0.5076
25148SOL    HW176895   5.935   1.229   2.750 -0.4915  0.5552 -0.9505
25148SOL    HW276896   5.935   1.375   2.791 -1.7605  0.6777 -1.3602
25149SOL     OW76897   5.175   8.910   5.466  0.3217  0.2621 -0.0019
25149SOL    HW176898   5.224   8.972   5.520  0.2434 -0.5039  0.9771
25149SOL    HW276899   5.234   8.889   5.394  2.2730 -2.0692  2.1158
25150SOL     OW76900   5.475   3.869   4.224  0.4573 -0.1813 -0.0061
25150SOL    HW176901   5.528   3.817   4.163  1.5848  0.8722  0.0386
25150SOL    HW276902   5.528   3.874   4.303 -0.0405  0.2810  0.2998
25151SOL     OW76903   5.575   3.151   8.565  0.6045 -0.4005 -0.1222
25151SOL    HW176904   5.487   3.166   8.530  0.0451 -3.4186 -0.2922
25151SOL    HW276905   5.562   3.148   8.660  0.7723  0.3486 -0.0682
25152SOL     OW76906   8.771   8.911   1.710 -0.3665 -0.3665 -0.0426
25152SOL    HW176907   8.763   8.909   1.615 -3.6094  2.2351  0.0234
25152SOL    HW276908   8.791   9.003   1.730 -1.7786 -0.4301  1.8432
25153SOL     OW76909   3.048   3.215   6.017 -0.0019  0.7436 -0.0246
25153SOL    HW176910   2.976   3.220   5.954 -1.0722 -0.0749  1.0748
25153SOL    HW276911   3.126   3.239   5.967 -0.9864  1.3405 -1.3337
25154SOL     OW76912   5.073   7.459   4.109  0.4906 -0.0232  0.0918
25154SOL    HW176913   5.061   7.420   4.022 -0.1353  1.5533 -0.5737
25154SOL    HW276914   4.991   7.443   4.154  0.5175 -0.1337  0.1025
25155SOL     OW76915   3.133   8.042   7.362 -0.5066  0.1635 -0.1634
25155SOL    HW176916   3.178   8.098   7.425 -0.1212  1.7378 -1.7480
25155SOL    HW276917   3.197   7.975   7.339  0.0862  0.8098 -0.4226
25156SOL     OW76918   8.862   4.855   9.118 -0.3382  0.7026 -0.6422
25156SOL    HW176919   8.946   4.825   9.082 -0.2716 -0.0201  0.0763
25156SOL    HW276920   8.861   4.819   9.207 -0.2017  2.9327  0.3385
25157SOL     OW76921   2.568   8.685   0.987 -0.3772 -0.0858 -0.3232
25157SOL    HW176922   2.602   8.600   1.015  3.3091  1.8105  1.6310
25157SOL    HW276923   2.626   8.712   0.916 -0.0091  1.7285  0.6116
25158SOL     OW76924   2.845   7.351   2.291  0.2489 -0.0071  0.8572
25158SOL    HW176925   2.780   7.379   2.356  0.1071 -0.2625  0.8245
25158SOL    HW276926   2.809   7.271   2.253  1.0031 -0.6346  1.4534
25159SOL     OW76927   8.913   8.808   5.110  0.0504 -0.3267 -0.2188
25159SOL    HW176928   8.992   8.778   5.066 -0.7003 -2.0624 -0.4637
25159SOL    HW276929   8.943   8.837   5.196  0.8714 -1.6250 -0.0476
25160SOL     OW76930   0.276   3.874   8.252 -0.1196  0.3844  0.5664
25160SOL    HW176931   0.256   3.959   8.213 -1.9779 -0.2131  0.1096
25160SOL    HW276932   0.347   3.839   8.199  1.1238  1.9197  1.1758
25161SOL     OW76933   4.367   7.332   2.639 -0.5927 -0.0914 -0.3440
25161SOL    HW176934   4.451   7.363   2.674 -0.2216 -2.3704  0.9800
25161SOL    HW276935   4.392   7.275   2.566 -1.0906  0.3446 -0.8621
25162SOL     OW76936   2.895   1.741   6.785 -0.4619 -0.1959  0.4747
25162SOL    HW176937   2.822   1.726   6.725  0.7286  0.7851 -1.3124
25162SOL    HW276938   2.868   1.817   6.837 -1.7617 -1.4240  1.6853
25163SOL     OW76939   8.403   8.854   3.682 -0.1320 -0.0398 -0.2121
25163SOL    HW176940   8.476   8.797   3.705 -1.2364 -0.8261  1.5819
25163SOL    HW276941   8.345   8.798   3.630 -0.3647 -0.0178  0.0220
25164SOL     OW76942   8.883   4.548   8.615  0.6961  0.2474  0.6986
25164SOL    HW176943   8.958   4.516   8.565  0.4738  0.3455  0.2985
25164SOL    HW276944   8.811   4.491   8.589  0.2744  1.1085 -0.0840
25165SOL     OW76945   4.876   1.843   4.788  0.1839 -0.2943  0.7871
25165SOL    HW176946   4.831   1.804   4.863  0.3601  0.0061  1.0521
25165SOL    HW276947   4.907   1.769   4.737 -0.1046 -0.5019  0.9102
25166SOL     OW76948   1.817   7.870   4.817 -0.0524  0.0208 -0.2500
25166SOL    HW176949   1.805   7.963   4.798  3.7798  0.6286 -0.5794
25166SOL    HW276950   1.865   7.869   4.900  0.1753 -1.6139 -0.3734
25167SOL     OW76951   1.240   0.452   8.666  0.4118  0.3360 -0.2598
25167SOL    HW176952   1.323   0.453   8.714  1.2172  1.5866 -1.6344
25167SOL    HW276953   1.250   0.380   8.603  0.3395  0.3205 -0.2537
25168SOL     OW76954   9.105   4.987   6.311  0.2067  0.0171  0.1684
25168SOL    HW176955   9.097   4.898   6.275 -2.1703 -0.3126  1.2703
25168SOL    HW276956   9.097   4.974   6.406  0.6271  1.3506  0.3966
25169SOL     OW76957   8.599   1.770   1.531 -0.5792 -0.2343  0.1715
25169SOL    HW176958   8.644   1.764   1.615  1.9486 -0.5745 -1.1048
25169SOL    HW276959   8.551   1.853   1.535 -0.0111  0.0472  1.7144
25170SOL     OW76960   0.206   5.460   5.421  0.0230 -0.1288  0.0093
25170SOL    HW176961   0.177   5.549   5.405  0.7968  0.0586 -0.3655
25170SOL    HW276962   0.232   5.427   5.335 -1.4029 -1.1402 -0.0757
25171SOL     OW76963   7.620   4.700   5.668  0.3333  0.6172 -0.1308
25171SOL    HW176964   7.555   4.731   5.605  1.3471  0.8101 -1.1227
25171SOL    HW276965   7.598   4.744   5.750 -3.1056 -2.1725  0.6859
25172SOL     OW76966   1.760   4.286   3.542 -0.2033 -0.7809 -0.3027
25172SOL    HW176967   1.810   4.239   3.609  2.3351  0.0583 -1.4861
25172SOL    HW276968   1.752   4.223   3.470  1.0194 -0.2525 -0.9200
25173SOL     OW76969   5.181   2.589   0.741  0.4103 -0.5160 -0.1960
25173SOL    HW176970   5.127   2.582   0.662 -0.1783  1.3552 -0.0190
25173SOL    HW276971   5.249   2.653   0.718  0.9729 -0.8748  0.4356
25174SOL     OW76972   0.210   8.225   2.687  0.6558  0.5180 -0.3614
25174SOL    HW176973   0.141   8.186   2.741  0.8179  2.2112  1.1397
25174SOL    HW276974   0.270   8.152   2.670 -0.1488 -0.3870  0.5280
25175SOL     OW76975   4.011   5.846   7.061  0.1093  0.1390 -0.1126
25175SOL    HW176976   4.070   5.819   7.131 -1.2810 -2.5706  0.1194
25175SOL    HW276977   3.932   5.876   7.106  0.4800  1.7625 -0.4822
25176SOL     OW76978   7.830   4.530   8.189  0.3428  0.2774 -0.5829
25176SOL    HW176979   7.825   4.593   8.117  1.7515  0.9624 -0.1275
25176SOL    HW276980   7.806   4.580   8.267  2.9488  0.7678  0.0165
25177SOL     OW76981   6.408   4.142   4.339  0.5453 -0.4795 -0.3740
25177SOL    HW176982   6.335   4.180   4.388 -1.0161 -2.4082 -1.0736
25177SOL    HW276983   6.402   4.181   4.252  0.0994 -0.9120 -0.5406
25178SOL     OW76984   0.090   7.263   6.288 -0.3687 -0.0949 -0.0321
25178SOL    HW176985   0.107   7.181   6.243 -1.8019 -0.0642 -0.6610
25178SOL    HW276986   0.031   7.239   6.360 -0.6357  0.3513 -0.1002
25179SOL     OW76987   5.755   0.039   1.235 -0.3657  0.0045 -0.2602
25179SOL    HW176988   5.747  -0.029   1.301 -1.1709  0.7294  0.4159
25179SOL    HW276989   5.725   0.119   1.279  1.9171  1.1098 -0.5425
25180SOL     OW76990   9.126   3.617   9.110 -0.3958 -0.3062  0.2282
25180SOL    HW176991   9.049   3.667   9.136  0.3865  1.3605 -0.5147
25180SOL    HW276992   9.106   3.527   9.135 -1.7612  0.3919  1.8322
25181SOL     OW76993   6.417   1.286   0.730  0.3060  0.3786 -0.0192
25181SOL    HW176994   6.508   1.312   0.717 -0.3139  2.6241 -0.4050
25181SOL    HW276995   6.376   1.363   0.770 -1.4681 -0.4956 -0.0417
25182SOL     OW76996   4.578   5.287   1.248  0.6677 -0.1211 -0.0721
25182SOL    HW176997   4.597   5.196   1.226  0.2421 -0.1234 -0.4594
25182SOL    HW276998   4.654   5.316   1.299 -0.5381 -1.5756  2.7392
25183SOL     OW76999   4.162   4.480   5.109  0.0328  0.4591 -0.2572
25183SOL    HW177000   4.205   4.418   5.169 -0.7976  1.3545  1.3375
25183SOL    HW277001   4.078   4.498   5.151 -0.5679  1.1533 -1.7162
25184SOL     OW77002   8.038   8.165   8.727 -0.4380  0.2514 -0.3213
25184SOL    HW177003   8.112   8.109   8.703  2.1185  1.4668  3.7145
25184SOL    HW277004   8.068   8.254   8.708 -0.4661  0.8060  1.8747
25185SOL     OW77005   2.519   2.989   1.026  0.9708 -0.3202 -0.3864
25185SOL    HW177006   2.602   2.947   1.004  0.7947 -1.4209  0.9247
25185SOL    HW277007   2.463   2.918   1.055 -0.7573  0.2834 -2.0611
25186SOL     OW77008   9.279   8.205   6.781  0.5848 -0.3073  0.4907
25186SOL    HW177009   9.241   8.163   6.858 -0.8520 -0.2111 -0.1336
25186SOL    HW277010   9.346   8.143   6.751  0.3949 -0.8592  1.1757
25187SOL     OW77011   9.181   1.183   3.171  0.3298 -0.5862  0.4840
25187SOL    HW177012   9.100   1.232   3.188  0.5823  0.0023  0.0563
25187SOL    HW277013   9.227   1.184   3.254  0.2672 -0.2068  0.5163
25188SOL     OW77014   6.997   6.546   4.733 -0.0773  0.6138  0.9240
25188SOL    HW177015   6.950   6.605   4.674  1.6059 -0.2379 -1.4397
25188SOL    HW277016   6.932   6.480   4.757  0.0335 -1.5797 -3.7072
25189SOL     OW77017   1.885   0.972   1.288 -0.1670 -0.6603  0.1631
25189SOL    HW177018   1.975   0.961   1.258  1.1143  2.5773  2.2603
25189SOL    HW277019   1.856   1.054   1.247 -0.9660 -0.0062  1.9209
25190SOL     OW77020   5.410   2.951   9.075 -0.0047  0.1012  0.5565
25190SOL    HW177021   5.358   3.027   9.102  1.1877  1.0657  0.1792
25190SOL    HW277022   5.377   2.880   9.131 -0.7866  0.9927  1.2766
25191SOL     OW77023   1.400   1.602   2.390 -0.3838 -0.3142 -0.2496
25191SOL    HW177024   1.327   1.641   2.342 -0.8022 -1.3571 -0.4975
25191SOL    HW277025   1.478   1.632   2.344 -0.6029  1.2955  0.3704
25192SOL     OW77026   6.969   6.277   6.596 -0.4627  0.1472  0.2820
25192SOL    HW177027   6.925   6.218   6.535  0.8885 -1.1568  0.4915
25192SOL    HW277028   7.016   6.339   6.540 -0.5035 -0.0576  0.0207
25193SOL     OW77029   5.570   1.731   5.510 -0.1222 -0.4578  0.1344
25193SOL    HW177030   5.540   1.771   5.592 -1.2079 -1.4257  0.2460
25193SOL    HW277031   5.490   1.721   5.458  0.2637 -1.5548 -0.2804
25194SOL     OW77032   0.171   1.367   1.371 -0.7692 -0.3277 -0.1123
25194SOL    HW177033   0.235   1.346   1.303 -1.7139  0.0391 -1.1350
25194SOL    HW277034   0.086   1.358   1.328 -1.3864 -0.1065  1.0262
25195SOL     OW77035   0.453   1.216   8.705 -0.1669 -0.2779  0.0113
25195SOL    HW177036   0.487   1.283   8.646 -0.2505 -0.2832 -0.0435
25195SOL    HW277037   0.530   1.172   8.739 -0.1416 -1.2120 -1.1745
25196SOL     OW77038   6.713   4.420   4.748 -0.0703  0.7121 -0.0587
25196SOL    HW177039   6.719   4.392   4.840  0.5429  2.8712  0.6086
25196SOL    HW277040   6.624   4.397   4.722  0.6214 -2.6903  0.0510
25197SOL     OW77041   6.677   0.108   7.144  0.2018 -0.0989  0.0392
25197SOL    HW177042   6.765   0.146   7.135  1.8869 -3.8092 -1.1483
25197SOL    HW277043   6.635   0.124   7.060  0.8433 -0.6769 -0.4061
25198SOL     OW77044   8.861   2.705   2.350  0.0355  0.1121 -0.0876
25198SOL    HW177045   8.901   2.778   2.304  1.2079 -0.6979 -0.3985
25198SOL    HW277046   8.836   2.741   2.435 -2.4217  1.6953 -1.3768
25199SOL     OW77047   3.389   8.365   3.467  0.2087  0.5367  0.7027
25199SOL    HW177048   3.485   8.367   3.464  0.2921  0.2404  2.4323
25199SOL    HW277049   3.363   8.364   3.375  1.8389  1.5292  0.1866
25200SOL     OW77050   0.381   5.692   1.031  0.0831  0.2130 -0.1049
25200SOL    HW177051   0.452   5.628   1.042  2.3021  2.2218 -1.9034
25200SOL    HW277052   0.386   5.719   0.940 -3.9164 -0.4431 -0.7025
25201SOL     OW77053   5.472   9.177   0.100 -0.0177  0.1450  0.3932
25201SOL    HW177054   5.447   9.209   0.187  0.3183  2.3787 -0.2746
25201SOL    HW277055   5.397   9.196   0.044  0.5471  0.6528 -0.2169
25202SOL     OW77056   6.840   8.864   8.557 -0.0482 -0.3167 -0.2684
25202SOL    HW177057   6.913   8.911   8.516 -1.1829 -0.3433 -2.4878
25202SOL    HW277058   6.793   8.932   8.605  0.3305  0.0969 -0.4666
25203SOL     OW77059   2.064   3.592   8.764  0.1937 -0.4222 -0.1605
25203SOL    HW177060   2.144   3.583   8.816  0.2698  1.3454  0.1103
25203SOL    HW277061   2.041   3.503   8.740  1.3955 -1.1065  1.0429
25204SOL     OW77062   4.013   2.233   5.062 -0.5891 -0.1122  0.6614
25204SOL    HW177063   4.002   2.298   4.994 -1.9660  0.4343  1.3666
25204SOL    HW277064   4.088   2.263   5.113 -0.5153  0.3016  0.3088
25205SOL     OW77065   2.103   1.019   2.757 -0.5561  0.1965 -0.1738
25205SOL    HW177066   2.131   1.051   2.842 -0.7616 -0.7596  0.2646
25205SOL    HW277067   2.140   1.081   2.694 -1.0860  1.3739  0.6490
25206SOL     OW77068   1.008   8.115   0.040 -0.1001  0.1452  0.3221
25206SOL    HW177069   1.070   8.095  -0.030 -1.1173 -1.1367 -0.2562
25206SOL    HW277070   1.039   8.062   0.114 -0.2074 -0.0995  0.1932
25207SOL     OW77071   7.725   6.363   4.413  0.3542 -0.1011 -0.4744
25207SOL    HW177072   7.702   6.404   4.329 -1.2948  0.4157  0.1943
25207SOL    HW277073   7.647   6.315   4.439  0.6731  0.1163  0.9829
25208SOL     OW77074   6.478   7.750   2.551 -0.0732  0.1878 -0.2194
25208SOL    HW177075   6.408   7.686   2.539  0.6463 -0.1365 -4.4246
25208SOL    HW277076   6.435   7.826   2.589 -1.7435 -1.3992  1.2633
25209SOL     OW77077   7.867   5.692   1.476 -0.3418 -0.1609  0.2031
25209SOL    HW177078   7.919   5.728   1.548 -0.5608  0.0809  0.2398
25209SOL    HW277079   7.844   5.604   1.506  0.9560 -0.6893 -0.2658
25210SOL     OW77080   4.609   0.071   4.533 -0.1823 -0.2097 -0.6327
25210SOL    HW177081   4.655   0.117   4.603 -0.5399  2.0772 -1.8338
25210SOL    HW277082   4.567  -0.003   4.577 -0.5830  1.2615  1.6051
25211SOL     OW77083   0.025   7.332   0.184  0.4669 -0.0731 -0.0303
25211SOL    HW177084  -0.059   7.363   0.217  0.2251 -1.5345  0.8353
25211SOL    HW277085   0.052   7.398   0.120 -0.9887  0.7820  0.1940
25212SOL     OW77086   3.318   6.621   3.084 -0.2890  0.3144  0.0501
25212SOL    HW177087   3.248   6.667   3.130  0.8507  0.9787  1.1936
25212SOL    HW277088   3.362   6.571   3.153  1.8407  1.7982 -0.1712
25213SOL     OW77089   3.482   5.270   8.693  0.1641 -0.7017 -0.1713
25213SOL    HW177090   3.525   5.250   8.610 -2.7362  1.1624 -2.3060
25213SOL    HW277091   3.401   5.220   8.692 -0.1849 -0.2314  1.2941
25214SOL     OW77092   8.446   2.866   3.458  0.2093  0.1229  0.3772
25214SOL    HW177093   8.449   2.909   3.373 -1.9048  0.1859  0.2902
25214SOL    HW277094   8.407   2.932   3.516  1.1189 -0.1152  1.2908
25215SOL     OW77095   5.922   7.540   8.165  0.0846  0.6788 -0.0161
25215SOL    HW177096   5.878   7.518   8.083 -2.5297  0.0032  1.4366
25215SOL    HW277097   6.006   7.577   8.138 -0.2087 -0.4910 -2.9307
25216SOL     OW77098   8.501   7.951   0.574  0.1983 -0.6536 -0.3355
25216SOL    HW177099   8.586   7.989   0.553  1.4152 -2.0009  1.7836
25216SOL    HW277100   8.478   7.898   0.498  0.8269  0.3780 -1.2661
25217SOL     OW77101   2.996   7.251   8.736  0.2406  0.6227 -0.6025
25217SOL    HW177102   2.934   7.298   8.681 -1.5149  0.1414  0.8548
25217SOL    HW277103   3.015   7.311   8.808 -0.5028 -0.1303  0.2505
25218SOL     OW77104   3.568   0.840   5.786 -0.0386  0.3718  0.6840
25218SOL    HW177105   3.631   0.775   5.755 -3.0835 -2.4146 -0.1330
25218SOL    HW277106   3.566   0.906   5.718 -0.3270 -1.2063 -0.9075
25219SOL     OW77107   5.165   6.568   6.680 -0.4795 -0.2439 -0.4365
25219SOL    HW177108   5.177   6.473   6.684  0.5125 -0.1375 -0.7257
25219SOL    HW277109   5.070   6.579   6.673 -0.6643 -1.1840  0.2985
25220SOL     OW77110   3.111   5.870   8.404 -0.1712  0.2303 -0.0857
25220SOL    HW177111   3.022   5.886   8.434 -0.6020  1.0240 -1.6850
25220SOL    HW277112   3.109   5.780   8.371 -1.2322  1.1249 -2.7492
25221SOL     OW77113   1.425   3.694   8.039  0.1442  0.0752 -0.4756
25221SOL    HW177114   1.436   3.634   7.965  1.4346 -1.2987  0.7606
25221SOL    HW277115   1.497   3.756   8.029  0.7571 -0.5399 -0.0233
25222SOL     OW77116   4.807   4.595   6.090 -0.5748 -0.1220  0.0791
25222SOL    HW177117   4.815   4.664   6.155  0.4417  0.0143 -0.1825
25222SOL    HW277118   4.828   4.514   6.136  0.2276 -0.0158 -0.0934
25223SOL     OW77119   7.982   1.736   5.891  0.3794  0.0001  0.1005
25223SOL    HW177120   7.933   1.744   5.973  0.5886  0.0174  0.2256
25223SOL    HW277121   8.061   1.788   5.905  0.5438 -0.2153 -0.0134
25224SOL     OW77122   0.248   5.359   1.512 -0.1844 -0.1657  0.0580
25224SOL    HW177123   0.153   5.352   1.525 -0.3840  1.3077 -0.3651
25224SOL    HW277124   0.284   5.288   1.564 -1.5610 -1.2793 -0.4390
25225SOL     OW77125   1.755   5.412   2.774 -0.0009  0.4037 -0.2536
25225SOL    HW177126   1.681   5.472   2.771 -1.4102 -1.1870  0.7678
25225SOL    HW277127   1.797   5.429   2.858 -0.9803 -0.6389  0.4741
25226SOL     OW77128   7.790   3.768   1.077 -0.9124 -0.1357 -0.3330
25226SOL    HW177129   7.702   3.756   1.113  0.0628 -0.5952  2.0156
25226SOL    HW277130   7.825   3.844   1.123  0.3485 -0.6577 -0.3908
25227SOL     OW77131   6.280   0.287   4.857 -0.4612 -0.0901 -0.2759
25227SOL    HW177132   6.356   0.269   4.912 -1.1065 -2.9313 -0.1527
25227SOL    HW277133   6.315   0.288   4.768 -0.3701 -2.8681 -0.3623
25228SOL     OW77134   4.343   0.991   3.051  0.7646  0.2395  0.3215
25228SOL    HW177135   4.310   1.049   3.121 -0.6260  0.1377 -0.2166
25228SOL    HW277136   4.395   1.049   2.995  2.5203  0.1784  1.7990
25229SOL     OW77137   0.075   2.727   4.140  0.2729 -0.0015 -0.5626
25229SOL    HW177138   0.144   2.787   4.167  1.5362 -0.3520 -2.7586
25229SOL    HW277139   0.071   2.735   4.044 -2.2610 -0.5292 -0.5835
25230SOL     OW77140   0.510   1.298   4.596  0.2968 -0.3362  0.5207
25230SOL    HW177141   0.451   1.255   4.658 -0.1010 -0.6356 -0.0588
25230SOL    HW277142   0.558   1.226   4.555  2.0768 -0.0401  1.9553
25231SOL     OW77143   1.092   3.150   4.784  0.7668  0.0820  0.0991
25231SOL    HW177144   1.004   3.184   4.800  1.1877  0.3145  2.2216
25231SOL    HW277145   1.148   3.198   4.845  2.5883  0.7040 -1.9223
25232SOL     OW77146   5.409   3.951   5.092  0.2583  0.4342  0.1180
25232SOL    HW177147   5.322   3.970   5.128  0.0565  0.0695 -0.1589
25232SOL    HW277148   5.466   4.018   5.129  0.0541  0.0964  1.0801
25233SOL     OW77149   4.727   3.455   7.168  0.4136  0.0206 -0.5888
25233SOL    HW177150   4.764   3.533   7.128 -1.4736  2.0330  1.2888
25233SOL    HW277151   4.747   3.464   7.262 -1.9698 -0.4186  0.0208
25234SOL     OW77152   2.487   8.857   6.515  0.0218 -0.4019 -0.2189
25234SOL    HW177153   2.537   8.928   6.473  2.2506 -1.6675  0.1423
25234SOL    HW277154   2.487   8.786   6.450  0.6966 -1.2344  0.6695
25235SOL     OW77155   5.334   4.015   1.645 -0.1447  0.6065  0.1465
25235SOL    HW177156   5.347   3.997   1.552 -0.7557 -1.5610  0.4017
25235SOL    HW277157   5.239   4.020   1.655 -0.1025  0.4362  0.6902
25236SOL     OW77158   6.172   3.334   3.156 -0.4146 -0.0447 -0.7193
25236SOL    HW177159   6.193   3.400   3.222  0.1074 -0.9478  0.0389
25236SOL    HW277160   6.100   3.373   3.106  1.2453  2.0136 -1.6818
25237SOL     OW77161   3.170   4.011   7.858 -0.1490  0.1098  0.0880
25237SOL    HW177162   3.225   4.077   7.900 -0.0929  1.8293 -2.4681
25237SOL    HW277163   3.086   4.055   7.844 -0.0554 -0.2570 -1.8387
25238SOL     OW77164   1.043   5.255   7.023 -0.2360  0.2645  0.0781
25238SOL    HW177165   1.020   5.167   7.050 -0.5632  0.9721  2.2800
25238SOL    HW277166   1.097   5.289   7.093  2.3359  0.8823 -2.0583
25239SOL     OW77167   3.703   7.583   8.507  0.5061  0.0540  0.2868
25239SOL    HW177168   3.766   7.639   8.461  0.5606 -0.8844 -0.8397
25239SOL    HW277169   3.755   7.507   8.536  0.2468  0.1211  0.9527
25240SOL     OW77170   7.560   3.547   8.804  0.0903 -0.1931 -0.5501
25240SOL    HW177171   7.505   3.479   8.764  0.5228  0.8440 -3.0376
25240SOL    HW277172   7.545   3.625   8.751  2.3547  0.6926  0.0245
25241SOL     OW77173   7.629   0.653   8.826 -0.4346  0.1387 -0.2838
25241SOL    HW177174   7.621   0.609   8.742  4.1236  0.3946 -1.0797
25241SOL    HW277175   7.668   0.738   8.806  1.2034  0.0486  2.0395
25242SOL     OW77176   7.906   4.336   7.440  0.4030  0.0737  0.1433
25242SOL    HW177177   7.873   4.397   7.375 -1.5816 -0.6508  0.3943
25242SOL    HW277178   7.995   4.316   7.412 -0.5005 -0.5140 -2.5801
25243SOL     OW77179   6.184   5.125   9.200 -0.1413  0.4224 -0.3624
25243SOL    HW177180   6.208   5.207   9.158  1.1114  0.9262  1.2639
25243SOL    HW277181   6.173   5.063   9.128  1.9347  1.2498 -1.4659
25244SOL     OW77182   0.112   4.615   6.741 -0.2295  0.4482 -0.5346
25244SOL    HW177183   0.099   4.647   6.830 -2.3285  1.9356 -1.2889
25244SOL    HW277184   0.203   4.637   6.720  0.1632  0.4638  1.0401
25245SOL     OW77185   5.818   0.302   7.053  0.0493  0.1632  0.3181
25245SOL    HW177186   5.872   0.254   6.990 -0.9605 -0.5458 -0.0345
25245SOL    HW277187   5.728   0.276   7.032 -0.3125 -0.1266  2.0741
25246SOL     OW77188   0.806   8.349   5.460  0.3492 -0.9729  0.2171
25246SOL    HW177189   0.839   8.319   5.375  2.1900 -1.5032  1.0635
25246SOL    HW277190   0.771   8.270   5.501  0.9567 -1.0543  0.5900
25247SOL     OW77191   4.049   8.240   1.112  0.1127 -0.5349  0.1931
25247SOL    HW177192   4.140   8.228   1.085 -0.0077  1.5388 -1.4075
25247SOL    HW277193   4.048   8.326   1.154 -1.1373 -0.4355 -0.0134
25248SOL     OW77194   6.345   9.174   0.662 -0.2696 -0.2521  0.5835
25248SOL    HW177195   6.424   9.226   0.680  0.3053 -1.0596  0.4842
25248SOL    HW277196   6.273   9.237   0.665  0.4032  0.5400  0.4789
25249SOL     OW77197   4.268   7.198   8.994  0.1055 -0.3921  0.4103
25249SOL    HW177198   4.190   7.182   8.941 -0.4757 -0.7230  1.3438
25249SOL    HW277199   4.316   7.115   8.992  0.8899  0.0695 -0.8721
25250SOL     OW77200   2.772   4.960   8.533  0.9299 -0.2840  0.2639
25250SOL    HW177201   2.828   4.882   8.538 -0.5759 -1.5683 -1.2872
25250SOL    HW277202   2.743   4.962   8.442 -0.9594  0.7352  0.8377
25251SOL     OW77203   8.305   2.272   3.647  0.1087  0.3873  0.0738
25251SOL    HW177204   8.397   2.268   3.673  0.5034 -1.7329 -1.3233
25251SOL    HW277205   8.301   2.343   3.584  0.7131  0.7319  0.4175
25252SOL     OW77206   3.214   5.017   6.158  0.3910  0.0259  0.2759
25252SOL    HW177207   3.239   5.014   6.250  0.7533 -1.1866  0.1424
25252SOL    HW277208   3.201   4.926   6.133 -1.1951  0.4276 -0.4784
25253SOL     OW77209   2.332   1.000   5.190 -0.1751 -0.2373  0.1123
25253SOL    HW177210   2.416   1.024   5.228 -0.5086 -0.2695  0.8854
25253SOL    HW277211   2.273   0.991   5.265 -0.9691  0.1858 -0.4438
25254SOL     OW77212   3.033   2.564   7.339 -0.0164 -0.4677 -0.2880
25254SOL    HW177213   3.062   2.526   7.256  1.0983 -1.5512  0.5766
25254SOL    HW277214   2.993   2.492   7.387 -1.3199  0.3131 -0.1554
25255SOL     OW77215   3.459   2.736   1.671 -0.1714  0.2992  0.2193
25255SOL    HW177216   3.490   2.728   1.761 -0.2626  1.1587  0.3333
25255SOL    HW277217   3.375   2.689   1.671 -1.6578  2.7632  1.3670
25256SOL     OW77218   2.546   2.164   3.093 -0.4615  0.0599  0.1336
25256SOL    HW177219   2.561   2.259   3.097  0.9248 -0.1438  0.3429
25256SOL    HW277220   2.457   2.152   3.126 -0.1171  1.1600  1.5729
25257SOL     OW77221   5.353   5.949   5.039  0.6572  0.3780  0.1051
25257SOL    HW177222   5.348   5.885   5.110 -1.1159  1.3756  0.9248
25257SOL    HW277223   5.427   5.919   4.986  1.6206 -0.7702  1.9761
25258SOL     OW77224   2.995   4.737   0.581 -0.0414  0.1075  0.3696
25258SOL    HW177225   2.919   4.780   0.620  0.7112 -0.2662  2.3639
25258SOL    HW277226   2.980   4.644   0.596  1.8104  0.1093  2.9101
25259SOL     OW77227   0.880   3.567   3.689  0.8109  0.6564 -0.2658
25259SOL    HW177228   0.891   3.643   3.632 -2.6622  1.0946 -0.5652
25259SOL    HW277229   0.817   3.596   3.755  1.4723 -1.1687  1.2522
25260SOL     OW77230   3.794   9.152   7.637  0.0658 -1.0553 -0.0635
25260SOL    HW177231   3.760   9.241   7.627  0.3922 -0.8564  0.5235
25260SOL    HW277232   3.725   9.106   7.685  0.3023 -0.8559  0.4714
25261SOL     OW77233   5.383   5.377   5.521  0.0432 -0.2836  0.5964
25261SOL    HW177234   5.376   5.382   5.426 -0.6372  0.3964  0.6782
25261SOL    HW277235   5.467   5.334   5.536 -0.3614 -1.4571 -0.3249
25262SOL     OW77236   7.047   3.846   0.071  0.4019  0.1771 -0.4128
25262SOL    HW177237   7.087   3.894  -0.002  1.2824 -0.2905 -0.2563
25262SOL    HW277238   7.029   3.913   0.136  2.3807  0.2414  0.1381
25263SOL     OW77239   8.783   7.715   1.378  0.7062  0.0011  0.1126
25263SOL    HW177240   8.863   7.755   1.343  2.0687 -1.7160  1.0781
25263SOL    HW277241   8.801   7.704   1.471 -0.6594 -0.4574  0.3331
25264SOL     OW77242   6.633   4.493   6.810  0.8269 -0.2846 -0.1708
25264SOL    HW177243   6.552   4.445   6.792  0.5863  0.5372 -1.4182
25264SOL    HW277244   6.629   4.513   6.903 -0.6977  0.2368 -0.3220
25265SOL     OW77245   0.538   5.094   2.239  0.2108  0.0350 -0.2165
25265SOL    HW177246   0.574   5.007   2.218 -1.6503 -0.4896 -1.5177
25265SOL    HW277247   0.561   5.108   2.331  2.4568 -0.8449 -0.5853
25266SOL     OW77248   7.243   6.736   8.304 -0.1346 -0.3994  0.4691
25266SOL    HW177249   7.192   6.667   8.346  1.8019 -1.3515  1.4348
25266SOL    HW277250   7.233   6.720   8.210 -1.7995 -0.3504  0.6197
25267SOL     OW77251   5.190   5.952   7.807 -0.1687  0.7425 -0.0637
25267SOL    HW177252   5.215   5.862   7.826  0.3869  1.4104  2.7818
25267SOL    HW277253   5.123   5.944   7.739  1.8212 -1.5876 -1.9752
25268SOL     OW77254   8.724   0.376   8.514  0.9887 -0.3829  0.2143
25268SOL    HW177255   8.780   0.408   8.443  2.0709 -0.3038  1.0720
25268SOL    HW277256   8.641   0.422   8.501  1.0486 -0.6220 -1.1862
25269SOL     OW77257   4.185   5.555   7.048  0.2449  0.1996  0.4552
25269SOL    HW177258   4.224   5.540   6.962 -0.3935 -0.2457  0.2306
25269SOL    HW277259   4.094   5.579   7.029 -0.7223 -2.5967  1.0450
25270SOL     OW77260   7.232   3.486   0.510 -0.3169 -0.2429 -0.7388
25270SOL    HW177261   7.315   3.524   0.539 -0.5444 -1.2664  1.4091
25270SOL    HW277262   7.167   3.524   0.569 -0.8226 -2.3458  0.1428
25271SOL     OW77263   7.021   1.743   0.485  1.0109  0.2042 -0.1153
25271SOL    HW177264   7.021   1.673   0.420 -1.3118 -0.7543  0.8089
25271SOL    HW277265   7.033   1.823   0.434  1.0729 -0.6487 -1.4936
25272SOL     OW77266   2.797   6.752   4.164 -0.1537  0.3828 -0.4337
25272SOL    HW177267   2.774   6.702   4.086 -0.3340 -0.1977 -0.0212
25272SOL    HW277268   2.780   6.691   4.236  1.5488  0.3393 -0.0351
25273SOL     OW77269   0.509   1.986   2.746  0.6018 -0.0846 -0.4281
25273SOL    HW177270   0.427   1.949   2.713  1.2057 -0.9653 -0.9845
25273SOL    HW277271   0.576   1.950   2.689  1.3789  0.6569  0.0008
25274SOL     OW77272   3.542   2.783   2.638 -0.0324 -0.1294  0.1369
25274SOL    HW177273   3.565   2.849   2.572 -0.4756 -2.7885 -2.9554
25274SOL    HW277274   3.452   2.803   2.662  0.5937  1.7269  1.1134
25275SOL     OW77275   3.215   5.186   7.593  0.1167  0.6133 -0.2621
25275SOL    HW177276   3.208   5.277   7.621  1.7579  0.4283  0.8558
25275SOL    HW277277   3.306   5.162   7.609 -0.6365 -1.7118  1.0958
25276SOL     OW77278   0.294   7.808   1.220 -0.2827 -0.4901  0.8551
25276SOL    HW177279   0.324   7.791   1.131 -1.5333  0.6807  0.1734
25276SOL    HW277280   0.211   7.761   1.227  0.4630 -1.7263  1.9100
25277SOL     OW77281   4.266   3.858   8.444 -0.1883  0.0915 -0.3921
25277SOL    HW177282   4.321   3.851   8.366 -0.5978 -2.3550 -0.5318
25277SOL    HW277283   4.182   3.821   8.418 -0.2429 -1.0593  1.2535
25278SOL     OW77284   7.575   8.861   2.233 -0.0308  0.1610  0.8812
25278SOL    HW177285   7.572   8.847   2.138 -0.5878 -0.4523  0.9790
25278SOL    HW277286   7.542   8.949   2.246  1.8683  0.9976  0.3664
25279SOL     OW77287   2.941   7.838   2.130 -0.6449  0.2960 -0.4193
25279SOL    HW177288   2.872   7.826   2.066 -0.6602  0.2347 -0.3905
25279SOL    HW277289   2.947   7.755   2.177 -0.0540  0.0515 -0.9132
25280SOL     OW77290   7.776   6.929   5.448 -0.2364  0.6119 -0.2120
25280SOL    HW177291   7.798   6.934   5.355  0.4366 -1.0018 -0.1789
25280SOL    HW277292   7.859   6.941   5.493 -0.8640  3.5681  0.3251
25281SOL     OW77293   0.474   3.055   3.898  0.1249  0.3783  0.5847
25281SOL    HW177294   0.497   3.117   3.828  2.4174  0.5441  1.3856
25281SOL    HW277295   0.508   2.971   3.866  0.5000  0.3114  1.1425
25282SOL     OW77296   7.063   0.272   1.176  0.8180 -0.1677  0.1173
25282SOL    HW177297   7.073   0.346   1.236 -0.7500 -0.3267  0.6191
25282SOL    HW277298   7.009   0.209   1.225  0.5430 -0.8218 -0.9992
25283SOL     OW77299   8.904   4.199   4.046  0.4586  0.0776  0.3785
25283SOL    HW177300   8.832   4.142   4.072  1.7446 -1.1395  1.4797
25283SOL    HW277301   8.958   4.207   4.125  0.7450  2.2158  0.0304
25284SOL     OW77302   3.501   5.366   5.765  0.1404  0.8535 -0.3314
25284SOL    HW177303   3.520   5.309   5.691 -0.3344  1.2437 -0.7653
25284SOL    HW277304   3.553   5.331   5.837  0.6464  0.5023 -0.8643
25285SOL     OW77305   3.968   4.337   6.682  0.1183 -0.0819  0.0143
25285SOL    HW177306   4.051   4.364   6.642  0.5411 -1.3616 -0.0187
25285SOL    HW277307   3.969   4.376   6.769  1.1259 -0.7178  0.3068
25286SOL     OW77308   2.808   7.975   5.869  0.3105 -0.2014  0.0232
25286SOL    HW177309   2.880   7.970   5.932 -2.2508 -0.8682  3.1154
25286SOL    HW277310   2.782   8.067   5.869  0.4789 -0.1529 -0.2840
25287SOL     OW77311   3.962   5.179   0.149 -0.5469 -0.5065 -0.8096
25287SOL    HW177312   3.954   5.100   0.095 -1.2611 -0.0909 -1.3226
25287SOL    HW277313   4.003   5.243   0.091 -0.7507 -0.2458 -0.6660
25288SOL     OW77314   9.227   8.451   7.769  0.1661  0.1986 -0.2550
25288SOL    HW177315   9.190   8.490   7.848  0.2337 -0.3743  0.0681
25288SOL    HW277316   9.255   8.363   7.797  2.1139  0.7279 -0.3910
25289SOL     OW77317   6.368   0.127   1.876 -0.2123 -0.1698  0.3708
25289SOL    HW177318   6.356   0.121   1.971  1.1394 -0.4440  0.5368
25289SOL    HW277319   6.280   0.113   1.840 -0.4815 -1.6784  1.5275
25290SOL     OW77320   4.506   2.112   8.902  0.5016  0.0993 -0.2131
25290SOL    HW177321   4.447   2.065   8.844 -0.3083 -0.0536  0.7062
25290SOL    HW277322   4.494   2.204   8.880 -1.6246  0.2520  1.3099
25291SOL     OW77323   5.393   6.227   1.550 -0.6108  0.2272  0.0527
25291SOL    HW177324   5.343   6.146   1.559 -2.4122  1.2549 -0.3429
25291SOL    HW277325   5.467   6.203   1.493  0.0820 -1.5962  1.6090
25292SOL     OW77326   2.993   1.185   6.698 -0.6405 -0.4277  0.3459
25292SOL    HW177327   2.947   1.104   6.721 -1.1849 -0.2665 -0.1479
25292SOL    HW277328   2.953   1.213   6.616 -0.7709  0.5886  0.7404
25293SOL     OW77329   6.273   9.207   1.430  0.3032 -0.6594  0.3303
25293SOL    HW177330   6.218   9.163   1.495  0.8351 -1.2343  0.3987
25293SOL    HW277331   6.336   9.141   1.402  0.6650 -0.1499 -0.1001
25294SOL     OW77332   8.185   1.479   5.230 -0.2170  0.5448 -0.4044
25294SOL    HW177333   8.174   1.564   5.189 -0.5424  0.1112 -1.2241
25294SOL    HW277334   8.132   1.419   5.178  0.6684 -0.3200 -0.3514
25295SOL     OW77335   4.047   0.897   7.556  0.3607 -0.1651  0.4804
25295SOL    HW177336   3.996   0.901   7.475  0.5114  2.0558  0.4431
25295SOL    HW277337   4.064   0.803   7.569  0.1751 -0.5898 -1.9340
25296SOL     OW77338   1.179   5.792   3.588 -0.2077  0.0557  0.7379
25296SOL    HW177339   1.249   5.757   3.643 -0.2080  1.8263  1.9393
25296SOL    HW277340   1.220   5.862   3.538 -1.0442  0.9430  1.2662
25297SOL     OW77341   8.224   1.151   8.862  0.1076  0.6696 -0.0655
25297SOL    HW177342   8.199   1.241   8.885 -1.4158 -0.0713  1.2903
25297SOL    HW277343   8.301   1.162   8.806 -1.5938  2.9628 -2.1852
25298SOL     OW77344   5.074   6.834   4.933  0.0207  0.1273 -0.0276
25298SOL    HW177345   5.139   6.818   4.865  0.2141 -1.1446  0.4314
25298SOL    HW277346   5.085   6.762   4.995 -0.9030  0.6449  0.7797
25299SOL     OW77347   2.949   5.181   7.745  0.0307 -0.2443 -0.2826
25299SOL    HW177348   2.957   5.170   7.651  0.3308 -0.0063 -0.2848
25299SOL    HW277349   2.855   5.168   7.763 -0.4763  2.1678 -0.9291
25300SOL     OW77350   1.657   0.844   0.563  0.2134 -0.2656 -0.1507
25300SOL    HW177351   1.676   0.877   0.651  0.4080 -0.3869 -0.1460
25300SOL    HW277352   1.697   0.757   0.561 -0.4552 -0.5824 -0.0989
25301SOL     OW77353   0.752   3.788   1.396  0.0430 -0.0910 -0.5709
25301SOL    HW177354   0.743   3.874   1.354  0.6065  0.1077 -0.3105
25301SOL    HW277355   0.847   3.777   1.406 -0.0584  0.8830  2.6095
25302SOL     OW77356   6.224   8.629   2.985 -0.0753  0.6184  0.0212
25302SOL    HW177357   6.198   8.556   3.042  0.0829  1.0141  0.6147
25302SOL    HW277358   6.167   8.701   3.010  1.2392  1.3571  1.0218
25303SOL     OW77359   8.549   7.836   6.946 -0.0720 -0.1965 -0.0226
25303SOL    HW177360   8.518   7.908   6.892  0.2759 -0.5671 -0.7389
25303SOL    HW277361   8.606   7.786   6.888  2.4569  0.8380  1.4202
25304SOL     OW77362   8.698   8.000   1.468  0.7945  0.2301 -0.8234
25304SOL    HW177363   8.623   8.043   1.426 -1.0445 -0.8147  1.1859
25304SOL    HW277364   8.675   7.907   1.467  0.9330  0.1020  1.8284
25305SOL     OW77365   7.635   2.919   4.485  0.5169 -0.2260 -0.8520
25305SOL    HW177366   7.542   2.908   4.465 -0.1586 -0.1760  1.8673
25305SOL    HW277367   7.647   3.014   4.492  0.6590 -0.2485 -0.7761
25306SOL     OW77368   5.452   6.182   7.128  0.0332  0.0127 -0.3314
25306SOL    HW177369   5.359   6.168   7.148 -0.0487 -0.1311 -0.8017
25306SOL    HW277370   5.498   6.122   7.186 -0.0636  1.2772  1.1377
25307SOL     OW77371   0.265   7.137   5.937 -0.7887  0.2898  0.2298
25307SOL    HW177372   0.351   7.152   5.899 -1.0093  0.0293 -0.3903
25307SOL    HW277373   0.205   7.145   5.863 -1.1629 -0.9543  0.3854
25308SOL     OW77374   4.762   5.079   0.737  0.6665  0.0489 -0.2212
25308SOL    HW177375   4.756   5.170   0.768 -0.0901 -0.1264  0.1692
25308SOL    HW277376   4.674   5.059   0.704  1.2587 -0.0001 -1.8794
25309SOL     OW77377   7.658   7.091   3.817 -0.1220  0.1324  0.0372
25309SOL    HW177378   7.643   7.124   3.728 -1.1136 -0.4747 -0.0405
25309SOL    HW277379   7.743   7.127   3.842  1.5404 -1.9005 -2.1987
25310SOL     OW77380   5.468   1.964   3.992  0.0056  0.0412 -0.7825
25310SOL    HW177381   5.522   1.894   3.956  0.9591  0.1447  0.3832
25310SOL    HW277382   5.433   2.009   3.915 -1.2465 -2.1401 -1.5689
25311SOL     OW77383   9.093   0.696   1.093  0.0131 -0.0442  0.6045
25311SOL    HW177384   9.021   0.633   1.099 -0.5164  0.4967  0.0589
25311SOL    HW277385   9.050   0.781   1.081  0.6357  0.7356  3.2278
25312SOL     OW77386   5.429   2.150   4.183  0.4657  0.0671  0.2030
25312SOL    HW177387   5.342   2.110   4.188  0.1971  0.6522  0.2447
25312SOL    HW277388   5.475   2.099   4.116  0.7245 -1.4481  1.4733
25313SOL     OW77389   3.209   7.514   0.103 -0.1545 -0.8962 -0.2855
25313SOL    HW177390   3.294   7.511   0.060  0.2071 -0.6034  0.3893
25313SOL    HW277391   3.158   7.445   0.061 -0.3539  0.3644 -2.2836
25314SOL     OW77392   6.896   0.008   3.937  0.0234 -0.4753 -0.0934
25314SOL    HW177393   6.880  -0.078   3.900  0.0952 -0.7201  0.4333
25314SOL    HW277394   6.821   0.025   3.994  0.7895 -0.9060  1.0768
25315SOL     OW77395   4.514   6.366   1.458  0.0693  0.5383 -0.5155
25315SOL    HW177396   4.532   6.397   1.369 -0.6901 -1.1075 -1.2810
25315SOL    HW277397   4.527   6.272   1.454  2.3991  0.6768  1.7788
25316SOL     OW77398   8.299   1.843   2.270 -0.1126 -0.1340 -1.0244
25316SOL    HW177399   8.255   1.869   2.350  0.5302 -0.7451 -0.4590
25316SOL    HW277400   8.289   1.918   2.211 -0.4456  0.3827 -0.3215
25317SOL     OW77401   0.508   8.845   7.523 -0.1681 -0.0039  0.1089
25317SOL    HW177402   0.561   8.765   7.527  1.2701  0.5742 -3.4198
25317SOL    HW277403   0.566   8.913   7.556 -0.5294 -0.0460  0.8504
25318SOL     OW77404   7.406   5.043   2.859 -0.3886 -0.1783 -0.1806
25318SOL    HW177405   7.450   5.112   2.808 -0.0432 -1.1514 -1.2420
25318SOL    HW277406   7.416   5.070   2.950  0.8061  0.5608 -0.5106
25319SOL     OW77407   3.970   3.369   8.554 -0.4947  0.1249  0.0796
25319SOL    HW177408   3.941   3.280   8.574 -1.7990  0.7367  1.0377
25319SOL    HW277409   3.991   3.407   8.639 -0.6954  0.9870 -0.2518
25320SOL     OW77410   0.680   7.891   7.166  0.2520  0.2770  0.5953
25320SOL    HW177411   0.635   7.837   7.230 -2.5290 -1.3808 -2.4393
25320SOL    HW277412   0.629   7.972   7.162  0.4869  0.4252  0.5334
25321SOL     OW77413   7.672   5.741   5.794 -0.2950  0.2309  0.2611
25321SOL    HW177414   7.755   5.753   5.840 -0.6978  1.3898  0.7307
25321SOL    HW277415   7.688   5.777   5.706 -0.1797  0.0323  0.1980
25322SOL     OW77416   5.067   3.229   7.287 -0.3628 -0.1717 -0.2058
25322SOL    HW177417   5.037   3.274   7.366  1.3273  1.9183 -0.6608
25322SOL    HW277418   5.142   3.177   7.317  1.6862  2.3091 -0.6725
25323SOL     OW77419   6.128   1.350   6.603 -0.1265  0.3523  0.0490
25323SOL    HW177420   6.183   1.420   6.568  1.2559  0.3867  2.1124
25323SOL    HW277421   6.180   1.271   6.592  0.4456  0.3969  2.0982
25324SOL     OW77422   8.918   3.968   3.158  0.0891 -0.4244  0.0090
25324SOL    HW177423   8.857   3.943   3.089 -0.7813 -1.0629  0.9799
25324SOL    HW277424   8.863   3.983   3.235  1.0665 -0.0699  0.6658
25325SOL     OW77425   6.410   8.853   4.538  0.2737  0.4371  0.0185
25325SOL    HW177426   6.378   8.828   4.451  0.9000  0.7771 -0.3200
25325SOL    HW277427   6.504   8.862   4.526  0.1548  2.2927  0.2838
25326SOL     OW77428   2.664   3.719   1.037  0.1591 -0.0135  0.3347
25326SOL    HW177429   2.595   3.712   1.104 -1.2637 -1.4381 -1.1838
25326SOL    HW277430   2.664   3.633   0.994  1.0431  0.8379 -1.4593
25327SOL     OW77431   0.265   5.279   8.725  0.4618  1.1097 -0.0939
25327SOL    HW177432   0.228   5.199   8.762  2.7851 -0.5052 -1.0468
25327SOL    HW277433   0.191   5.321   8.680 -0.3369 -1.9326 -1.9145
25328SOL     OW77434   0.650   2.968   8.858  0.3693  0.2073  0.5723
25328SOL    HW177435   0.703   3.047   8.853  1.9706 -0.6625  2.5421
25328SOL    HW277436   0.580   2.990   8.921  0.0182  0.4722  0.0925
25329SOL     OW77437   5.353   4.913   2.333 -0.0500 -0.5356  0.3081
25329SOL    HW177438   5.447   4.913   2.348  0.4245  2.4356 -1.8085
25329SOL    HW277439   5.316   4.956   2.410  0.5943  0.3040  0.1587
25330SOL     OW77440   8.053   8.028   0.761  0.0336  0.1015  0.0129
25330SOL    HW177441   7.987   8.096   0.748 -0.5053 -0.0200  1.8581
25330SOL    HW277442   8.029   7.958   0.700  0.0195  1.1376 -1.2007
25331SOL     OW77443   1.504   4.046   2.704 -0.2644  0.6294  0.6632
25331SOL    HW177444   1.446   3.977   2.737 -0.2826 -0.1861 -1.0079
25331SOL    HW277445   1.478   4.058   2.613  3.4822 -1.2507 -0.8767
25332SOL     OW77446   3.845   2.662   8.930 -0.2220 -0.0197  0.4923
25332SOL    HW177447   3.778   2.650   8.862  0.3621  0.6845 -0.2302
25332SOL    HW277448   3.820   2.743   8.974  0.2241  0.3272  0.1208
25333SOL     OW77449   1.065   5.530   1.010  0.1452 -0.2004  0.4142
25333SOL    HW177450   1.134   5.480   1.053  0.2271  0.7387  1.4136
25333SOL    HW277451   1.092   5.622   1.019  0.1479  0.0550 -1.6276
25334SOL     OW77452   9.116   7.931   0.057  0.4435  0.2737  0.1021
25334SOL    HW177453   9.207   7.960   0.060 -0.0256  1.7724  0.4336
25334SOL    HW277454   9.086   7.955  -0.031 -0.0115  1.0362  0.4559
25335SOL     OW77455   8.368   6.759   0.356 -0.1577  0.2298 -0.4589
25335SOL    HW177456   8.328   6.673   0.366  2.5557 -1.0753 -0.0144
25335SOL    HW277457   8.309   6.806   0.298 -0.4568 -2.8434 -2.9069
25336SOL     OW77458   0.331   8.368   8.970  0.3302  0.1371  0.6529
25336SOL    HW177459   0.253   8.332   8.928  0.2076  1.3474 -0.2382
25336SOL    HW277460   0.300   8.400   9.055 -0.2352  0.8756  0.1869
25337SOL     OW77461   6.864   2.048   6.018  0.1419  0.1331  0.6880
25337SOL    HW177462   6.808   2.126   6.018  1.9673  1.5269  1.6795
25337SOL    HW277463   6.803   1.975   6.029 -1.7011  1.3149 -0.8418
25338SOL     OW77464   4.130   7.298   6.384 -0.2697  0.0558 -0.0337
25338SOL    HW177465   4.204   7.347   6.420  0.2205 -0.2614 -0.5755
25338SOL    HW277466   4.083   7.361   6.329 -0.1047  0.1330 -0.0865
25339SOL     OW77467   3.405   2.274   8.908  1.1743 -0.1133 -0.0753
25339SOL    HW177468   3.424   2.180   8.901 -2.1664 -0.8162 -1.3385
25339SOL    HW277469   3.412   2.307   8.819 -0.2950  0.2072 -0.0988
25340SOL     OW77470   2.128   5.126   4.623 -0.3055  0.3877 -0.0105
25340SOL    HW177471   2.064   5.157   4.559  0.4778  1.1757 -0.4361
25340SOL    HW277472   2.112   5.180   4.701  0.4300  1.2357 -0.4293
25341SOL     OW77473   6.930   3.697   8.446 -0.2443 -0.9105 -0.4234
25341SOL    HW177474   6.907   3.761   8.379  1.1627 -0.0748 -0.1462
25341SOL    HW277475   6.863   3.629   8.439 -2.4020  1.0895 -0.0244
25342SOL     OW77476   7.363   6.079   5.230 -0.1419 -0.3853  0.1200
25342SOL    HW177477   7.364   6.088   5.134 -0.6398 -1.6659 -0.0242
25342SOL    HW277478   7.358   6.169   5.262  2.5327  0.2701 -0.9771
25343SOL     OW77479   3.175   7.951   5.942 -0.5870 -0.1067 -0.6915
25343SOL    HW177480   3.153   7.858   5.942 -1.8618  0.1502 -1.9958
25343SOL    HW277481   3.134   7.985   5.862 -0.8532  1.7329  0.1787
25344SOL     OW77482   8.004   0.194   7.768 -0.2198  0.3288 -0.7035
25344SOL    HW177483   7.967   0.199   7.680  0.0904 -2.1792 -1.0564
25344SOL    HW277484   8.061   0.117   7.766  0.3848  0.6434  1.4842
25345SOL     OW77485   7.235   0.351   8.442  0.0137  0.0919 -0.5020
25345SOL    HW177486   7.323   0.385   8.456 -0.3259  0.2909  1.3690
25345SOL    HW277487   7.191   0.418   8.390  0.7753  0.2730 -0.9227
25346SOL     OW77488   8.915   7.123   4.958  0.0143  0.0044  0.5897
25346SOL    HW177489   8.931   7.059   4.888 -1.0989 -0.1424  0.4452
25346SOL    HW277490   9.001   7.160   4.977  1.0735 -2.9193  2.0310
25347SOL     OW77491   5.581   0.880   3.630  0.5340 -0.6339 -0.1111
25347SOL    HW177492   5.545   0.900   3.716  0.8398  0.4620 -0.2195
25347SOL    HW277493   5.667   0.843   3.648 -0.1506 -2.2235  0.1034
25348SOL     OW77494   3.659   0.774   0.395  0.2333  0.4056  0.6494
25348SOL    HW177495   3.647   0.710   0.465 -0.0454  1.4552  1.5904
25348SOL    HW277496   3.657   0.722   0.314  1.0624 -0.8839  1.4332
25349SOL     OW77497   1.492   0.110   5.095 -0.5854 -0.0882 -0.2161
25349SOL    HW177498   1.582   0.104   5.127 -0.0365  1.0205 -1.4596
25349SOL    HW277499   1.452   0.027   5.120  0.9879 -0.8897 -0.2489
25350SOL     OW77500   1.274   4.519   7.718  0.5532  0.0039  0.0138
25350SOL    HW177501   1.224   4.599   7.704 -1.1458 -1.0517 -0.2227
25350SOL    HW277502   1.295   4.489   7.629  0.5397 -0.1873  0.0744
25351SOL     OW77503   1.354   4.315   4.651  0.6969 -0.1055 -0.2044
25351SOL    HW177504   1.293   4.308   4.724  0.0185  0.3214 -0.7239
25351SOL    HW277505   1.377   4.408   4.647 -0.3239  0.1255 -1.3629
25352SOL     OW77506   1.688   0.244   1.273  0.7127 -0.4358  0.5189
25352SOL    HW177507   1.762   0.298   1.301 -0.3609  0.1619  2.3632
25352SOL    HW277508   1.620   0.307   1.248  0.5067 -0.9736 -0.3475
25353SOL     OW77509   1.058   6.610   7.878  0.1878 -0.2614  0.1360
25353SOL    HW177510   1.043   6.687   7.822  1.1550  1.0574  1.6117
25353SOL    HW277511   1.125   6.560   7.831 -0.8317 -0.5209 -1.1016
25354SOL     OW77512   3.520   2.836   0.069  0.1636 -0.6949  0.5754
25354SOL    HW177513   3.525   2.881  -0.016 -1.9916  0.6221  1.0897
25354SOL    HW277514   3.509   2.744   0.046 -0.9540 -0.2922 -0.6040
25355SOL     OW77515   2.356   6.594   6.154  0.2054 -0.7315  0.4984
25355SOL    HW177516   2.451   6.594   6.138 -0.0050 -1.5025 -0.8782
25355SOL    HW277517   2.341   6.513   6.203 -0.0991 -2.2863 -1.9754
25356SOL     OW77518   7.347   7.558   2.117  0.4111  0.7736  0.4855
25356SOL    HW177519   7.431   7.603   2.112  0.4105  0.7271  0.0188
25356SOL    HW277520   7.292   7.616   2.171  0.5272  1.1437  0.2090
25357SOL     OW77521   1.909   1.531   7.071  0.4209 -0.2041 -0.2885
25357SOL    HW177522   1.985   1.477   7.095  0.7187  0.4145  0.1750
25357SOL    HW277523   1.837   1.492   7.119  0.5857 -0.3489 -0.1548
25358SOL     OW77524   0.691   2.058   5.809 -0.3479  0.3578 -0.3941
25358SOL    HW177525   0.648   2.142   5.825  0.5351  0.8017 -0.3259
25358SOL    HW277526   0.764   2.056   5.871 -1.6631 -1.4454  1.2095
25359SOL     OW77527   2.269   0.289   8.281  0.1588  0.1721 -0.1793
25359SOL    HW177528   2.242   0.379   8.300  0.3399 -0.0728  1.3765
25359SOL    HW277529   2.188   0.238   8.286  0.2144  0.0994 -0.0166
25360SOL     OW77530   1.335   8.184   8.168  0.7279  0.5422  0.4619
25360SOL    HW177531   1.321   8.096   8.133 -0.2802  1.0138 -0.3792
25360SOL    HW277532   1.429   8.198   8.161  0.6096  0.6301 -2.2416
25361SOL     OW77533   6.255   7.859   7.568 -0.7494 -0.7685  0.1643
25361SOL    HW177534   6.308   7.794   7.523  0.0559 -0.9237  1.2876
25361SOL    HW277535   6.210   7.810   7.637 -0.9295 -0.3187  0.3756
25362SOL     OW77536   6.817   1.544   6.120 -0.3007 -0.2096 -0.2131
25362SOL    HW177537   6.772   1.505   6.045 -0.8484 -0.2730  0.1370
25362SOL    HW277538   6.772   1.506   6.196  0.1639 -0.0516  0.1443
25363SOL     OW77539   2.214   2.394   2.747 -0.9630 -0.2540 -0.3046
25363SOL    HW177540   2.225   2.329   2.678  0.6411 -0.0952 -0.2416
25363SOL    HW277541   2.166   2.349   2.816 -1.6901 -0.7241 -1.0935
25364SOL     OW77542   7.727   7.863   4.755  0.3015  0.3408 -0.5032
25364SOL    HW177543   7.737   7.937   4.815 -1.5971  1.1657 -1.1536
25364SOL    HW277544   7.658   7.810   4.794  0.0135  0.1553 -1.2548
25365SOL     OW77545   5.682   8.566   5.030  0.3330  0.2954 -0.2932
25365SOL    HW177546   5.674   8.638   4.968 -2.1804 -0.7775 -1.3517
25365SOL    HW277547   5.697   8.608   5.114  3.8398  1.8142 -1.4788
25366SOL     OW77548   8.727   3.506   1.195  0.5848 -0.4572  0.0282
25366SOL    HW177549   8.676   3.436   1.235 -0.0068 -0.2830 -0.4092
25366SOL    HW277550   8.715   3.581   1.252  0.5314 -0.4762  0.0414
25367SOL     OW77551   2.166   1.405   5.286 -0.3432 -0.3659  0.2894
25367SOL    HW177552   2.152   1.317   5.323 -1.5515 -0.0800  0.5652
25367SOL    HW277553   2.235   1.393   5.221  0.0611 -1.3675  0.8759
25368SOL     OW77554   7.036   0.089   2.726 -0.3635  0.3947 -0.0722
25368SOL    HW177555   7.021   0.041   2.808  1.3691  0.5478  0.3708
25368SOL    HW277556   7.090   0.163   2.751 -0.2278  0.7301 -1.2961
25369SOL     OW77557   2.603   1.527   6.035  0.0471 -0.1673 -0.1377
25369SOL    HW177558   2.520   1.481   6.051  0.2266 -0.6284 -0.5201
25369SOL    HW277559   2.597   1.606   6.090 -0.2891 -0.6125  0.4807
25370SOL     OW77560   0.609   8.156   4.219  0.8498  0.3699  0.1297
25370SOL    HW177561   0.626   8.100   4.144 -2.1047 -0.2160 -0.2209
25370SOL    HW277562   0.566   8.233   4.183  0.9084  0.8534  1.0464
25371SOL     OW77563   2.975   3.043   6.700 -0.2354  0.0212  0.0146
25371SOL    HW177564   2.917   3.031   6.625  0.3586 -1.1596 -0.2773
25371SOL    HW277565   3.058   3.073   6.662  0.0999 -0.6789  0.1729
25372SOL     OW77566   3.523   6.089   8.531 -0.1823 -0.0779  0.5676
25372SOL    HW177567   3.465   6.036   8.476 -1.6806  1.7279  0.3402
25372SOL    HW277568   3.597   6.030   8.550  0.1147 -1.0241 -2.7952
25373SOL     OW77569   4.493   8.211   2.875 -0.2904  0.2679  0.1392
25373SOL    HW177570   4.477   8.126   2.918 -0.7486 -0.0231 -0.5904
25373SOL    HW277571   4.421   8.266   2.905 -0.3640  0.1994  0.0890
25374SOL     OW77572   9.168   5.697   6.886 -0.1424 -0.4086  0.1337
25374SOL    HW177573   9.144   5.604   6.892  0.4496 -0.4977  1.5617
25374SOL    HW277574   9.263   5.697   6.892 -0.2167  0.4042  3.0730
25375SOL     OW77575   3.361   5.805   8.102 -0.0473 -0.1935  0.1291
25375SOL    HW177576   3.451   5.803   8.070 -0.8510 -1.2542 -2.3035
25375SOL    HW277577   3.325   5.720   8.077 -2.1905  0.8337 -0.4755
25376SOL     OW77578   3.782   7.377   7.084  0.0620  0.0368  0.3804
25376SOL    HW177579   3.808   7.329   7.162 -1.3045 -0.0353  0.8140
25376SOL    HW277580   3.729   7.315   7.034  0.4014  0.2865 -0.3061
25377SOL     OW77581   0.916   8.301   4.225 -0.1579  0.1788  0.0379
25377SOL    HW177582   0.823   8.308   4.249 -0.1436 -0.8230  0.4401
25377SOL    HW277583   0.961   8.291   4.309  0.0783 -1.5156 -0.2556
25378SOL     OW77584   3.931   7.421   5.482  0.3357 -0.4189 -0.1695
25378SOL    HW177585   4.011   7.469   5.464 -1.6208  3.4447  0.3521
25378SOL    HW277586   3.880   7.427   5.401 -0.6687 -0.0055  0.4668
25379SOL     OW77587   2.952   8.215   3.546  0.0540 -0.3483 -0.0941
25379SOL    HW177588   2.923   8.134   3.588  1.5265  0.0896  1.9491
25379SOL    HW277589   2.956   8.279   3.618  2.0969  0.6281 -1.0035
25380SOL     OW77590   6.219   4.372   7.848 -0.5207 -0.1964  0.5704
25380SOL    HW177591   6.221   4.276   7.858  1.9768 -0.2087  0.4938
25380SOL    HW277592   6.279   4.404   7.916 -1.8433  1.4011  1.0460
25381SOL     OW77593   3.623   0.642   7.780  0.1295  0.1901  0.0420
25381SOL    HW177594   3.654   0.712   7.836  2.4849 -0.9220  0.2530
25381SOL    HW277595   3.631   0.677   7.691  1.1944  0.2512  0.1505
25382SOL     OW77596   5.173   5.941   8.444 -0.0937  0.1101  0.5955
25382SOL    HW177597   5.142   6.019   8.400  0.9411 -0.3895 -1.1145
25382SOL    HW277598   5.099   5.880   8.441 -0.6057  0.6914  1.1465
25383SOL     OW77599   8.592   6.304   5.669  0.5034  0.2532 -0.1516
25383SOL    HW177600   8.618   6.391   5.639  0.3764  1.1505  2.1564
25383SOL    HW277601   8.653   6.244   5.625  1.2052  1.5833 -1.0487
25384SOL     OW77602   8.741   3.723   2.926  0.3849  0.2301  0.4861
25384SOL    HW177603   8.713   3.805   2.967  1.1570  2.2782 -2.7074
25384SOL    HW277604   8.659   3.676   2.908 -0.1243  0.6157  1.6875
25385SOL     OW77605   8.656   2.251   3.429  0.0090 -0.0922  0.1772
25385SOL    HW177606   8.703   2.176   3.392 -0.2116 -1.1160  1.9043
25385SOL    HW277607   8.723   2.320   3.435  0.3224 -0.2723 -1.0008
25386SOL     OW77608   5.223   8.720   4.359  0.0103  0.1736 -0.0619
25386SOL    HW177609   5.313   8.703   4.385 -0.0366 -1.8832 -1.0463
25386SOL    HW277610   5.229   8.748   4.267 -0.3130  1.0248  0.1591
25387SOL     OW77611   8.256   2.277   1.968 -0.8326 -0.4511 -0.0741
25387SOL    HW177612   8.254   2.372   1.972 -1.1477 -0.4715  0.2975
25387SOL    HW277613   8.220   2.256   1.881  0.3451 -0.2012 -0.6331
25388SOL     OW77614   5.939   1.066   5.272  0.0435 -0.4901 -0.6493
25388SOL    HW177615   6.025   1.060   5.229  0.4747  0.4766  0.0631
25388SOL    HW277616   5.928   1.158   5.292 -1.9603 -0.2998 -2.2884
25389SOL     OW77617   0.978   0.103   0.873  0.1241  0.5124 -0.3558
25389SOL    HW177618   0.916   0.041   0.835  0.4593 -0.4599  0.6196
25389SOL    HW277619   1.043   0.048   0.917  0.7572  1.5463  0.0476
25390SOL     OW77620   5.145   3.821   3.457  0.0647 -0.1890  0.4621
25390SOL    HW177621   5.132   3.828   3.362 -0.2646 -0.6767  0.4637
25390SOL    HW277622   5.073   3.872   3.494  0.7369  0.7968  0.4546
25391SOL     OW77623   5.884   6.722   3.828  0.0681 -0.0104 -0.4079
25391SOL    HW177624   5.887   6.779   3.751  0.8423 -0.6711 -0.8769
25391SOL    HW277625   5.917   6.776   3.899  1.8516 -0.1752 -1.0570
25392SOL     OW77626   4.804   2.248   8.657  0.1279 -0.1356 -0.4667
25392SOL    HW177627   4.720   2.285   8.628  0.2817 -0.1292 -0.9175
25392SOL    HW277628   4.870   2.297   8.607  0.3196 -1.2198 -1.3114
25393SOL     OW77629   7.170   8.255   8.517 -0.0127  0.2324  0.5096
25393SOL    HW177630   7.255   8.291   8.490  0.4063 -0.3575  1.0005
25393SOL    HW277631   7.114   8.265   8.440  0.3351  1.1326  0.3556
25394SOL     OW77632   3.102   1.758   7.575  0.0336 -0.1517 -0.1132
25394SOL    HW177633   3.129   1.841   7.614 -0.9675 -1.3001  3.4758
25394SOL    HW277634   3.174   1.734   7.516  1.0386  2.4742 -0.0786
25395SOL     OW77635   7.175   1.042   8.153 -0.0381  0.0863 -0.5249
25395SOL    HW177636   7.099   1.091   8.121  0.3681  0.0036 -1.6459
25395SOL    HW277637   7.246   1.106   8.155  0.1712 -0.1401 -0.7087
25396SOL     OW77638   0.942   5.723   0.492 -0.5987 -0.3005 -0.1273
25396SOL    HW177639   0.850   5.751   0.494 -0.3804  0.4524 -0.4735
25396SOL    HW277640   0.956   5.681   0.577 -0.3235  2.6560  1.4132
25397SOL     OW77641   7.366   3.160   1.905  0.1731  0.3088  0.4417
25397SOL    HW177642   7.364   3.075   1.949  1.6245  0.2949  0.5187
25397SOL    HW277643   7.381   3.223   1.976 -1.8230  0.7575  0.5159
25398SOL     OW77644   0.399   4.848   6.843 -0.1296  0.2273  1.0179
25398SOL    HW177645   0.386   4.771   6.787 -1.2892 -0.5575  2.3104
25398SOL    HW277646   0.320   4.901   6.830  0.2275  0.7330  0.8726
25399SOL     OW77647   1.850   3.196   7.768  0.2156 -0.4333 -0.1694
25399SOL    HW177648   1.904   3.221   7.692 -1.9704  2.6099 -0.9527
25399SOL    HW277649   1.912   3.161   7.831  2.3702 -1.6616 -2.7558
25400SOL     OW77650   0.805   4.325   1.294  0.4588  0.5726 -0.2166
25400SOL    HW177651   0.876   4.384   1.270  1.5518  0.2502  1.9427
25400SOL    HW277652   0.758   4.370   1.364  0.0949 -0.2811  0.1130
25401SOL     OW77653   7.750   7.383   1.840 -0.4544  0.0961  0.6446
25401SOL    HW177654   7.703   7.300   1.849 -0.8387  0.0546 -1.2356
25401SOL    HW277655   7.797   7.374   1.757  0.0847  1.4870  0.7750
25402SOL     OW77656   2.694   4.810   7.333  0.3682  0.1888 -0.4451
25402SOL    HW177657   2.642   4.779   7.259 -1.4643 -1.3613  1.3884
25402SOL    HW277658   2.768   4.749   7.337  0.2853  0.0632 -0.7602
25403SOL     OW77659   2.931   5.705   7.683 -0.0106 -0.8377  0.2383
25403SOL    HW177660   3.018   5.726   7.649 -0.5376 -0.7023 -1.1241
25403SOL    HW277661   2.881   5.679   7.605 -1.0921 -1.2464  1.0423
25404SOL     OW77662   5.658   3.162   9.081  0.1571  0.1660  0.4717
25404SOL    HW177663   5.698   3.116   9.155  2.1121  1.8758  0.5966
25404SOL    HW277664   5.606   3.231   9.121 -0.7784 -0.4055  0.2604
25405SOL     OW77665   8.197   2.970   8.578 -0.6927  0.0514  0.5360
25405SOL    HW177666   8.246   3.026   8.637 -2.1445  0.8020  1.0583
25405SOL    HW277667   8.109   3.006   8.577 -1.0352 -0.7229 -1.0865
25406SOL     OW77668   7.302   0.107   6.760 -0.3842  0.5591 -0.0305
25406SOL    HW177669   7.353   0.069   6.689  0.2436  1.0624  0.1394
25406SOL    HW277670   7.285   0.197   6.731 -0.9276  0.4824  0.0458
25407SOL     OW77671   7.735   2.950   6.425 -0.5648 -0.4605  0.2797
25407SOL    HW177672   7.669   3.009   6.461 -0.4368 -0.2453  0.1654
25407SOL    HW277673   7.693   2.864   6.427 -1.1708 -0.2069 -0.5641
25408SOL     OW77674   6.322   3.938   2.465 -0.2681 -0.0562 -0.1669
25408SOL    HW177675   6.245   3.902   2.421 -1.2210 -1.1078  2.1647
25408SOL    HW277676   6.302   4.031   2.476 -2.1330 -0.6062  1.9598
25409SOL     OW77677   8.188   6.490   4.589 -0.2353 -0.4249  0.0152
25409SOL    HW177678   8.280   6.515   4.585 -0.7615  1.5045 -1.2095
25409SOL    HW277679   8.188   6.396   4.572  1.5392 -0.6046  0.7551
25410SOL     OW77680   0.672   5.768   0.483 -0.3919  0.3282 -0.6440
25410SOL    HW177681   0.652   5.711   0.557  0.2489  1.7988  0.7380
25410SOL    HW277682   0.660   5.713   0.406  0.9417 -1.8787  0.6118
25411SOL     OW77683   4.194   2.610   5.322 -0.1326  0.1818 -0.2381
25411SOL    HW177684   4.289   2.607   5.335  0.2154 -1.8672 -2.4150
25411SOL    HW277685   4.159   2.552   5.389 -0.0177  1.7698  1.2617
25412SOL     OW77686   5.173   6.783   7.289 -0.3318  0.6066  0.2115
25412SOL    HW177687   5.129   6.864   7.263 -2.1176 -0.0303  1.0729
25412SOL    HW277688   5.191   6.795   7.382  0.3370  0.4111  0.1107
25413SOL     OW77689   7.982   5.769   7.072 -0.0609 -0.2666  0.4855
25413SOL    HW177690   8.036   5.704   7.027 -0.8466 -1.2729  0.9413
25413SOL    HW277691   8.044   5.826   7.117  0.6706 -0.1851 -0.6112
25414SOL     OW77692   0.752   8.934   7.879 -0.2514  0.2747  0.2192
25414SOL    HW177693   0.807   9.004   7.914  1.2452 -0.0645 -1.3593
25414SOL    HW277694   0.676   8.932   7.938  1.2990  0.8891  2.3456
25415SOL     OW77695   8.295   3.445   6.228  0.5181  0.0319  0.0833
25415SOL    HW177696   8.291   3.530   6.271 -0.4348  1.5090 -2.6303
25415SOL    HW277697   8.378   3.447   6.180  1.1960 -1.2389  1.1346
25416SOL     OW77698   5.126   7.456   6.256  0.0157  0.1045 -0.3747
25416SOL    HW177699   5.201   7.398   6.273 -0.0632 -0.8216 -2.8295
25416SOL    HW277700   5.052   7.398   6.244 -0.8324  0.9451  0.5850
25417SOL     OW77701   8.444   1.748   4.229  0.2987 -0.0767  0.4039
25417SOL    HW177702   8.410   1.800   4.302  0.6939 -0.3358  0.7739
25417SOL    HW277703   8.532   1.782   4.214  0.6398 -0.7656  0.7857
25418SOL     OW77704   8.553   3.853   6.078 -0.2114  0.0193  0.4403
25418SOL    HW177705   8.618   3.850   6.148 -0.8131  0.8037  1.0597
25418SOL    HW277706   8.582   3.787   6.015  0.4917 -0.5140  1.2976
25419SOL     OW77707   5.811   3.366   6.141 -0.4715 -0.3301  0.6560
25419SOL    HW177708   5.741   3.310   6.176  0.3333 -1.6832  0.1817
25419SOL    HW277709   5.859   3.395   6.219  0.5406 -2.2874  0.8095
25420SOL     OW77710   0.569   0.471   8.113  0.7627  0.8443 -0.2878
25420SOL    HW177711   0.657   0.476   8.151  1.1063  2.0886 -1.1859
25420SOL    HW277712   0.535   0.561   8.119 -1.4205 -0.0193  2.1940
25421SOL     OW77713   8.472   6.248   4.579 -0.1889 -0.2337  0.5139
25421SOL    HW177714   8.463   6.227   4.672  1.1647 -3.3365  0.0712
25421SOL    HW277715   8.386   6.229   4.541 -0.0287 -1.5768  0.7655
25422SOL     OW77716   3.796   7.276   9.135 -0.4108  0.6119  0.5821
25422SOL    HW177717   3.830   7.236   9.215  0.9075  1.6960  0.5912
25422SOL    HW277718   3.853   7.243   9.066 -1.1451  0.1905  0.1667
25423SOL     OW77719   0.756   2.054   7.073 -0.1639  0.2403 -0.0767
25423SOL    HW177720   0.673   2.096   7.050  0.5266  0.9524 -1.3963
25423SOL    HW277721   0.751   1.968   7.032  0.5628  1.0535 -1.9584
25424SOL     OW77722   4.315   4.943   1.682 -0.4753 -0.0335  0.2964
25424SOL    HW177723   4.270   4.942   1.766 -2.1781  0.2978 -0.5617
25424SOL    HW277724   4.371   4.866   1.684  0.3994  0.5884  2.1619
25425SOL     OW77725   0.272   4.223   0.928 -0.3316  0.1996  0.0125
25425SOL    HW177726   0.330   4.289   0.965  0.3537  0.3503 -1.2473
25425SOL    HW277727   0.311   4.203   0.843 -2.5949  0.9689 -1.3009
25426SOL     OW77728   5.864   2.932   4.958 -0.7894  0.0457  0.0846
25426SOL    HW177729   5.889   2.847   4.924 -0.8848  0.1365 -0.2139
25426SOL    HW277730   5.801   2.966   4.895  0.6498  1.1535 -0.8301
25427SOL     OW77731   3.294   6.231   5.404  0.0118  0.2808 -0.4541
25427SOL    HW177732   3.369   6.224   5.345 -0.1885 -0.0110 -0.6765
25427SOL    HW277733   3.236   6.160   5.377  0.4412 -0.5942  0.8536
25428SOL     OW77734   1.709   9.170   3.185  0.2116 -0.0555 -0.1336
25428SOL    HW177735   1.721   9.108   3.113  1.8296  0.6499 -0.4986
25428SOL    HW277736   1.718   9.256   3.144 -1.0264  0.4287  0.5472
25429SOL     OW77737   6.728   8.275   0.623  0.2110 -0.6787  0.0628
25429SOL    HW177738   6.802   8.239   0.575  0.4812  0.7196 -0.6313
25429SOL    HW277739   6.764   8.350   0.671 -0.4598 -0.8724  0.9066
25430SOL     OW77740   3.710   7.070   8.849 -0.5377  0.0621 -0.1645
25430SOL    HW177741   3.734   6.989   8.804 -1.3314 -0.2937  0.0435
25430SOL    HW277742   3.693   7.133   8.779  2.8723  0.9532 -0.3769
25431SOL     OW77743   3.357   9.188   3.387 -0.2733 -0.2227  0.0050
25431SOL    HW177744   3.412   9.113   3.407 -1.0108 -0.5903  0.7106
25431SOL    HW277745   3.270   9.163   3.416 -0.2750  1.4403  1.6135
25432SOL     OW77746   7.447   8.113   1.505 -0.3651  0.2844  0.5200
25432SOL    HW177747   7.476   8.128   1.595  1.4491 -0.0503  0.0354
25432SOL    HW277748   7.353   8.132   1.506 -0.7411 -1.2807  2.8490
25433SOL     OW77749   3.425   8.046   8.240  1.4857  0.6302  0.2092
25433SOL    HW177750   3.335   8.022   8.220  1.0570  0.9060  1.6336
25433SOL    HW277751   3.422   8.140   8.256  1.6709  0.4053  1.8211
25434SOL     OW77752   7.693   1.838   3.126  0.1850  0.3273  0.2076
25434SOL    HW177753   7.600   1.851   3.146  0.0112  0.2283 -0.5019
25434SOL    HW277754   7.716   1.757   3.172 -0.2029  0.0941 -0.0031
25435SOL     OW77755   7.230   6.500   8.677 -0.0238  0.3658  0.6402
25435SOL    HW177756   7.199   6.589   8.691  0.0710  0.4581  0.2821
25435SOL    HW277757   7.292   6.484   8.748  0.2545  0.7263  0.4799
25436SOL     OW77758   6.354   0.514   4.510 -0.3506 -0.1059 -0.6776
25436SOL    HW177759   6.278   0.541   4.561  0.3292 -0.2203  0.4439
25436SOL    HW277760   6.357   0.419   4.520  0.4889 -0.0084  0.1134
25437SOL     OW77761   5.124   3.539   9.185 -0.1173 -0.6440 -0.0708
25437SOL    HW177762   5.185   3.478   9.143 -1.0421 -0.0655 -2.4571
25437SOL    HW277763   5.058   3.557   9.118 -2.1080 -0.0933  1.8987
25438SOL     OW77764   2.616   9.076   1.024  0.2467 -0.0192 -0.4231
25438SOL    HW177765   2.548   9.082   0.958  0.2163  1.7031 -0.2934
25438SOL    HW277766   2.573   9.103   1.105  0.1913 -2.4288  0.4233
25439SOL     OW77767   0.323   4.310   5.218 -0.1730  0.2928  0.2316
25439SOL    HW177768   0.292   4.400   5.228 -1.5191 -0.0099 -0.9035
25439SOL    HW277769   0.351   4.304   5.127  1.2818 -0.0689  0.6658
25440SOL     OW77770   5.994   0.272   4.644  0.2310 -0.7599 -0.4669
25440SOL    HW177771   5.999   0.188   4.599 -0.0544 -1.6675  1.0946
25440SOL    HW277772   5.992   0.249   4.737  0.5779  1.0014  0.0213
25441SOL     OW77773   8.149   4.417   8.569 -0.0506  0.5534  0.2922
25441SOL    HW177774   8.096   4.357   8.516  0.2509  0.5404 -0.0032
25441SOL    HW277775   8.187   4.477   8.505  0.7725  0.1896  0.4344
25442SOL     OW77776   8.304   4.798   2.223  0.6958  0.1634 -0.4312
25442SOL    HW177777   8.351   4.881   2.233 -1.5197  1.4852 -0.3480
25442SOL    HW277778   8.304   4.760   2.311  4.4466 -1.6570 -0.9821
25443SOL     OW77779   3.551   6.780   0.054 -0.2104 -0.1962 -0.4012
25443SOL    HW177780   3.646   6.782   0.058 -0.2192  1.6328 -0.4253
25443SOL    HW277781   3.531   6.711  -0.010  1.0031 -1.9822  1.0659
25444SOL     OW77782   8.688   6.365   4.408 -0.0767  0.4057 -0.0710
25444SOL    HW177783   8.613   6.337   4.459  1.2692  0.1811  1.8932
25444SOL    HW277784   8.747   6.290   4.408  0.0155  0.4343 -1.9218
25445SOL     OW77785   6.383   6.027   5.076  0.2132  0.0846 -0.4134
25445SOL    HW177786   6.395   6.068   5.162  0.2292 -1.2199  0.2259
25445SOL    HW277787   6.300   5.981   5.082  0.6315 -0.7503 -0.7815
25446SOL     OW77788   5.927   0.047   0.427  0.0260 -0.5290  0.3439
25446SOL    HW177789   5.911  -0.031   0.481  1.7778  0.3686  2.3144
25446SOL    HW277790   6.022   0.052   0.421 -0.0713  1.2728 -0.0084
25447SOL     OW77791   1.705   7.600   4.981 -0.4339 -0.4169  0.1011
25447SOL    HW177792   1.643   7.662   5.020 -1.1331  0.9506 -2.9439
25447SOL    HW277793   1.791   7.638   5.000 -0.8208  1.0936 -0.9998
25448SOL     OW77794   8.640   3.141   6.720 -0.4157 -0.4122  0.4438
25448SOL    HW177795   8.707   3.206   6.741 -1.3177 -0.0437  2.3304
25448SOL    HW277796   8.577   3.188   6.665  0.3707 -0.5117 -0.5741
25449SOL     OW77797   5.039   1.793   5.420  0.5292  0.1456  0.2196
25449SOL    HW177798   5.035   1.888   5.431 -0.5665  0.0939  0.3636
25449SOL    HW277799   5.061   1.781   5.327  1.4401  0.5315  0.3722
25450SOL     OW77800   4.582   6.203   8.309  0.3986  0.1274  0.5247
25450SOL    HW177801   4.524   6.152   8.253 -0.5488  1.6131  0.0807
25450SOL    HW277802   4.525   6.234   8.380  1.4311 -1.1648  1.9774
25451SOL     OW77803   2.867   5.993   2.027 -0.0473 -0.0361 -0.5441
25451SOL    HW177804   2.925   5.924   2.061  0.9641  0.6452 -0.8284
25451SOL    HW277805   2.879   6.066   2.088 -0.8231  0.0223 -0.4581
25452SOL     OW77806   6.285   5.062   0.882 -0.2701 -0.9735  0.0098
25452SOL    HW177807   6.347   5.135   0.879  0.3613 -1.4124  1.6514
25452SOL    HW277808   6.203   5.099   0.848  0.7073 -0.2248 -1.6439
25453SOL     OW77809   0.669   6.100   6.951  0.5467  0.2395 -0.1283
25453SOL    HW177810   0.698   6.043   6.879  0.1028  0.1655 -0.2504
25453SOL    HW277811   0.679   6.189   6.917 -0.3660  0.1866 -0.5591
25454SOL     OW77812   3.796   6.028   7.161 -0.2076  0.2829 -0.1911
25454SOL    HW177813   3.708   5.990   7.160 -0.3886  0.6590  0.4604
25454SOL    HW277814   3.810   6.054   7.252  0.2824  0.9175 -0.4338
25455SOL     OW77815   7.342   3.518   3.744  0.2500  0.1754  0.7108
25455SOL    HW177816   7.394   3.588   3.784  2.4997 -0.8483 -0.2705
25455SOL    HW277817   7.385   3.437   3.772  0.0933 -0.6626 -1.3188
25456SOL     OW77818   0.854   5.645   7.457 -0.8583 -0.0085  0.6934
25456SOL    HW177819   0.895   5.610   7.378 -3.2566 -0.2113 -0.5423
25456SOL    HW277820   0.831   5.568   7.508 -0.5997  0.0555  0.9060
25457SOL     OW77821   5.638   5.635   4.285  0.2262 -0.6240 -0.2041
25457SOL    HW177822   5.574   5.643   4.214  0.2565 -0.5537 -0.2237
25457SOL    HW277823   5.717   5.675   4.249 -0.1745  0.7441  0.4120
25458SOL     OW77824   5.161   4.944   9.155  0.0486  0.2101  0.7694
25458SOL    HW177825   5.241   4.996   9.165 -0.2036  0.5052  1.2949
25458SOL    HW277826   5.154   4.895   9.238  1.4199 -2.3100 -0.4606
25459SOL     OW77827   3.133   6.551   5.201  0.0879 -0.5301  0.5153
25459SOL    HW177828   3.094   6.638   5.186  0.9611 -0.3360 -0.8630
25459SOL    HW277829   3.148   6.517   5.113  0.9416 -1.5359  1.0307
25460SOL     OW77830   7.770   7.122   0.774 -0.3168 -0.1361  0.1535
25460SOL    HW177831   7.811   7.053   0.721  0.0935  0.0789  0.1889
25460SOL    HW277832   7.700   7.157   0.718 -1.0855 -1.1369  0.4427
25461SOL     OW77833   5.382   6.803   2.561  0.4197  0.4820 -0.0233
25461SOL    HW177834   5.431   6.821   2.641 -0.6267  1.2509  0.4701
25461SOL    HW277835   5.413   6.870   2.500  0.1266  0.8479  0.2261
25462SOL     OW77836   0.393   4.789   3.287  0.1438 -0.1552  0.4602
25462SOL    HW177837   0.453   4.855   3.323  0.1041  0.3363 -0.3340
25462SOL    HW277838   0.325   4.841   3.242 -0.5492 -0.7166  0.8442
25463SOL     OW77839   8.901   7.367   0.497  0.1877  0.4562  0.0760
25463SOL    HW177840   8.901   7.326   0.411 -0.5575 -0.0080  0.2940
25463SOL    HW277841   8.876   7.458   0.481  0.0725  0.3759 -0.1966
25464SOL     OW77842   4.702   6.853   0.461 -0.1366 -0.2889 -0.1616
25464SOL    HW177843   4.694   6.900   0.378  0.3357  0.1119  0.0204
25464SOL    HW277844   4.617   6.808   0.471 -1.0438  1.4307  0.2230
25465SOL     OW77845   4.016   6.400   0.946 -0.0741  0.6106  0.2210
25465SOL    HW177846   4.022   6.404   0.851  0.4049  2.0069  0.2872
25465SOL    HW277847   3.926   6.426   0.966 -0.2670  0.0167  0.1458
25466SOL     OW77848   6.693   0.415   4.703  0.1662 -0.2135 -0.5645
25466SOL    HW177849   6.686   0.352   4.631  1.3833  0.4782 -1.3274
25466SOL    HW277850   6.668   0.499   4.663  1.2779  0.2511 -0.3121
25467SOL     OW77851   6.842   5.161   1.153  0.1816  0.0564 -0.3425
25467SOL    HW177852   6.846   5.111   1.071  0.2581  1.3647 -1.1711
25467SOL    HW277853   6.760   5.209   1.147  0.9164  1.3394 -0.3838
25468SOL     OW77854   0.521   3.584   0.953 -0.1024  0.0788 -0.3542
25468SOL    HW177855   0.444   3.640   0.967  0.6348  0.8618  0.7507
25468SOL    HW277856   0.594   3.636   0.985  0.8421 -0.8334 -0.9781
25469SOL     OW77857   0.146   8.695   6.151  0.0442 -0.0871  0.4098
25469SOL    HW177858   0.222   8.655   6.110 -1.2764 -1.5088 -0.7161
25469SOL    HW277859   0.092   8.622   6.181 -1.6672  0.8373 -0.2629
25470SOL     OW77860   5.215   1.677   6.071  0.2061 -0.5614  0.0630
25470SOL    HW177861   5.255   1.763   6.086 -1.7155  0.2828  0.6103
25470SOL    HW277862   5.198   1.643   6.159 -1.6369 -0.1922 -0.1038
25471SOL     OW77863   8.009   6.723   7.749 -0.5159 -0.3968 -0.0385
25471SOL    HW177864   8.053   6.692   7.828  0.8961  0.3455 -0.4878
25471SOL    HW277865   7.918   6.734   7.774 -0.2856 -1.1108  1.2062
25472SOL     OW77866   8.029   2.706   6.160  0.3268 -0.0008 -0.2113
25472SOL    HW177867   7.990   2.788   6.192  0.9890 -0.1863  1.1283
25472SOL    HW277868   8.100   2.735   6.102 -0.0589  0.3505 -0.5204
25473SOL     OW77869   5.284   9.062   3.275  0.4887  0.5435  0.0691
25473SOL    HW177870   5.261   9.048   3.367  2.5333  0.9281  0.6974
25473SOL    HW277871   5.229   9.000   3.227  1.5324 -1.9555  1.8218
25474SOL     OW77872   0.544   8.484   3.549  0.3419 -0.1801  0.1227
25474SOL    HW177873   0.621   8.537   3.531 -0.3295  0.2047 -1.9088
25474SOL    HW277874   0.471   8.535   3.515 -0.5052 -1.6479 -0.3576
25475SOL     OW77875   5.298   1.577   6.733  0.0502  0.2638 -0.1028
25475SOL    HW177876   5.299   1.535   6.647  0.5946 -1.0697  0.5302
25475SOL    HW277877   5.362   1.648   6.726  0.9352 -0.5455 -0.4655
25476SOL     OW77878   2.587   8.525   1.344  0.1188 -0.2315  0.1015
25476SOL    HW177879   2.578   8.434   1.370 -1.3834 -0.0943  0.1206
25476SOL    HW277880   2.625   8.521   1.256 -1.2745 -0.9551 -0.4989
25477SOL     OW77881   3.736   4.755   0.123  0.3043 -0.0405 -0.8947
25477SOL    HW177882   3.777   4.841   0.114 -2.1633  1.2779 -0.4526
25477SOL    HW277883   3.743   4.735   0.217 -0.9433  0.7270 -0.6059
25478SOL     OW77884   3.832   6.139   3.627 -0.6636 -0.3445 -0.1327
25478SOL    HW177885   3.768   6.132   3.557 -0.4876 -1.3398 -0.2053
25478SOL    HW277886   3.786   6.108   3.705 -0.2176 -1.2415 -0.2228
25479SOL     OW77887   1.094   7.527   6.070 -0.1521 -0.3760 -0.5509
25479SOL    HW177888   1.041   7.450   6.050 -0.4163  0.0524 -1.5627
25479SOL    HW277889   1.031   7.594   6.094  0.0832 -0.4816  0.4075
25480SOL     OW77890   1.531   8.917   6.672  0.4467 -0.3155 -0.3774
25480SOL    HW177891   1.596   8.875   6.615  1.6663  0.4055  0.4450
25480SOL    HW277892   1.514   8.852   6.741  1.3341  0.0244  0.1642
25481SOL     OW77893   3.360   1.885   6.846 -0.4500  0.2003 -0.0915
25481SOL    HW177894   3.371   1.973   6.882  0.3876  0.0344  0.0716
25481SOL    HW277895   3.282   1.892   6.791 -0.8329  0.8501  0.5140
25482SOL     OW77896   3.803   8.231   6.158 -0.2690 -0.0568  0.5317
25482SOL    HW177897   3.824   8.158   6.101 -0.1071  1.4672 -1.4656
25482SOL    HW277898   3.886   8.255   6.198 -0.3708 -1.0922  1.3963
25483SOL     OW77899   0.526   6.601   9.196 -0.3967 -0.1806  0.1324
25483SOL    HW177900   0.449   6.597   9.253  0.7653 -0.5533  1.7373
25483SOL    HW277901   0.517   6.525   9.139 -1.2287 -0.2011  0.2747
25484SOL     OW77902   7.778   0.238   7.316 -0.0691 -0.0973 -0.3574
25484SOL    HW177903   7.834   0.235   7.393 -0.8092  0.1171  0.1983
25484SOL    HW277904   7.834   0.208   7.244  1.2180  1.5850 -0.1030
25485SOL     OW77905   7.815   2.115   3.862 -0.2816 -0.3208  0.1499
25485SOL    HW177906   7.865   2.068   3.929 -1.6811 -0.9402  0.8025
25485SOL    HW277907   7.879   2.136   3.794  1.4340  1.2531  2.1119
25486SOL     OW77908   4.755   4.670   2.622 -0.1038 -0.6514 -0.2794
25486SOL    HW177909   4.677   4.631   2.662 -0.8925 -1.7509 -2.6665
25486SOL    HW277910   4.799   4.715   2.694 -1.8795 -1.6772  1.5717
25487SOL     OW77911   3.189   4.008   3.752  0.1379 -0.7684 -0.0587
25487SOL    HW177912   3.242   4.042   3.825 -0.1631  1.1245 -0.6555
25487SOL    HW277913   3.101   3.999   3.789  0.4373 -1.9631  0.3908
25488SOL     OW77914   4.399   6.798   0.222 -0.3386 -0.0063  0.0149
25488SOL    HW177915   4.493   6.811   0.204 -0.1989 -1.8121 -0.7947
25488SOL    HW277916   4.355   6.856   0.160  0.2320  0.5904  0.1543
25489SOL     OW77917   6.432   7.808   6.977  0.1207  0.3587 -0.4640
25489SOL    HW177918   6.356   7.860   7.003  0.0728  0.2536 -0.3886
25489SOL    HW277919   6.473   7.782   7.060 -0.1903 -0.2086 -0.4801
25490SOL     OW77920   1.941   1.137   0.074 -0.1248  0.0151  0.2919
25490SOL    HW177921   1.858   1.138   0.122  0.5858 -0.0794  1.5650
25490SOL    HW277922   1.965   1.229   0.067  0.3642 -0.0234  1.2279
25491SOL     OW77923   5.651   1.272   2.731  0.2621  0.4604 -0.1965
25491SOL    HW177924   5.677   1.327   2.657 -0.1349  0.5007 -0.3069
25491SOL    HW277925   5.701   1.191   2.720 -0.3924  0.1489 -0.9553
25492SOL     OW77926   0.969   2.729   7.218  0.0184  0.6794  0.1249
25492SOL    HW177927   1.006   2.642   7.202 -0.9030 -0.1659  2.2630
25492SOL    HW277928   1.043   2.783   7.244  0.1794 -0.3197  1.8552
25493SOL     OW77929   5.059   2.192   3.031 -0.3613  0.7702 -0.2364
25493SOL    HW177930   5.067   2.168   2.938  0.9233 -0.4339  0.1550
25493SOL    HW277931   5.078   2.286   3.033  1.5822  0.4427 -0.9799
25494SOL     OW77932   4.844   2.809   1.728  0.0304  0.4729  0.1850
25494SOL    HW177933   4.897   2.737   1.764 -0.8281 -0.2891 -0.0401
25494SOL    HW277934   4.853   2.880   1.792  1.5627  0.4884  0.0108
25495SOL     OW77935   5.991   3.668   2.819 -0.0617 -0.2630  0.3133
25495SOL    HW177936   6.005   3.583   2.860 -2.1347 -0.6510  0.3351
25495SOL    HW277937   6.075   3.689   2.778  0.8222 -1.7843  1.2592
25496SOL     OW77938   5.906   1.925   5.043 -0.4880  0.4060 -0.1957
25496SOL    HW177939   5.998   1.929   5.014 -0.3629  0.5390  0.2171
25496SOL    HW277940   5.859   1.891   4.967 -0.0266 -0.0993 -0.2618
25497SOL     OW77941   1.688   7.241   6.791  0.0461 -0.2939  0.1165
25497SOL    HW177942   1.751   7.171   6.810  0.7166  0.9505  2.9752
25497SOL    HW277943   1.742   7.315   6.763 -0.3215  0.1016  0.4288
25498SOL     OW77944   6.634   0.218   2.879 -0.3165 -0.0699 -0.1198
25498SOL    HW177945   6.639   0.137   2.829  1.0364 -0.6552  0.8856
25498SOL    HW277946   6.546   0.219   2.917 -1.0235 -0.0741 -1.7122
25499SOL     OW77947   6.305   0.320   9.096  0.1259  0.1372  0.1527
25499SOL    HW177948   6.274   0.406   9.125 -0.0805  0.4608 -0.9781
25499SOL    HW277949   6.244   0.258   9.134  0.2073  0.5018  0.8863
25500SOL     OW77950   9.231   8.611   5.792  0.1231 -0.9042  0.0884
25500SOL    HW177951   9.292   8.552   5.747 -0.2230 -2.3819  1.4454
25500SOL    HW277952   9.195   8.558   5.863 -2.1063  0.1861 -0.1462
25501SOL     OW77953   2.164   1.100   1.396  0.8786 -0.0906  0.4569
25501SOL    HW177954   2.147   1.038   1.325 -3.0998  1.2136  0.0601
25501SOL    HW277955   2.228   1.161   1.360 -0.3660  0.0073 -1.7574
25502SOL     OW77956   8.679   5.067   2.891  0.1484  0.3755 -0.1137
25502SOL    HW177957   8.636   5.142   2.932  0.5537 -0.0900  1.2222
25502SOL    HW277958   8.750   5.045   2.950  1.1320  0.0173 -1.3871
25503SOL     OW77959   4.461   1.899   5.137 -0.1538 -0.0834 -0.3020
25503SOL    HW177960   4.488   1.881   5.227  1.6054 -2.0447 -1.1525
25503SOL    HW277961   4.432   1.990   5.139  3.4317  1.2157  1.4845
25504SOL     OW77962   4.026   6.496   0.199 -0.1527 -0.0986  0.1773
25504SOL    HW177963   3.981   6.429   0.148  0.9042 -0.6234 -0.1089
25504SOL    HW277964   3.959   6.532   0.257 -1.0848 -0.3532 -0.7155
25505SOL     OW77965   0.433   2.154   5.127  0.2058 -0.3137 -0.5534
25505SOL    HW177966   0.505   2.098   5.157  0.2881 -0.6723 -1.3989
25505SOL    HW277967   0.370   2.094   5.086 -1.3386 -0.2069  1.5263
25506SOL     OW77968   3.712   2.603   4.449  0.4536  0.6403  0.1185
25506SOL    HW177969   3.655   2.617   4.374  0.2319  0.4180  0.2416
25506SOL    HW277970   3.731   2.509   4.447  1.4128  0.8377 -0.3443
25507SOL     OW77971   3.829   8.188   2.046  0.1586 -0.1268  0.1326
25507SOL    HW177972   3.776   8.183   1.967 -0.2212 -0.7164  0.4152
25507SOL    HW277973   3.916   8.214   2.015  0.6430 -2.5258 -0.8112
25508SOL     OW77974   6.788   3.499   8.278  0.4248 -0.2963  0.1412
25508SOL    HW177975   6.768   3.541   8.195 -1.4214 -1.4926 -0.0806
25508SOL    HW277976   6.702   3.476   8.315  1.2809 -2.7508  0.7843
25509SOL     OW77977   3.830   3.816   7.972  0.2777 -0.6938  0.2670
25509SOL    HW177978   3.831   3.813   8.068  0.4965 -0.6750  0.2644
25509SOL    HW277979   3.891   3.886   7.950 -1.9168  1.3255  0.2080
25510SOL     OW77980   1.022   1.737   2.592  0.2077  0.7529 -0.7906
25510SOL    HW177981   1.033   1.721   2.498 -0.3199  2.9205 -1.2661
25510SOL    HW277982   1.108   1.716   2.629  0.1587 -1.0266 -1.5834
25511SOL     OW77983   8.964   7.637   4.910  0.2024  0.1880 -0.6773
25511SOL    HW177984   9.001   7.631   4.998  2.0615  1.5843 -1.3051
25511SOL    HW277985   8.986   7.725   4.880 -1.5093  0.2012 -2.0934
25512SOL     OW77986   3.951   2.752   8.655  0.0507  0.1637 -0.0700
25512SOL    HW177987   4.019   2.723   8.594 -0.6858  0.9414 -1.2992
25512SOL    HW277988   3.967   2.701   8.735  0.9830 -0.9523 -0.9342
25513SOL     OW77989   0.458   8.322   4.089 -0.0869  0.3611  0.2538
25513SOL    HW177990   0.363   8.326   4.099 -0.0621 -0.2397  0.7554
25513SOL    HW277991   0.472   8.271   4.010 -0.1604 -1.1518  1.1852
25514SOL     OW77992   6.669   6.388   4.762  0.3865  0.1660 -0.3487
25514SOL    HW177993   6.676   6.429   4.676  1.8652  0.6117 -0.0398
25514SOL    HW277994   6.670   6.294   4.744  0.1513  0.2549 -0.8440
25515SOL     OW77995   5.824   1.699   6.334 -0.3336  0.1733  0.0583
25515SOL    HW177996   5.756   1.646   6.291 -1.2444  2.1606 -1.1382
25515SOL    HW277997   5.786   1.723   6.419 -0.0588 -0.7799  0.4575
25516SOL     OW77998   4.472   2.897   4.146  0.7988  0.4669  0.4961
25516SOL    HW177999   4.553   2.851   4.168  0.7899  0.6047  0.8221
25516SOL    HW278000   4.462   2.884   4.052 -0.0129 -1.5294  0.8008
25517SOL     OW78001   3.390   5.312   5.085  0.4323  0.2159 -0.2926
25517SOL    HW178002   3.310   5.305   5.137 -0.3793  0.9916 -1.3893
25517SOL    HW278003   3.460   5.324   5.149  0.0588 -2.7575  0.8591
25518SOL     OW78004   0.025   1.575   9.281  0.3342  0.2482  0.4107
25518SOL    HW178005   0.099   1.636   9.281 -1.3636  2.5509 -2.0231
25518SOL    HW278006   0.006   1.561   9.188 -1.5028 -1.2535  0.9576
25519SOL     OW78007   8.152   2.271   1.721 -0.3661 -0.2435 -0.2706
25519SOL    HW178008   8.179   2.354   1.682 -0.8906 -0.1767 -0.4974
25519SOL    HW278009   8.199   2.204   1.671  2.4484 -0.0083  1.8037
25520SOL     OW78010   5.364   5.665   2.969 -0.3391  0.1655  0.2071
25520SOL    HW178011   5.313   5.592   2.933 -0.9472  1.3354 -1.3875
25520SOL    HW278012   5.319   5.687   3.051 -1.4441  0.1408 -0.3725
25521SOL     OW78013   2.046   5.332   0.213  0.4515 -0.9114  0.1384
25521SOL    HW178014   2.072   5.424   0.227 -0.6143 -0.3697 -1.2196
25521SOL    HW278015   1.952   5.331   0.229  0.5187 -1.8658  0.5201
25522SOL     OW78016   2.604   3.899   8.013 -0.4264 -0.0185  0.4199
25522SOL    HW178017   2.694   3.913   8.042  0.3778 -1.3098 -1.2540
25522SOL    HW278018   2.612   3.869   7.923 -2.4869 -1.0882  0.5192
25523SOL     OW78019   0.049   2.368   5.636 -0.0710 -0.8100 -0.1431
25523SOL    HW178020   0.014   2.285   5.603 -0.2366 -0.9299  0.3362
25523SOL    HW278021   0.021   2.433   5.572  0.3581 -1.1707 -0.7153
25524SOL     OW78022   2.611   0.333   3.354 -0.0201  0.6630  0.4100
25524SOL    HW178023   2.663   0.320   3.275 -1.1987 -2.6421  0.0121
25524SOL    HW278024   2.663   0.291   3.423 -1.2049 -0.9805  0.3578
25525SOL     OW78025   3.835   2.264   7.274 -0.4962 -0.2037  0.2009
25525SOL    HW178026   3.925   2.289   7.252 -0.7682 -0.2353 -1.0180
25525SOL    HW278027   3.842   2.172   7.302 -0.4509 -1.0750 -2.4089
25526SOL     OW78028   8.585   0.720   7.281  0.2827  0.1723 -0.1783
25526SOL    HW178029   8.519   0.714   7.350 -0.0903  1.6810 -0.3722
25526SOL    HW278030   8.654   0.660   7.309  1.1439  2.2579  2.6341
25527SOL     OW78031   6.395   1.474   3.474 -0.0626 -0.0781  0.7093
25527SOL    HW178032   6.376   1.565   3.498  1.5614  0.7448 -0.8443
25527SOL    HW278033   6.490   1.470   3.468 -0.1829 -1.0681 -1.9819
25528SOL     OW78034   6.998   6.868   8.134  0.0204 -0.3001 -0.0544
25528SOL    HW178035   7.062   6.808   8.095 -0.5754 -0.0181 -1.5310
25528SOL    HW278036   6.974   6.927   8.062  0.3071  1.4795  1.2501
25529SOL     OW78037   1.285   5.757   7.618  0.4892 -0.4172  0.1242
25529SOL    HW178038   1.245   5.754   7.704 -0.6691  2.5374 -0.2237
25529SOL    HW278039   1.256   5.676   7.575 -1.8935 -0.2214  1.2658
25530SOL     OW78040   0.828   3.163   5.359  0.5009  0.0293  0.4513
25530SOL    HW178041   0.784   3.086   5.322  1.0475  0.3479 -0.9137
25530SOL    HW278042   0.757   3.220   5.387  0.0827 -1.1468  1.9394
25531SOL     OW78043   7.540   2.982   6.976  0.3954  0.9180  0.0068
25531SOL    HW178044   7.548   3.076   6.959  0.4448  1.2778  1.7715
25531SOL    HW278045   7.481   2.977   7.052  0.0634 -0.5102 -0.3124
25532SOL     OW78046   4.194   2.642   6.178  0.0096  0.3084  0.0544
25532SOL    HW178047   4.214   2.711   6.115  1.2198 -0.7000 -0.7140
25532SOL    HW278048   4.135   2.583   6.132  1.2035 -0.6401 -0.3289
25533SOL     OW78049   8.790   3.132   0.379  0.1617  0.3798  0.9712
25533SOL    HW178050   8.865   3.087   0.418  1.4961  1.0309 -0.7215
25533SOL    HW278051   8.742   3.063   0.333  3.0146  0.6297 -2.9048
25534SOL     OW78052   8.390   8.409   3.544  0.1608  0.3350  0.0587
25534SOL    HW178053   8.464   8.366   3.501 -1.0969 -0.2261 -1.6689
25534SOL    HW278054   8.322   8.342   3.547 -0.6623  1.1683  0.5369
25535SOL     OW78055   1.455   2.605   8.044 -0.0905 -0.0512  0.3606
25535SOL    HW178056   1.530   2.621   8.102  1.9598 -1.5485 -1.7056
25535SOL    HW278057   1.421   2.520   8.072 -1.1215  0.6298  1.3006
25536SOL     OW78058   2.998   1.425   5.792  0.0727  0.7784 -0.3288
25536SOL    HW178059   3.011   1.332   5.810 -1.0727  0.8352  0.9973
25536SOL    HW278060   3.086   1.458   5.772  0.3524 -0.7587 -1.8874
25537SOL     OW78061   6.136   1.144   4.644  0.1864 -0.1439  0.0882
25537SOL    HW178062   6.102   1.147   4.554  0.3146  0.2099  0.0540
25537SOL    HW278063   6.096   1.065   4.681 -4.0202  2.2531  1.3592
25538SOL     OW78064   6.092   5.228   6.876  0.1269 -0.0475  0.3121
25538SOL    HW178065   6.047   5.279   6.943  0.3259 -1.2437  1.4070
25538SOL    HW278066   6.029   5.160   6.850  0.5914 -0.5282  0.4182
25539SOL     OW78067   5.982   3.475   1.495 -0.4913 -0.3934 -0.7154
25539SOL    HW178068   5.974   3.442   1.585 -0.6803  1.3587 -0.0412
25539SOL    HW278069   6.043   3.415   1.453 -0.5503 -1.3722  0.5204
25540SOL     OW78070   2.246   0.125   9.212 -0.3631  0.0508  0.2440
25540SOL    HW178071   2.213   0.101   9.298  0.0371  0.6014  0.5503
25540SOL    HW278072   2.240   0.043   9.161 -0.6313 -0.2645  0.7735
25541SOL     OW78073   7.545   0.875   0.629 -0.0002 -0.0436 -0.5600
25541SOL    HW178074   7.601   0.913   0.697  0.1857 -1.6989  0.2825
25541SOL    HW278075   7.465   0.926   0.633 -0.6334 -1.0422  2.0984
25542SOL     OW78076   8.629   1.591   8.336 -0.3928  0.4758 -0.4451
25542SOL    HW178077   8.724   1.597   8.349 -0.4303 -2.4415  2.3237
25542SOL    HW278078   8.618   1.525   8.268 -0.4583  0.6875 -0.6416
25543SOL     OW78079   5.411   6.219   8.473  0.4568  0.7438  0.3526
25543SOL    HW178080   5.362   6.197   8.553  0.3638 -1.1656 -0.1763
25543SOL    HW278081   5.380   6.306   8.450 -0.4298  0.8367  1.7315
25544SOL     OW78082   1.839   7.874   5.563  0.3479  0.2466  0.1887
25544SOL    HW178083   1.892   7.813   5.512 -0.7592  0.2149 -0.9904
25544SOL    HW278084   1.762   7.824   5.588 -0.5235  1.0870 -0.7104
25545SOL     OW78085   6.948   0.937   8.993 -0.5845  0.4365  0.4625
25545SOL    HW178086   6.885   1.008   9.008  0.1064  1.4014 -0.9292
25545SOL    HW278087   7.029   0.968   9.034 -0.2750  0.4785 -0.1616
25546SOL     OW78088   1.216   4.558   5.047 -0.4780 -0.2928 -0.6027
25546SOL    HW178089   1.230   4.528   4.957  0.2069  1.9831 -1.3324
25546SOL    HW278090   1.224   4.478   5.100  1.4885 -1.3734 -2.3371
25547SOL     OW78091   0.869   7.453   1.350 -0.5564  0.3867 -0.2189
25547SOL    HW178092   0.956   7.421   1.326  0.4841  1.5955  1.7196
25547SOL    HW278093   0.810   7.381   1.325  1.2625 -1.5512  0.7338
25548SOL     OW78094   7.185   2.323   5.663  0.1463  0.7073 -0.6644
25548SOL    HW178095   7.115   2.287   5.719 -0.5630  0.4608 -1.6809
25548SOL    HW278096   7.199   2.411   5.696 -0.9149  0.8930 -0.6614
25549SOL     OW78097   0.058   0.053   6.357  1.2596 -0.4687  0.0542
25549SOL    HW178098   0.137  -0.002   6.359  0.5782 -1.4804 -0.2384
25549SOL    HW278099   0.053   0.091   6.445  1.2960 -1.5231  0.5257
25550SOL     OW78100   0.589   2.980   8.583 -0.3077 -0.4786  0.0783
25550SOL    HW178101   0.569   3.001   8.674 -0.8463 -0.2713 -0.0795
25550SOL    HW278102   0.573   2.885   8.576  1.1073 -0.7750  0.5356
25551SOL     OW78103   5.551   6.583   5.077 -0.1864 -0.1864  0.2416
25551SOL    HW178104   5.556   6.550   4.987 -0.0212 -2.3363  0.9772
25551SOL    HW278105   5.475   6.538   5.115 -0.3639  0.8348  1.1398
25552SOL     OW78106   4.935   5.792   8.104 -0.1831 -0.6883 -0.1337
25552SOL    HW178107   4.894   5.710   8.074 -2.6419 -0.1338  1.4732
25552SOL    HW278108   4.940   5.783   8.199  1.8858  0.0538 -0.1166
25553SOL     OW78109   5.807   3.802   8.461 -0.1072  0.2101 -0.3069
25553SOL    HW178110   5.785   3.838   8.547  0.2041  0.3490 -0.2831
25553SOL    HW278111   5.811   3.707   8.476  0.5991  0.2823 -0.0138
25554SOL     OW78112   5.238   7.006   2.019  0.1388  0.5669 -0.0388
25554SOL    HW178113   5.308   6.979   2.079  0.2779 -0.9747 -0.8206
25554SOL    HW278114   5.157   6.981   2.063  0.2473 -0.7140 -0.5069
25555SOL     OW78115   5.010   6.595   3.381  0.4688 -0.6134  0.0217
25555SOL    HW178116   4.947   6.566   3.447  0.0780 -1.1073 -0.5678
25555SOL    HW278117   4.964   6.590   3.298  1.0272 -0.1942 -0.3262
25556SOL     OW78118   3.149   5.051   3.052 -0.0800 -0.0655 -0.4522
25556SOL    HW178119   3.082   4.989   3.080  0.3710 -1.1016 -1.6095
25556SOL    HW278120   3.213   5.050   3.123 -2.0982  2.3775  1.6334
25557SOL     OW78121   7.828   3.111   8.900  0.3019 -0.2673 -0.4097
25557SOL    HW178122   7.804   3.108   8.993 -1.9000 -2.1804 -0.9275
25557SOL    HW278123   7.759   3.061   8.856  2.0813 -0.7199 -2.9287
25558SOL     OW78124   7.644   0.282   4.833 -0.4543  0.0072 -0.0545
25558SOL    HW178125   7.618   0.193   4.857 -0.8923  0.4630  1.2299
25558SOL    HW278126   7.571   0.337   4.862 -0.4548  0.7470 -1.3433
25559SOL     OW78127   6.206   3.620   4.691 -0.7626  0.2380  0.2224
25559SOL    HW178128   6.142   3.639   4.759  0.3843 -0.9615  1.6936
25559SOL    HW278129   6.275   3.686   4.704  0.1397 -0.8575  1.1876
25560SOL     OW78130   5.644   5.554   3.540  0.0253 -0.2785  0.0001
25560SOL    HW178131   5.592   5.619   3.493 -0.6587  0.1256  1.2579
25560SOL    HW278132   5.689   5.604   3.609  1.1994 -0.8085 -0.3575
25561SOL     OW78133   2.427   3.301   2.989 -0.3567  0.0515 -0.3899
25561SOL    HW178134   2.337   3.306   2.956 -0.3831 -1.0647 -0.5338
25561SOL    HW278135   2.456   3.213   2.965  1.0578  0.6644 -1.0567
25562SOL     OW78136   6.630   3.688   7.068 -0.0967  0.5709 -1.1655
25562SOL    HW178137   6.640   3.772   7.022  1.3886  0.1765 -1.6133
25562SOL    HW278138   6.716   3.647   7.062 -0.5789 -0.6350 -0.2310
25563SOL     OW78139   1.002   3.188   6.062 -0.0904 -0.3795 -0.1335
25563SOL    HW178140   0.923   3.146   6.028 -0.3076  0.9185 -1.3181
25563SOL    HW278141   0.976   3.278   6.081  1.0228  0.0001 -0.3142
25564SOL     OW78142   8.559   5.753   5.697 -0.0612  0.0335  0.5101
25564SOL    HW178143   8.581   5.660   5.705  0.3880 -0.1836 -2.3176
25564SOL    HW278144   8.628   5.789   5.642 -1.6334  1.4490 -0.6244
25565SOL     OW78145   7.599   1.595   6.860  0.1178 -0.5088 -0.5103
25565SOL    HW178146   7.572   1.686   6.876 -0.9883 -0.7671 -0.8618
25565SOL    HW278147   7.521   1.553   6.825  0.5534 -1.6681 -0.1155
25566SOL     OW78148   4.560   5.103   4.845 -0.1490  0.2845 -0.0805
25566SOL    HW178149   4.507   5.038   4.891 -0.4173  0.6467  0.1330
25566SOL    HW278150   4.495   5.162   4.805  0.0452  1.9882  1.9505
25567SOL     OW78151   4.508   0.171   2.498 -0.2235 -0.2529  0.6007
25567SOL    HW178152   4.489   0.132   2.413  2.0049  2.3214 -1.2461
25567SOL    HW278153   4.429   0.220   2.520 -0.4596 -0.1199 -0.4892
25568SOL     OW78154   1.996   1.397   1.115 -0.4068 -0.3529  0.3535
25568SOL    HW178155   2.040   1.320   1.080 -2.3319 -1.6178  0.5653
25568SOL    HW278156   1.908   1.366   1.137 -0.9420  1.6980  1.3010
25569SOL     OW78157   8.385   6.696   2.102 -0.3962 -0.1608 -0.4190
25569SOL    HW178158   8.376   6.670   2.010  0.6699 -1.0592 -0.2828
25569SOL    HW278159   8.475   6.675   2.125  0.0086  2.0467  0.2422
25570SOL     OW78160   1.510   0.851   7.075 -0.4148  0.4466 -0.2679
25570SOL    HW178161   1.534   0.943   7.086  0.4084  0.3062 -0.8388
25570SOL    HW278162   1.466   0.848   6.990 -1.6010  0.5202  0.3169
25571SOL     OW78163   8.470   8.384   0.745 -0.0444 -0.1725  0.2198
25571SOL    HW178164   8.448   8.464   0.792 -0.8970 -0.3958  0.2128
25571SOL    HW278165   8.425   8.315   0.793  0.8539 -0.6818  0.3454
25572SOL     OW78166   0.372   8.266   5.054 -0.3619 -0.1670 -0.0948
25572SOL    HW178167   0.416   8.246   5.137  0.9238  0.7676 -0.5306
25572SOL    HW278168   0.333   8.352   5.068  0.5203  0.3441 -0.6964
25573SOL     OW78169   1.699   0.235   4.150 -0.3933 -0.0567  0.5519
25573SOL    HW178170   1.745   0.256   4.232 -0.4104  1.0253  0.3077
25573SOL    HW278171   1.664   0.148   4.164  0.1481 -0.1499  1.4609
25574SOL     OW78172   1.209   1.952   3.182 -0.7621 -0.6799 -0.4357
25574SOL    HW178173   1.212   1.879   3.243 -2.1682  0.2980  0.8673
25574SOL    HW278174   1.278   2.012   3.212 -1.8970  0.1163  0.6596
25575SOL     OW78175   8.898   1.181   2.611  0.3301 -0.4809  0.2379
25575SOL    HW178176   8.842   1.258   2.598  1.4715  0.0653 -1.8529
25575SOL    HW278177   8.919   1.182   2.704 -0.5309  1.1433  0.4524
25576SOL     OW78178   1.880   7.746   3.609  0.0330  0.6461 -0.1759
25576SOL    HW178179   1.914   7.657   3.608  2.7159  1.5528  0.4604
25576SOL    HW278180   1.807   7.745   3.548  0.8918 -1.6620 -1.2673
25577SOL     OW78181   1.289   8.079   5.082 -0.0264 -0.4088 -0.1903
25577SOL    HW178182   1.355   8.136   5.123 -0.3897 -0.5281  0.5871
25577SOL    HW278183   1.339   8.026   5.020  0.7122 -0.8865  0.7854
25578SOL     OW78184   2.838   5.712   8.243 -0.6385 -0.0830 -0.3892
25578SOL    HW178185   2.818   5.638   8.187  0.1020 -2.0670  1.7937
25578SOL    HW278186   2.832   5.677   8.332  0.8369  2.1976  0.7055
25579SOL     OW78187   0.755   8.046   0.338 -0.2986 -0.3109  0.0701
25579SOL    HW178188   0.743   8.136   0.307  0.1436 -0.6394 -1.1376
25579SOL    HW278189   0.675   8.001   0.312 -0.5158 -0.2783  0.6655
25580SOL     OW78190   2.667   3.526   6.151  0.1995  0.2948 -0.4719
25580SOL    HW178191   2.763   3.527   6.147  0.3453  2.5164  1.2804
25580SOL    HW278192   2.640   3.603   6.100 -0.7117 -0.5989 -1.3820
25581SOL     OW78193   2.101   5.558   7.098  0.4483 -0.0961 -0.1846
25581SOL    HW178194   2.080   5.647   7.067  1.4223 -0.3831 -1.7673
25581SOL    HW278195   2.015   5.516   7.106  0.0450  0.5885 -0.6916
25582SOL     OW78196   6.562   1.414   2.456 -0.4405  0.5928 -0.2973
25582SOL    HW178197   6.601   1.491   2.497  2.2900 -0.5410 -0.6096
25582SOL    HW278198   6.552   1.351   2.527  0.4544  0.0734 -0.6237
25583SOL     OW78199   8.740   5.306   1.644 -0.2828  0.2955 -0.3924
25583SOL    HW178200   8.819   5.344   1.682  0.6885 -1.6552 -0.3348
25583SOL    HW278201   8.738   5.340   1.554 -0.4135  1.7761  0.1350
25584SOL     OW78202   1.872   5.263   8.583  0.4328 -0.5761  0.4889
25584SOL    HW178203   1.962   5.265   8.615  0.6813  1.4087 -0.2128
25584SOL    HW278204   1.819   5.294   8.656  0.5600  0.1360  0.2897
25585SOL     OW78205   6.232   0.116   8.581 -0.2127 -0.3487 -0.3220
25585SOL    HW178206   6.286   0.108   8.502 -0.3660 -0.7430 -0.3891
25585SOL    HW278207   6.232   0.027   8.619  1.2638  0.1780  1.0434
25586SOL     OW78208   2.958   2.065   8.752  0.5132  0.0133 -0.3795
25586SOL    HW178209   2.995   2.003   8.689  1.4251  1.6071 -1.4975
25586SOL    HW278210   2.864   2.050   8.749  0.5021  0.2053 -2.3588
25587SOL     OW78211   6.956   1.917   9.038 -0.1511  0.0293 -0.2136
25587SOL    HW178212   6.934   1.906   9.130  0.8288  0.5049  0.0918
25587SOL    HW278213   6.901   1.990   9.009 -0.6128 -0.2546 -0.0658
25588SOL     OW78214   2.047   6.068   3.926 -0.6033 -0.2184  0.1524
25588SOL    HW178215   2.085   5.982   3.940 -2.6154 -1.2213 -0.2193
25588SOL    HW278216   2.122   6.128   3.930  0.9538 -2.0298 -0.3949
25589SOL     OW78217   5.799   0.749   2.631  0.0915 -0.1107  0.2437
25589SOL    HW178218   5.762   0.697   2.559 -0.7468 -1.1421  1.3829
25589SOL    HW278219   5.878   0.702   2.656  0.6417  0.5070 -0.2813
25590SOL     OW78220   8.793   9.273   4.994  0.2376 -0.2889 -0.8477
25590SOL    HW178221   8.744   9.231   4.923  1.1870  0.1225 -1.7562
25590SOL    HW278222   8.797   9.365   4.969  0.1502 -0.0416  0.0053
25591SOL     OW78223   9.094   7.795   1.095  0.4404  0.8660  0.3921
25591SOL    HW178224   9.075   7.821   1.185 -1.4951 -1.0264  0.6287
25591SOL    HW278225   9.042   7.716   1.081  0.5061  1.1916 -2.4769
25592SOL     OW78226   7.053   0.754   1.325 -0.1264 -0.0212  0.2285
25592SOL    HW178227   6.995   0.813   1.277  1.3616  0.9417 -0.4570
25592SOL    HW278228   7.027   0.764   1.417  1.0036  2.8631  0.3313
25593SOL     OW78229   9.045   6.393   7.036 -0.3954 -0.0407 -0.5557
25593SOL    HW178230   9.065   6.370   6.945  2.1671 -0.3867  0.0190
25593SOL    HW278231   9.124   6.437   7.068 -1.3931  0.4728  1.3911
25594SOL     OW78232   5.182   1.146   8.309  0.3857  0.4710  0.3313
25594SOL    HW178233   5.206   1.055   8.328  0.9765  0.8482  1.5071
25594SOL    HW278234   5.142   1.177   8.391  1.3586  1.6400  0.3881
25595SOL     OW78235   8.403   3.681   7.386 -0.3747 -0.4061 -0.1060
25595SOL    HW178236   8.392   3.595   7.346  0.3979 -1.1474  1.2076
25595SOL    HW278237   8.426   3.738   7.313  0.9825 -1.7055 -0.7597
25596SOL     OW78238   8.524   6.177   0.066  0.1475 -0.2472 -0.5555
25596SOL    HW178239   8.516   6.219  -0.020  0.2409 -0.0110 -0.4508
25596SOL    HW278240   8.618   6.166   0.078  0.2216  0.8739  0.0564
25597SOL     OW78241   7.609   8.499   3.559  0.4575 -0.2412 -0.0511
25597SOL    HW178242   7.605   8.471   3.650 -0.0035 -0.3060 -0.0889
25597SOL    HW278243   7.527   8.468   3.521  0.2489  0.5595 -0.2672
25598SOL     OW78244   7.729   3.599   5.680 -0.6802 -0.0456  0.1138
25598SOL    HW178245   7.717   3.590   5.585  0.0949 -1.3137  0.1057
25598SOL    HW278246   7.824   3.606   5.691 -0.8665  2.0202  0.6827
25599SOL     OW78247   0.822   5.980   2.957 -0.2928 -0.1116  0.6671
25599SOL    HW178248   0.893   5.916   2.952  0.4361  0.7609 -1.7792
25599SOL    HW278249   0.863   6.063   2.933 -2.3303  0.1761 -2.3481
25600SOL     OW78250   0.736   8.796   6.185  0.5193  0.4827  0.3674
25600SOL    HW178251   0.735   8.701   6.179  0.3295  0.4791  0.4465
25600SOL    HW278252   0.685   8.816   6.264  0.1112  0.6711  0.0639
25601SOL     OW78253   7.640   4.705   2.290 -0.4966 -0.0298  0.0103
25601SOL    HW178254   7.617   4.612   2.287  0.0238 -0.2452  1.7320
25601SOL    HW278255   7.556   4.751   2.282 -0.6765 -0.5982 -1.6934
25602SOL     OW78256   8.246   5.639   1.208  0.7100  0.2601  0.5976
25602SOL    HW178257   8.255   5.585   1.287  1.2819 -0.0685  0.3149
25602SOL    HW278258   8.184   5.590   1.153 -0.0025  0.6879  0.9985
25603SOL     OW78259   7.819   2.693   0.845  0.0594  0.2812 -0.2118
25603SOL    HW178260   7.895   2.730   0.799  1.1379  0.0446  1.2817
25603SOL    HW278261   7.761   2.768   0.859  0.1588  0.5317 -1.0622
25604SOL     OW78262   4.968   1.977   6.458  0.1619 -0.1844 -0.1335
25604SOL    HW178263   5.001   2.041   6.521 -0.2951 -1.1357  1.1156
25604SOL    HW278264   4.909   2.027   6.402 -0.8643  0.3581  1.3515
25605SOL     OW78265   8.019   9.201   3.820 -0.4658 -0.4101 -0.1420
25605SOL    HW178266   7.997   9.294   3.822 -0.4610 -0.3898 -0.9826
25605SOL    HW278267   8.026   9.177   3.913  0.5235  0.6476  0.0756
25606SOL     OW78268   8.003   5.889   6.359 -0.5922 -0.0518  0.1217
25606SOL    HW178269   8.081   5.906   6.412 -0.5364 -1.4612  0.5270
25606SOL    HW278270   8.034   5.832   6.289 -1.2841 -0.7517  0.3771
25607SOL     OW78271   1.113   5.619   6.761 -0.2753  0.2511  0.4347
25607SOL    HW178272   1.206   5.628   6.779 -0.4195  1.4298  0.6232
25607SOL    HW278273   1.097   5.525   6.769  0.8773  0.0378  0.4528
25608SOL     OW78274   6.477   1.503   6.488  0.1397 -0.1622 -0.1398
25608SOL    HW178275   6.496   1.465   6.402  0.6576 -0.7144  0.2058
25608SOL    HW278276   6.392   1.545   6.478  1.6921  2.8792 -1.9460
25609SOL     OW78277   4.534   8.956   9.184  0.1361  0.0872  0.0387
25609SOL    HW178278   4.566   8.994   9.266  0.8892  1.0262 -0.6606
25609SOL    HW278279   4.465   9.016   9.156 -0.3235 -0.3955  0.1248
25610SOL     OW78280   3.923   7.606   2.138 -0.0850 -0.3600 -0.4545
25610SOL    HW178281   3.976   7.551   2.081 -1.4516 -0.9956 -1.1705
25610SOL    HW278282   3.962   7.693   2.132  0.1636 -0.5497 -1.8915
25611SOL     OW78283   7.291   5.719   8.029  0.3491  0.4606  0.3210
25611SOL    HW178284   7.256   5.631   8.016  0.0713  0.2796  1.9891
25611SOL    HW278285   7.312   5.750   7.941 -2.5616 -0.0090 -0.6538
25612SOL     OW78286   8.578   4.059   4.899 -0.2364  0.4362 -0.3422
25612SOL    HW178287   8.566   4.072   4.993 -1.4973 -3.9786  0.3315
25612SOL    HW278288   8.632   3.980   4.892  0.0185  0.7499 -3.3399
25613SOL     OW78289   2.530   0.908   1.704 -0.1502 -0.1848 -0.4471
25613SOL    HW178290   2.474   0.876   1.634 -0.9795 -1.1900  0.6487
25613SOL    HW278291   2.617   0.871   1.684 -0.3272 -0.2829 -1.0497
25614SOL     OW78292   2.136   5.020   9.152 -0.3578 -0.4346 -0.3485
25614SOL    HW178293   2.214   4.994   9.200  0.4943  0.3884 -1.2592
25614SOL    HW278294   2.119   5.110   9.180 -1.2010 -0.7208  0.1067
25615SOL     OW78295   4.319   1.029   6.911  0.2818  0.3001 -0.4744
25615SOL    HW178296   4.396   1.032   6.854 -0.7243 -0.7343 -1.9661
25615SOL    HW278297   4.309   1.119   6.943  0.3253  1.1492 -2.7106
25616SOL     OW78298   8.033   5.084   5.888  0.2512 -0.2953 -0.6024
25616SOL    HW178299   8.044   5.044   5.802 -0.2807 -1.7443 -0.0371
25616SOL    HW278300   7.941   5.109   5.892  0.5394  0.8630 -0.8794
25617SOL     OW78301   4.482   6.793   5.663  0.0728  0.5383 -0.2611
25617SOL    HW178302   4.557   6.850   5.648 -1.5094  2.3036 -2.0829
25617SOL    HW278303   4.462   6.756   5.577 -0.2342 -1.1770  0.4878
25618SOL     OW78304   6.878   4.079   3.712 -0.5242  0.6036  0.5797
25618SOL    HW178305   6.817   4.152   3.720  0.4012  1.5617 -0.7538
25618SOL    HW278306   6.837   4.020   3.649 -0.4954  0.7966  0.3812
25619SOL     OW78307   1.103   4.834   0.802  0.3620  0.0110 -0.1875
25619SOL    HW178308   1.102   4.919   0.757 -0.7554 -0.7469 -1.6441
25619SOL    HW278309   1.185   4.793   0.774  0.5707  0.3046 -0.0220
25620SOL     OW78310   6.743   0.619   7.440 -0.0791 -0.3053  0.4504
25620SOL    HW178311   6.735   0.559   7.514 -1.9026  0.8843  1.3155
25620SOL    HW278312   6.681   0.586   7.375 -3.5102  2.0556  2.1259
25621SOL     OW78313   7.482   1.263   4.141  0.0389 -0.2921  0.2926
25621SOL    HW178314   7.548   1.327   4.116  1.0595 -2.1522 -2.2052
25621SOL    HW278315   7.519   1.218   4.217  0.2073  0.7062  0.8205
25622SOL     OW78316   1.829   0.764   4.431 -0.7736 -0.3593  0.1136
25622SOL    HW178317   1.834   0.713   4.350 -1.1359  0.7412 -0.6211
25622SOL    HW278318   1.909   0.817   4.430 -1.2505  0.3658 -0.0241
25623SOL     OW78319   0.641   6.829   3.907  0.7847  0.2168  0.3186
25623SOL    HW178320   0.696   6.901   3.938 -1.0297  1.3390  1.0902
25623SOL    HW278321   0.606   6.861   3.824 -0.3041  0.3939  0.8350
25624SOL     OW78322   9.112   0.517   8.182  0.0970 -0.2372  0.3603
25624SOL    HW178323   9.134   0.449   8.118 -1.4975 -0.7385  0.2881
25624SOL    HW278324   9.120   0.599   8.134  2.4667 -0.2956  0.5654
25625SOL     OW78325   6.418   0.306   2.399  0.2662  0.3730 -0.1586
25625SOL    HW178326   6.331   0.330   2.369  0.1684  3.9043  2.3760
25625SOL    HW278327   6.477   0.347   2.336  0.1670 -0.6461 -0.9515
25626SOL     OW78328   4.924   8.817   7.181 -0.4470  0.4484  0.5212
25626SOL    HW178329   4.848   8.801   7.236 -0.5353 -0.2773  0.2013
25626SOL    HW278330   4.958   8.901   7.211 -0.8078  0.3236  1.3142
25627SOL     OW78331   4.807   1.245   3.622  0.2478 -0.5933 -0.2951
25627SOL    HW178332   4.736   1.266   3.562 -0.1731  0.0114  0.4012
25627SOL    HW278333   4.800   1.150   3.635 -1.2529 -0.3649  0.7666
25628SOL     OW78334   7.013   7.390   9.090  0.4135 -0.3640 -0.7374
25628SOL    HW178335   7.063   7.441   9.154  2.0527 -2.0328 -0.6069
25628SOL    HW278336   6.937   7.358   9.138  0.9768 -0.5712  0.0204
25629SOL     OW78337   5.717   4.389   3.889  0.3427 -0.6382 -0.4103
25629SOL    HW178338   5.675   4.304   3.895  1.3347 -1.1343 -0.3121
25629SOL    HW278339   5.810   4.370   3.874  0.3938  0.4371 -1.6709
25630SOL     OW78340   3.336   7.024   1.134  0.1787 -0.0933  0.2543
25630SOL    HW178341   3.310   7.114   1.118  0.8042 -0.2956 -2.2894
25630SOL    HW278342   3.255   6.979   1.158 -0.1726  1.0693  1.3266
25631SOL     OW78343   2.707   7.266   3.096  0.7560 -0.4090 -0.5065
25631SOL    HW178344   2.765   7.190   3.086 -0.4264 -1.0091 -3.7619
25631SOL    HW278345   2.630   7.231   3.140 -0.2019 -1.4251 -2.8632
25632SOL     OW78346   8.105   1.563   6.780  0.2296  0.2702  0.1345
25632SOL    HW178347   8.117   1.563   6.875 -1.7615 -0.4325  0.4290
25632SOL    HW278348   8.042   1.493   6.763  1.1084 -0.1261 -1.8112
25633SOL     OW78349   2.104   0.805   7.199 -0.2399 -0.2991 -0.0918
25633SOL    HW178350   2.018   0.823   7.237 -0.6209 -1.3934 -0.4111
25633SOL    HW278351   2.158   0.880   7.226 -0.3992 -1.1445  2.8674
25634SOL     OW78352   4.315   0.593   3.045 -0.1206 -0.6401  0.3791
25634SOL    HW178353   4.410   0.585   3.033  0.3943  0.1307  3.2196
25634SOL    HW278354   4.281   0.507   3.024  1.5735 -1.7012  1.7022
25635SOL     OW78355   0.844   9.108   8.056 -0.5134  0.6758  0.1579
25635SOL    HW178356   0.940   9.109   8.064 -0.4247  2.7142 -0.5412
25635SOL    HW278357   0.813   9.130   8.144 -0.3376  0.3250  0.3097
25636SOL     OW78358   8.384   6.650   2.980 -0.3461  0.0648 -0.2007
25636SOL    HW178359   8.430   6.730   3.005  1.9172 -0.8625 -1.1331
25636SOL    HW278360   8.413   6.585   3.044 -0.3344 -0.5672 -0.8384
25637SOL     OW78361   8.639   4.462   0.007  0.6510  0.4333  0.2475
25637SOL    HW178362   8.618   4.555  -0.003  0.0389  0.5125  2.0501
25637SOL    HW278363   8.704   4.459   0.076  1.5028 -0.4227 -0.5593
25638SOL     OW78364   4.252   8.388   4.397  0.2431  0.1519  0.0718
25638SOL    HW178365   4.165   8.349   4.403  0.6840 -0.7242  1.1552
25638SOL    HW278366   4.309   8.316   4.370  1.1876 -0.2245  2.7579
25639SOL     OW78367   1.245   7.812   6.092  0.3936  0.1441 -0.0382
25639SOL    HW178368   1.209   7.876   6.154 -0.5012  0.3765 -0.7790
25639SOL    HW278369   1.173   7.752   6.075  0.8183 -0.2678 -0.3961
25640SOL     OW78370   0.656   2.673   1.059  0.3122  0.1235 -0.4438
25640SOL    HW178371   0.730   2.619   1.087  1.6880  1.2888 -1.6746
25640SOL    HW278372   0.603   2.684   1.138  2.6918  1.1919  1.1252
25641SOL     OW78373   7.223   5.365   5.815 -0.3782  0.6672 -0.2233
25641SOL    HW178374   7.230   5.373   5.720  1.2303  0.6839 -0.1426
25641SOL    HW278375   7.279   5.435   5.849 -0.9303  0.6569  0.7344
25642SOL     OW78376   0.250   9.223   5.892  0.0028 -0.0573 -0.1367
25642SOL    HW178377   0.235   9.311   5.859  0.2256  0.9029  2.1966
25642SOL    HW278378   0.185   9.211   5.961 -1.0388 -2.3433 -1.4011
25643SOL     OW78379   0.692   8.579   0.368 -0.5095 -0.0039 -0.6816
25643SOL    HW178380   0.611   8.559   0.320  0.0783 -0.4658 -1.5014
25643SOL    HW278381   0.725   8.660   0.327 -0.8059  0.4709 -0.0107
25644SOL     OW78382   8.061   5.049   9.083  0.5526  0.4828  0.1886
25644SOL    HW178383   8.109   5.130   9.067  1.5692 -0.1997 -0.3648
25644SOL    HW278384   8.074   4.998   9.003 -0.8672  0.1423  0.1425
25645SOL     OW78385   5.941   1.784   2.857 -0.2671 -0.0113  0.0677
25645SOL    HW178386   5.851   1.778   2.889  0.4259 -0.4710  2.1004
25645SOL    HW278387   5.994   1.748   2.928  1.5612  0.5766 -0.9288
25646SOL     OW78388   4.667   1.418   0.064 -0.0247  0.1982  0.4135
25646SOL    HW178389   4.664   1.481  -0.009 -1.0182 -0.7247 -0.3757
25646SOL    HW278390   4.749   1.371   0.051 -1.0914 -1.3199 -1.3499
25647SOL     OW78391   8.068   8.232   6.314  0.1945  0.7624  0.6607
25647SOL    HW178392   8.058   8.265   6.225 -0.1171  0.0100  0.4095
25647SOL    HW278393   8.135   8.289   6.353  2.2596 -0.4649 -0.8645
25648SOL     OW78394   5.609   8.785   3.209 -0.3726  0.4152  0.2618
25648SOL    HW178395   5.667   8.709   3.202 -2.8258 -1.6636  0.9401
25648SOL    HW278396   5.561   8.771   3.291 -1.8848  2.0058 -0.2784
25649SOL     OW78397   6.676   8.687   1.240  0.1866  0.0531 -0.4052
25649SOL    HW178398   6.704   8.765   1.287  0.8598 -1.6747  2.2866
25649SOL    HW278399   6.753   8.631   1.239 -0.8444 -1.4195 -0.3719
25650SOL     OW78400   5.677   9.229   8.377  0.4345  0.7486  0.0871
25650SOL    HW178401   5.706   9.154   8.428 -0.4768  1.1444  1.2312
25650SOL    HW278402   5.610   9.194   8.318  1.5963  0.2631 -1.0047
25651SOL     OW78403   7.311   5.675   3.122  0.3285  0.5327 -0.1018
25651SOL    HW178404   7.222   5.674   3.156  0.3486  0.6751 -0.0424
25651SOL    HW278405   7.366   5.685   3.200  0.4469 -0.4656 -0.0486
25652SOL     OW78406   0.367   1.713   2.184 -0.0220  0.0193  0.4818
25652SOL    HW178407   0.456   1.696   2.152 -0.1935 -2.3895  1.1158
25652SOL    HW278408   0.319   1.632   2.166 -2.2543  1.4289 -0.2796
25653SOL     OW78409   2.001   4.051   0.776 -0.1181 -0.0034 -0.1755
25653SOL    HW178410   1.930   4.104   0.812 -1.2790 -1.3870 -0.3032
25653SOL    HW278411   2.078   4.077   0.825 -0.6312  1.7669 -0.2420
25654SOL     OW78412   8.346   0.258   4.270  0.1936  0.4793  0.0227
25654SOL    HW178413   8.300   0.322   4.216  0.4013 -0.3954 -1.2557
25654SOL    HW278414   8.427   0.302   4.297 -0.4529  1.3335  0.6123
25655SOL     OW78415   0.286   2.169   4.628  0.1128  0.3353 -0.0371
25655SOL    HW178416   0.299   2.244   4.686  0.0449  0.2624  0.0725
25655SOL    HW278417   0.191   2.157   4.626  0.0987  0.4927 -0.3590
25656SOL     OW78418   6.462   8.605   4.662  0.0491 -0.6013  0.5645
25656SOL    HW178419   6.472   8.621   4.756 -0.3208  0.4028  0.4449
25656SOL    HW278420   6.468   8.692   4.622  0.3079 -1.0290 -0.3565
25657SOL     OW78421   2.702   7.178   4.092  0.5048  0.3092 -0.7998
25657SOL    HW178422   2.656   7.143   4.016  1.7554  0.8011 -1.8300
25657SOL    HW278423   2.752   7.252   4.057  1.1209  0.5212  0.4949
25658SOL     OW78424   8.118   6.689   6.005  0.0908  0.0201 -0.0414
25658SOL    HW178425   8.175   6.620   5.971 -1.6686 -1.1502 -0.7838
25658SOL    HW278426   8.061   6.712   5.932 -0.7582  0.7512  0.8155
25659SOL     OW78427   1.681   6.581   0.574 -0.3233  0.4665 -0.2341
25659SOL    HW178428   1.706   6.649   0.511 -1.0647  1.2746  0.3267
25659SOL    HW278429   1.617   6.623   0.631  0.3344 -0.2455  1.0745
25660SOL     OW78430   4.559   3.881   3.477  0.1484 -0.3754 -0.0232
25660SOL    HW178431   4.541   3.870   3.570 -0.6539  0.7266 -0.0306
25660SOL    HW278432   4.531   3.970   3.457  2.1469  0.1100 -0.9176
25661SOL     OW78433   5.302   6.851   1.779  0.0545 -0.1722 -0.0864
25661SOL    HW178434   5.290   6.894   1.864 -0.2947  1.0300 -0.7179
25661SOL    HW278435   5.228   6.880   1.726  1.0569  0.3281 -1.2880
25662SOL     OW78436   4.768   3.234   3.270  0.7847  0.2130  0.4077
25662SOL    HW178437   4.860   3.220   3.247  0.8600  0.2503  0.6797
25662SOL    HW278438   4.719   3.195   3.199  1.0056 -0.4017  0.5914
25663SOL     OW78439   0.459   3.044   5.532  0.1510 -0.0434  0.5595
25663SOL    HW178440   0.458   2.952   5.508  0.4404  0.6416 -2.4977
25663SOL    HW278441   0.542   3.055   5.579  0.2861 -1.2701  0.6421
25664SOL     OW78442   8.010   6.054   5.902  0.4147  0.4646 -0.1942
25664SOL    HW178443   8.043   6.136   5.866 -1.6966  1.4010 -0.1745
25664SOL    HW278444   8.022   6.062   5.996  0.9156  0.4068 -0.2523
25665SOL     OW78445   5.542   7.349   2.403  0.2240 -0.0124 -0.0564
25665SOL    HW178446   5.482   7.399   2.349  1.9184  1.3631 -0.7626
25665SOL    HW278447   5.531   7.258   2.374 -0.8560  0.3379 -0.7782
25666SOL     OW78448   0.159   3.419   3.877 -0.1354  0.6043 -0.2857
25666SOL    HW178449   0.225   3.474   3.921 -0.4163  1.6970 -1.1911
25666SOL    HW278450   0.085   3.418   3.937  0.4240 -0.0423  0.4173
25667SOL     OW78451   6.103   0.104   1.742  0.1401 -0.4578 -0.0649
25667SOL    HW178452   6.041   0.034   1.721  0.3511 -0.9975  1.0266
25667SOL    HW278453   6.048   0.181   1.754 -0.4391 -1.0907  1.6345
25668SOL     OW78454   3.304   2.497   1.667 -0.4892 -0.3838 -0.0044
25668SOL    HW178455   3.349   2.413   1.655 -0.3768 -0.4450  0.8075
25668SOL    HW278456   3.230   2.477   1.724 -0.5616  0.0398  0.0522
25669SOL     OW78457   6.901   8.674   7.605  0.0266 -0.5928 -0.3711
25669SOL    HW178458   6.876   8.627   7.685  0.8983 -1.5291 -0.6224
25669SOL    HW278459   6.996   8.684   7.612 -0.0894  0.7361 -0.5579
25670SOL     OW78460   3.507   1.209   6.027  0.1507  0.0776  0.3515
25670SOL    HW178461   3.520   1.182   6.118  0.8777 -2.4451 -0.4300
25670SOL    HW278462   3.569   1.280   6.013 -0.1217  0.6431  1.8554
25671SOL     OW78463   0.886   2.773   2.420 -0.2477  0.5825 -0.4308
25671SOL    HW178464   0.923   2.720   2.491  2.4695  0.5777 -1.7154
25671SOL    HW278465   0.814   2.821   2.461  0.1237 -0.6842  1.8853
25672SOL     OW78466   9.087   6.685   9.145  0.2984  0.0619 -0.1945
25672SOL    HW178467   9.076   6.593   9.121  1.7867  0.3476 -2.1217
25672SOL    HW278468   9.038   6.694   9.227 -0.8219 -2.1631 -0.5570
25673SOL     OW78469   4.329   5.884   7.479 -0.1368  0.8384 -0.3061
25673SOL    HW178470   4.407   5.828   7.483 -0.6250  0.1038 -0.9496
25673SOL    HW278471   4.326   5.914   7.388 -0.7081  0.7269 -0.3241
25674SOL     OW78472   1.102   7.239   1.552  0.0815 -0.3171  0.5410
25674SOL    HW178473   1.067   7.290   1.479 -1.1798 -0.3821  1.0566
25674SOL    HW278474   1.143   7.305   1.609 -1.0298  0.0947  0.9155
25675SOL     OW78475   1.651   4.636   0.072  0.3285  0.4216  0.0344
25675SOL    HW178476   1.562   4.605   0.058  0.0427  0.7025  1.1253
25675SOL    HW278477   1.640   4.725   0.107  1.0192  0.2781  0.6326
25676SOL     OW78478   4.385   6.380   3.751  0.2894  0.2769 -0.0334
25676SOL    HW178479   4.386   6.435   3.829  0.4600  1.2465 -0.6981
25676SOL    HW278480   4.478   6.374   3.725  0.3801 -1.0397  0.5039
25677SOL     OW78481   5.212   1.138   0.034  0.3217  0.8134 -0.0093
25677SOL    HW178482   5.145   1.206   0.035 -1.6803 -1.0809  1.1992
25677SOL    HW278483   5.206   1.099  -0.053  0.8029  1.4872 -0.3579
25678SOL     OW78484   1.557   2.210   8.823  0.1729  0.4991 -0.2187
25678SOL    HW178485   1.601   2.144   8.877 -1.3716 -0.6506 -0.3125
25678SOL    HW278486   1.476   2.229   8.870 -0.0024  1.3803 -0.8601
25679SOL     OW78487   8.494   7.915   6.630  0.2006  0.0345 -0.1588
25679SOL    HW178488   8.416   7.954   6.668  0.4526 -0.4423  0.8734
25679SOL    HW278489   8.504   7.959   6.545 -1.4094 -0.2064 -0.4921
25680SOL     OW78490   2.932   3.458   1.668 -0.0420  0.8743  0.0186
25680SOL    HW178491   2.937   3.479   1.575 -0.3038 -0.1541 -0.2431
25680SOL    HW278492   2.948   3.541   1.712  1.9924  1.0379 -0.9137
25681SOL     OW78493   8.135   1.716   7.247 -0.0545  0.4068 -0.1922
25681SOL    HW178494   8.044   1.687   7.245 -0.0224 -0.1580  2.7302
25681SOL    HW278495   8.179   1.664   7.180 -1.4182 -1.0992  0.0447
25682SOL     OW78496   2.479   7.027   2.803 -0.1676  0.5575  0.2607
25682SOL    HW178497   2.516   6.975   2.874  0.0822  2.0685  1.2612
25682SOL    HW278498   2.385   7.009   2.807  0.1055 -1.3099 -0.6728
25683SOL     OW78499   3.304   3.130   8.604  0.1752  0.3744 -0.2560
25683SOL    HW178500   3.395   3.149   8.582  0.1023  0.5516 -0.4072
25683SOL    HW278501   3.309   3.058   8.666  0.4284  0.5115 -0.1154
25684SOL     OW78502   2.065   3.055   3.289 -0.2665 -0.3768 -0.0503
25684SOL    HW178503   1.975   3.036   3.261 -0.4833 -1.5514  1.3082
25684SOL    HW278504   2.077   3.002   3.368  0.6690  1.8802  1.4280
25685SOL     OW78505   0.707   1.805   3.783  0.0695 -0.5582  0.2399
25685SOL    HW178506   0.625   1.851   3.802  0.8181 -0.2719  3.4103
25685SOL    HW278507   0.693   1.716   3.816  0.4491 -1.0719 -0.9176
25686SOL     OW78508   3.788   6.382   6.151  0.0533 -0.1604  0.3299
25686SOL    HW178509   3.816   6.465   6.111  0.6923 -0.4150  0.2528
25686SOL    HW278510   3.859   6.358   6.210  0.3541 -1.2120 -0.4531
25687SOL     OW78511   0.801   3.240   2.962 -0.0438  0.4323  0.0489
25687SOL    HW178512   0.829   3.331   2.975  1.7664  0.0180 -0.5689
25687SOL    HW278513   0.765   3.238   2.874 -2.3138  1.0029  0.9037
25688SOL     OW78514   5.847   8.851   5.846 -0.5097 -0.0660 -0.2747
25688SOL    HW178515   5.819   8.910   5.916  1.2807  1.2417 -0.6125
25688SOL    HW278516   5.849   8.906   5.767 -0.0214 -0.8878 -0.8528
25689SOL     OW78517   6.525   6.278   0.434 -0.7759  0.2070 -0.2491
25689SOL    HW178518   6.518   6.302   0.527 -0.5772 -1.4137  0.2268
25689SOL    HW278519   6.584   6.344   0.397 -0.8807  0.9013  0.7762
25690SOL     OW78520   7.115   7.627   3.437 -0.2183  0.1072  0.1537
25690SOL    HW178521   7.044   7.636   3.501 -1.2876 -1.9095 -0.6839
25690SOL    HW278522   7.182   7.577   3.483  0.7175  1.9681  0.9277
25691SOL     OW78523   0.888   7.733   4.879  0.1015  0.4919  0.1360
25691SOL    HW178524   0.972   7.722   4.835  0.1724  0.0181  0.3889
25691SOL    HW278525   0.867   7.826   4.868  1.2820  0.9048  1.1779
25692SOL     OW78526   7.276   6.393   0.532  0.1182  0.4609  0.2700
25692SOL    HW178527   7.230   6.457   0.477 -1.1705 -0.5526  0.1271
25692SOL    HW278528   7.211   6.367   0.597  0.8063 -0.3213  0.6612
25693SOL     OW78529   6.442   3.850   8.098 -0.9845  0.2670 -0.1173
25693SOL    HW178530   6.428   3.895   8.015 -0.3724  0.0984 -0.3163
25693SOL    HW278531   6.492   3.913   8.151 -0.2594 -0.1140 -0.3410
25694SOL     OW78532   4.983   4.782   7.502 -0.1236 -0.0200  0.4590
25694SOL    HW178533   5.042   4.721   7.546 -0.1359 -0.4788 -0.1438
25694SOL    HW278534   4.953   4.841   7.571  0.3857 -0.3028  0.9263
25695SOL     OW78535   7.411   6.937   6.730 -0.0811 -0.5982  0.3721
25695SOL    HW178536   7.404   6.848   6.763  0.6189 -0.5283  0.7419
25695SOL    HW278537   7.458   6.928   6.647 -2.2489 -0.8222 -0.8872
25696SOL     OW78538   5.303   8.851   6.302 -0.4875 -0.0263 -0.6143
25696SOL    HW178539   5.371   8.796   6.263  0.6758  0.1960  1.0204
25696SOL    HW278540   5.236   8.788   6.332  1.8566 -1.0093  3.3363
25697SOL     OW78541   5.316   0.505   7.715 -0.6013  0.6639  0.1881
25697SOL    HW178542   5.312   0.598   7.692 -1.9175  0.9085  1.2811
25697SOL    HW278543   5.231   0.470   7.688  0.1454 -0.4200 -0.8740
25698SOL     OW78544   5.758   5.184   8.729 -0.1838 -0.1069 -0.5223
25698SOL    HW178545   5.813   5.245   8.680  0.4231  0.0697  0.3576
25698SOL    HW278546   5.695   5.241   8.774 -0.4037 -0.2275 -0.6756
25699SOL     OW78547   3.215   5.077   7.870 -0.0242  0.5656  0.1681
25699SOL    HW178548   3.238   5.157   7.917 -0.2713 -0.4357  2.1025
25699SOL    HW278549   3.169   5.107   7.792  0.3068  2.3137  0.6091
25700SOL     OW78550   2.876   3.883   8.119 -0.5778 -0.4343  0.1734
25700SOL    HW178551   2.921   3.817   8.067  0.4812 -0.0633  0.5751
25700SOL    HW278552   2.943   3.913   8.181 -1.6425 -0.4574  1.3571
25701SOL     OW78553   2.325   8.524   3.885 -0.3627 -0.1310  0.4630
25701SOL    HW178554   2.239   8.566   3.886  0.4052  1.5186 -0.1657
25701SOL    HW278555   2.355   8.528   3.976  0.5486  2.5899  0.1183
25702SOL     OW78556   5.994   9.025   6.891  0.7168  0.7713  0.6971
25702SOL    HW178557   5.930   9.082   6.934 -1.1248 -0.1278 -0.7007
25702SOL    HW278558   6.052   8.996   6.961 -1.0421  0.8024  2.2421
25703SOL     OW78559   0.157   3.513   5.947 -0.0504 -0.5190  0.6665
25703SOL    HW178560   0.117   3.454   6.011 -0.4975  0.7396  1.5872
25703SOL    HW278561   0.099   3.589   5.946  0.5324 -0.0740 -0.4730
25704SOL     OW78562   7.831   6.192   7.422  0.1507  0.5476  0.3104
25704SOL    HW178563   7.891   6.118   7.435 -0.0703  0.4870  1.0326
25704SOL    HW278564   7.769   6.185   7.494 -1.0183  0.3452 -0.6746
25705SOL     OW78565   3.463   4.192   3.671  0.0879  0.5537  0.5219
25705SOL    HW178566   3.496   4.134   3.740  1.9476  2.7202  1.5566
25705SOL    HW278567   3.403   4.252   3.716 -1.0457  0.1262 -0.3557
25706SOL     OW78568   6.999   6.314   3.580  0.3313 -0.0603  0.5395
25706SOL    HW178569   6.904   6.323   3.569  0.3407 -0.0054  0.5032
25706SOL    HW278570   7.009   6.239   3.638  0.1887  1.2639  2.3481
25707SOL     OW78571   1.769   8.928   2.025  0.5355  0.0734 -0.7618
25707SOL    HW178572   1.750   8.925   2.118  0.1777 -1.6819 -0.8639
25707SOL    HW278573   1.831   9.001   2.015 -0.6919  1.3594  0.5806
25708SOL     OW78574   6.917   7.598   2.687  0.5074 -0.0749 -0.2835
25708SOL    HW178575   6.826   7.571   2.701  0.0623  1.8540  0.9626
25708SOL    HW278576   6.911   7.692   2.670  2.3727  0.3420  1.1016
25709SOL     OW78577   4.335   1.964   0.593 -0.3906  0.2040  0.3069
25709SOL    HW178578   4.274   2.028   0.628  0.8880  1.3624  0.4806
25709SOL    HW278579   4.326   1.970   0.498 -0.5064  0.4121  0.3322
25710SOL     OW78580   7.628   3.810   1.409  0.5409 -0.2798 -0.7985
25710SOL    HW178581   7.596   3.774   1.326 -1.6071  0.1175 -0.1985
25710SOL    HW278582   7.566   3.879   1.431  2.6624  1.5446 -0.2146
25711SOL     OW78583   2.422   2.694   9.270 -0.0292  0.0992  0.3380
25711SOL    HW178584   2.484   2.638   9.316  2.0856 -0.4232 -2.8032
25711SOL    HW278585   2.450   2.691   9.179 -2.9504  2.2686 -0.8070
25712SOL     OW78586   9.168   0.196   0.828  0.2002  0.1225  0.3813
25712SOL    HW178587   9.262   0.181   0.823 -0.1289 -1.8380 -2.9597
25712SOL    HW278588   9.151   0.266   0.765 -0.6017  0.6891  1.1872
25713SOL     OW78589   8.409   1.446   0.536  0.0255 -0.4438  0.1444
25713SOL    HW178590   8.340   1.474   0.476 -0.2495  1.4829  1.2849
25713SOL    HW278591   8.489   1.487   0.500  0.0920 -0.3971  0.3453
25714SOL     OW78592   7.149   3.471   6.801 -0.1956  0.2411 -0.4585
25714SOL    HW178593   7.180   3.561   6.793 -0.5932  0.4308  0.1230
25714SOL    HW278594   7.154   3.451   6.894 -0.8210 -0.0814 -0.4848
25715SOL     OW78595   4.079   6.967   7.001 -0.4394 -0.3492  0.0477
25715SOL    HW178596   4.113   6.877   7.002 -1.0170 -0.6404 -2.0506
25715SOL    HW278597   4.125   7.011   7.072  0.8070 -1.9643  0.2912
25716SOL     OW78598   5.392   2.010   3.544 -0.9678  0.0488  0.2144
25716SOL    HW178599   5.470   1.954   3.545  1.8055  3.5785  0.3240
25716SOL    HW278600   5.351   1.991   3.460  0.2696 -1.5482 -0.0988
25717SOL     OW78601   3.532   6.123   5.246 -0.1608  0.1961  0.1034
25717SOL    HW178602   3.532   6.214   5.217 -0.4215 -0.1737 -1.1353
25717SOL    HW278603   3.624   6.105   5.269  0.2911  0.2060 -1.5816
25718SOL     OW78604   1.481   6.437   3.183 -0.1187  0.2361  0.0377
25718SOL    HW178605   1.545   6.381   3.140  1.2963  1.0605  0.9997
25718SOL    HW278606   1.442   6.381   3.250  0.6613  0.1222  0.4133
25719SOL     OW78607   9.130   6.210   1.037 -0.7835 -0.1229  0.6820
25719SOL    HW178608   9.217   6.169   1.031 -1.9297 -2.5422 -1.6705
25719SOL    HW278609   9.081   6.153   1.096 -1.2938  0.1809  0.5534
25720SOL     OW78610   0.482   1.360   6.212 -0.0905  0.2687  0.0537
25720SOL    HW178611   0.524   1.345   6.128  1.2105 -1.4662  0.9517
25720SOL    HW278612   0.554   1.376   6.272 -0.7514 -1.3728  1.3735
25721SOL     OW78613   7.806   9.111   1.711 -0.0197 -0.0501 -0.3359
25721SOL    HW178614   7.822   9.205   1.701 -0.2369 -0.2031 -2.7118
25721SOL    HW278615   7.891   9.070   1.696 -0.1987 -0.2807 -0.7464
25722SOL     OW78616   6.754   3.166   8.730 -0.2604 -0.3482 -0.2443
25722SOL    HW178617   6.848   3.166   8.752 -0.4398 -1.2820  0.5703
25722SOL    HW278618   6.731   3.074   8.723 -1.1788 -0.1259 -0.2005
25723SOL     OW78619   0.392   1.520   1.872 -0.0124 -0.2123 -0.3041
25723SOL    HW178620   0.377   1.583   1.801  1.9481 -0.5454 -1.0747
25723SOL    HW278621   0.487   1.510   1.875 -0.1137 -0.8410  1.8525
25724SOL     OW78622   8.178   1.549   4.456 -0.2605 -0.2537  0.6853
25724SOL    HW178623   8.235   1.517   4.386  2.2859  0.8169  2.0825
25724SOL    HW278624   8.096   1.503   4.444  1.1015 -2.4274 -1.1378
25725SOL     OW78625   6.307   1.954   0.085 -0.7078 -0.4345 -0.4049
25725SOL    HW178626   6.326   1.865   0.115  0.5283 -0.9404 -2.4410
25725SOL    HW278627   6.232   1.944   0.027  0.6992 -0.5665 -2.2935
25726SOL     OW78628   2.200   5.279   5.472 -0.3935  0.7793 -0.3670
25726SOL    HW178629   2.124   5.313   5.519 -1.0852 -1.7503  0.5203
25726SOL    HW278630   2.178   5.290   5.379 -1.1152  1.5325 -0.1172
25727SOL     OW78631   6.558   4.699   8.551  0.0199  0.0599  0.3575
25727SOL    HW178632   6.604   4.650   8.619  0.8220  0.0229 -0.1983
25727SOL    HW278633   6.625   4.721   8.486 -1.0575 -1.7526 -1.5200
25728SOL     OW78634   2.160   4.585   6.315 -0.0832  0.3289 -0.0671
25728SOL    HW178635   2.191   4.595   6.225 -0.8993 -1.9798 -0.6800
25728SOL    HW278636   2.070   4.619   6.312 -0.3657 -0.4157 -0.3371
25729SOL     OW78637   4.833   8.259   0.067  0.1905  0.3002 -0.7527
25729SOL    HW178638   4.907   8.295   0.017  0.1153  0.4859 -0.7297
25729SOL    HW278639   4.767   8.239   0.001  0.2651  0.1276 -0.7740
25730SOL     OW78640   4.432   7.083   0.363  0.4240  0.0727  0.2755
25730SOL    HW178641   4.479   7.144   0.421 -0.0904 -1.4066  2.3467
25730SOL    HW278642   4.343   7.080   0.399 -0.0065 -0.6348 -0.8174
25731SOL     OW78643   4.562   3.995   4.136  0.1024 -0.3810 -0.4684
25731SOL    HW178644   4.611   4.041   4.068  1.4974 -1.1318 -0.0068
25731SOL    HW278645   4.523   3.920   4.091 -1.2699  0.5924 -0.9862
25732SOL     OW78646   6.558   4.695   2.297  0.4791  0.1978  0.2162
25732SOL    HW178647   6.546   4.607   2.334  0.9765 -0.7304 -1.7108
25732SOL    HW278648   6.473   4.717   2.259  0.8472 -0.2543 -0.8998
25733SOL     OW78649   9.136   5.486   5.177 -0.0413 -0.1437  0.2798
25733SOL    HW178650   9.152   5.422   5.246 -0.7011 -0.2340  0.3560
25733SOL    HW278651   9.116   5.567   5.223  0.4644  0.0419  0.1836
25734SOL     OW78652   2.112   4.768   2.623 -0.1905 -0.5190 -0.1846
25734SOL    HW178653   2.033   4.717   2.610 -0.2762 -0.3361 -0.3710
25734SOL    HW278654   2.139   4.746   2.713  1.2953 -3.0291 -1.1287
25735SOL     OW78655   5.399   7.248   4.166  0.2564 -0.1584  0.4561
25735SOL    HW178656   5.348   7.222   4.243  1.4702 -0.1096  1.2962
25735SOL    HW278657   5.381   7.179   4.102  2.2816 -2.4636  2.1525
25736SOL     OW78658   6.804   4.848   0.395 -0.0263  0.3738  0.1876
25736SOL    HW178659   6.736   4.789   0.428 -0.7694  1.2896  0.3671
25736SOL    HW278660   6.886   4.804   0.413 -0.5883 -1.1780 -0.8314
25737SOL     OW78661   4.416   7.896   3.414  0.1005 -0.2589  0.3987
25737SOL    HW178662   4.393   7.980   3.375  1.0563 -0.1998 -0.0877
25737SOL    HW278663   4.379   7.830   3.354  0.4025 -0.1719  0.1112
25738SOL     OW78664   7.178   5.914   5.977 -0.0768  0.0058  0.7334
25738SOL    HW178665   7.098   5.923   6.029  0.1318  1.8643  0.8106
25738SOL    HW278666   7.148   5.924   5.886 -0.0017  0.2572  0.7346
25739SOL     OW78667   7.044   8.045   6.635  0.0799 -0.0325 -0.0459
25739SOL    HW178668   7.017   7.971   6.689  0.7732  0.6033  1.2084
25739SOL    HW278669   7.048   8.119   6.695  3.6017  0.1355 -0.2931
25740SOL     OW78670   1.931   8.369   0.912  0.4246  0.0157  0.6030
25740SOL    HW178671   1.878   8.391   0.989 -0.6060 -0.4907  0.0637
25740SOL    HW278672   1.987   8.298   0.942 -0.5326 -0.7287  0.7009
25741SOL     OW78673   3.677   7.875   4.364 -0.1133  0.2690 -0.0900
25741SOL    HW178674   3.603   7.934   4.381 -1.2671 -1.1692  0.0638
25741SOL    HW278675   3.646   7.789   4.392  1.5440 -0.4213 -0.2747
25742SOL     OW78676   3.794   3.535   8.436  0.2146  0.8141  0.2182
25742SOL    HW178677   3.823   3.539   8.345  0.6129  2.6132  0.3922
25742SOL    HW278678   3.850   3.467   8.476  1.6455  1.6183 -0.3432
25743SOL     OW78679   8.564   3.627   4.689 -0.0228  0.1166  0.3491
25743SOL    HW178680   8.636   3.593   4.636 -0.7230  0.4911 -0.8792
25743SOL    HW278681   8.533   3.704   4.641 -3.2698 -1.7667 -0.9022
25744SOL     OW78682   4.962   8.913   2.821 -0.3716 -0.3960  0.6083
25744SOL    HW178683   4.992   8.973   2.753 -0.8084  1.6508  2.1103
25744SOL    HW278684   4.867   8.925   2.823 -0.2463  0.6377  2.4440
25745SOL     OW78685   1.794   3.721   0.716 -0.0588 -0.3045 -0.8778
25745SOL    HW178686   1.878   3.757   0.687  0.6493 -1.7386 -0.6907
25745SOL    HW278687   1.818   3.640   0.762 -1.5973 -1.0952 -1.4259
25746SOL     OW78688   2.161   8.761   1.549  0.1916 -0.2932 -0.2731
25746SOL    HW178689   2.155   8.726   1.638  0.5928  1.7415  0.6225
25746SOL    HW278690   2.239   8.815   1.550  0.3094 -0.3848 -1.9453
25747SOL     OW78691   3.619   8.611   2.233  0.3185  0.9127  0.4134
25747SOL    HW178692   3.542   8.600   2.288  1.0937  0.8769  1.5377
25747SOL    HW278693   3.679   8.543   2.263  0.3476  0.1689 -1.2554
25748SOL     OW78694   6.975   5.646   3.899  0.2656  0.3754  0.3331
25748SOL    HW178695   6.936   5.732   3.883 -0.4122  0.0537  0.2026
25748SOL    HW278696   6.914   5.584   3.859 -0.2817 -0.2934  2.0750
25749SOL     OW78697   3.457   0.156   4.308 -0.3316  0.0301  0.1446
25749SOL    HW178698   3.425   0.154   4.218 -0.7295 -3.1438  0.2601
25749SOL    HW278699   3.378   0.168   4.361 -0.1830  1.1466  0.1397
25750SOL     OW78700   0.060   3.115   2.210 -0.2109 -0.1681  0.1636
25750SOL    HW178701   0.018   3.153   2.133 -1.4917 -1.8384 -0.0248
25750SOL    HW278702   0.139   3.072   2.175 -0.3949 -0.2943 -0.1020
25751SOL     OW78703   4.191   4.387   3.892 -0.1079 -0.4228  0.2868
25751SOL    HW178704   4.276   4.396   3.935 -0.0762  0.2175  0.0991
25751SOL    HW278705   4.146   4.319   3.942  0.7365 -1.1905  0.0286
25752SOL     OW78706   0.992   3.126   7.669 -0.3455 -0.2603 -0.1219
25752SOL    HW178707   0.981   3.163   7.757 -1.0860 -0.9342  0.0876
25752SOL    HW278708   0.905   3.090   7.648 -0.3647  0.5059 -1.4144
25753SOL     OW78709   1.336   0.392   2.451  0.7173  0.4136 -0.1664
25753SOL    HW178710   1.294   0.414   2.368 -0.2524 -0.3080  0.1209
25753SOL    HW278711   1.416   0.346   2.426  1.2788  1.6338 -0.7137
25754SOL     OW78712   0.728   5.528   2.936 -0.0663  0.2609  0.2592
25754SOL    HW178713   0.686   5.614   2.935 -1.3458 -0.3386  0.2721
25754SOL    HW278714   0.791   5.532   2.864 -0.6732  0.9483 -0.2562
25755SOL     OW78715   4.413   6.091   6.038 -0.0213 -0.5532  0.6531
25755SOL    HW178716   4.336   6.059   6.086 -0.9184 -0.3240 -0.5814
25755SOL    HW278717   4.396   6.185   6.028  0.3656 -0.5250  0.2627
25756SOL     OW78718   6.827   9.251   2.579  0.4420  0.3397  0.2860
25756SOL    HW178719   6.900   9.298   2.618  0.8695  0.5302 -0.6986
25756SOL    HW278720   6.864   9.166   2.554 -0.1932 -0.3547  1.5855
25757SOL     OW78721   7.255   0.938   1.733 -0.0044  0.4214  0.7659
25757SOL    HW178722   7.160   0.928   1.736 -0.2616  0.4444 -2.6528
25757SOL    HW278723   7.270   1.032   1.742 -0.2182  0.3614  1.8853
25758SOL     OW78724   7.913   0.609   2.164 -0.3593 -0.1474  0.2816
25758SOL    HW178725   7.921   0.516   2.187  0.2889 -0.0918  0.2991
25758SOL    HW278726   7.963   0.655   2.232 -0.5336  0.2014  0.1748
25759SOL     OW78727   0.445   7.919   4.389  0.3630  0.9813  0.1111
25759SOL    HW178728   0.413   7.973   4.461 -1.8370 -0.7834  0.5760
25759SOL    HW278729   0.380   7.931   4.319  1.9753  1.9520 -1.2758
25760SOL     OW78730   5.355   7.372   5.599 -0.0186  0.5552  0.7543
25760SOL    HW178731   5.331   7.402   5.687  0.8903  0.0862  1.1783
25760SOL    HW278732   5.411   7.296   5.614 -1.7446 -1.0171 -0.2820
25761SOL     OW78733   0.424   2.031   9.196  0.0245  0.0253 -0.2173
25761SOL    HW178734   0.479   2.062   9.125  0.0826  0.0347 -0.1686
25761SOL    HW278735   0.349   2.091   9.196 -0.2346 -0.2932 -0.6033
25762SOL     OW78736   8.217   7.300   5.620  0.2661 -0.1684 -0.0121
25762SOL    HW178737   8.268   7.245   5.561  1.8905  0.1038  1.0579
25762SOL    HW278738   8.160   7.351   5.563  1.9947  0.3111 -1.3977
25763SOL     OW78739   1.103   5.230   1.659  0.0655  0.0443  0.0357
25763SOL    HW178740   1.038   5.295   1.687 -0.5165 -0.0577 -0.9976
25763SOL    HW278741   1.053   5.150   1.647  0.9512 -0.9225  2.2781
25764SOL     OW78742   2.416   3.729   8.736  0.0520  0.6048  0.1541
25764SOL    HW178743   2.331   3.748   8.696  0.2084  0.1894 -0.3864
25764SOL    HW278744   2.473   3.707   8.662  0.1540 -0.9202  0.6471
25765SOL     OW78745   7.027   0.798   6.473 -0.1576  0.2854  0.0266
25765SOL    HW178746   6.933   0.805   6.487 -0.2271  0.4106 -0.4646
25765SOL    HW278747   7.039   0.826   6.382  0.4136  0.7549  0.2430
25766SOL     OW78748   9.043   2.186   5.064 -0.4055 -0.2687  0.0558
25766SOL    HW178749   9.045   2.177   4.969 -1.3783 -2.3078  0.1858
25766SOL    HW278750   9.083   2.272   5.080  1.2561 -0.5535 -2.0687
25767SOL     OW78751   5.111   3.588   7.444  0.0755 -0.7360  0.2052
25767SOL    HW178752   5.190   3.546   7.410  0.4764 -0.6867  1.0592
25767SOL    HW278753   5.110   3.674   7.404 -0.4688 -1.3328 -1.1477
25768SOL     OW78754   5.018   2.723   1.943  0.4343 -0.4252  0.4264
25768SOL    HW178755   4.970   2.804   1.960 -0.0709 -0.2257 -1.7367
25768SOL    HW278756   5.108   2.744   1.967  0.1833  0.5594  0.5549
25769SOL     OW78757   5.078   0.946   3.697 -0.2856 -0.8284 -0.1995
25769SOL    HW178758   5.110   1.018   3.642 -1.8622 -0.7637 -1.1119
25769SOL    HW278759   4.983   0.958   3.698 -0.3354 -0.9166  2.4979
25770SOL     OW78760   7.843   4.896   3.588 -0.0049 -0.1381  0.5486
25770SOL    HW178761   7.929   4.887   3.629 -0.2093 -1.1224  0.7881
25770SOL    HW278762   7.847   4.980   3.543  0.8583  0.1267  1.0841
25771SOL     OW78763   1.736   5.089   1.942 -0.8450  0.0298 -0.0178
25771SOL    HW178764   1.766   5.164   1.891  1.7330 -0.8586  0.0106
25771SOL    HW278765   1.655   5.062   1.900 -0.2851  1.0466 -1.8804
25772SOL     OW78766   1.385   4.462   3.802 -0.0502 -0.0654  0.2122
25772SOL    HW178767   1.430   4.516   3.737 -1.0734  0.5941  0.0323
25772SOL    HW278768   1.434   4.476   3.883  1.7824 -1.5851 -0.5575
25773SOL     OW78769   6.814   3.181   6.200 -0.5507 -0.0535 -0.1600
25773SOL    HW178770   6.838   3.149   6.287  1.0987  1.0855 -0.1483
25773SOL    HW278771   6.719   3.182   6.200 -0.5762 -0.0126  1.6693
25774SOL     OW78772   6.669   2.610   5.959 -0.3460 -0.6695  0.6132
25774SOL    HW178773   6.581   2.627   5.925 -0.3234  0.1495  0.9406
25774SOL    HW278774   6.705   2.544   5.899 -1.9132 -2.6072  1.6736
25775SOL     OW78775   1.093   3.268   7.082  0.2520  0.2693  0.2752
25775SOL    HW178776   1.144   3.223   7.014 -1.6941 -1.0308 -0.4239
25775SOL    HW278777   1.153   3.278   7.155  1.5870 -0.9251 -0.6050
25776SOL     OW78778   0.390   5.721   3.837  0.0637  0.6200  0.2370
25776SOL    HW178779   0.353   5.762   3.915 -2.4508 -0.3054 -0.3805
25776SOL    HW278780   0.314   5.691   3.787  1.6464 -0.2071 -1.8179
25777SOL     OW78781   7.848   8.964   7.993  0.2940  0.1022  0.4535
25777SOL    HW178782   7.836   8.902   7.921 -4.2657  1.3423 -0.1808
25777SOL    HW278783   7.865   8.910   8.069  0.2069 -1.6327 -0.6997
25778SOL     OW78784   4.041   2.158   1.186 -0.2154 -0.0182  0.0227
25778SOL    HW178785   4.003   2.121   1.266 -1.1796  2.4450  0.7871
25778SOL    HW278786   3.965   2.183   1.133  0.3905  0.5130 -0.6161
25779SOL     OW78787   0.227   1.295   0.125  0.0603  0.4398  0.4017
25779SOL    HW178788   0.162   1.352   0.167  0.2243  0.2191  0.9594
25779SOL    HW278789   0.286   1.355   0.080 -0.1220  0.6778  0.4773
25780SOL     OW78790   7.404   2.898   6.289 -0.2044 -0.5090 -0.2178
25780SOL    HW178791   7.401   2.885   6.384  0.3552 -1.4999 -0.3190
25780SOL    HW278792   7.329   2.954   6.270  0.0221  0.2135  0.8796
25781SOL     OW78793   0.799   3.450   5.645  0.1187 -0.3609 -0.9792
25781SOL    HW178794   0.740   3.414   5.711 -0.9274  0.8394 -1.2333
25781SOL    HW278795   0.799   3.544   5.662  0.1544 -0.0867 -2.4308
25782SOL     OW78796   0.314   5.208   8.038 -0.3165  0.5849 -0.3149
25782SOL    HW178797   0.228   5.169   8.050  0.2552 -0.5234  0.3509
25782SOL    HW278798   0.376   5.141   8.068  0.7848  1.3305 -0.8199
25783SOL     OW78799   1.337   4.050   2.067 -0.3512 -0.0847  0.1326
25783SOL    HW178800   1.357   4.094   1.984 -0.1729  0.2856  0.3707
25783SOL    HW278801   1.335   4.120   2.131 -0.6999 -0.3462  0.4098
25784SOL     OW78802   9.016   3.002   4.967  0.0424 -0.1425 -0.1901
25784SOL    HW178803   8.974   3.086   4.980  0.6314  0.0943  0.2161
25784SOL    HW278804   9.085   2.999   5.033  1.7428  0.1871 -1.8768
25785SOL     OW78805   0.402   8.665   1.206 -0.1509  0.2903 -0.1913
25785SOL    HW178806   0.476   8.716   1.172 -0.9136  0.5411 -1.5871
25785SOL    HW278807   0.435   8.624   1.286  1.1669  1.2094 -0.2309
25786SOL     OW78808   6.537   8.873   2.300  0.2792  0.3901  0.2417
25786SOL    HW178809   6.588   8.902   2.376 -0.9515  1.0201  0.8612
25786SOL    HW278810   6.460   8.831   2.337 -0.9200  1.7239 -0.6163
25787SOL     OW78811   2.515   6.731   6.968  0.1323  0.2685 -0.3145
25787SOL    HW178812   2.453   6.664   6.937  0.2153  0.3800 -0.7274
25787SOL    HW278813   2.555   6.692   7.046  0.8667 -0.5578 -1.0916
25788SOL     OW78814   7.243   3.342   4.029 -0.3363  0.3152  0.4835
25788SOL    HW178815   7.200   3.360   4.112  1.8532 -2.4211  2.4014
25788SOL    HW278816   7.197   3.266   3.994 -1.9586  2.0885 -1.5275
25789SOL     OW78817   8.825   9.019   6.357  0.1533 -0.0854 -0.3818
25789SOL    HW178818   8.816   9.105   6.398  1.7160 -0.5227  1.0173
25789SOL    HW278819   8.747   9.009   6.303 -2.8175  0.0482  3.4589
25790SOL     OW78820   4.302   5.264   5.674 -0.5477  0.1913 -0.1233
25790SOL    HW178821   4.240   5.227   5.611 -2.3371  2.7813 -0.0523
25790SOL    HW278822   4.351   5.329   5.624  0.5678 -0.2588  0.3587
25791SOL     OW78823   3.620   6.305   0.431  0.4703  0.3692 -0.3598
25791SOL    HW178824   3.631   6.378   0.492 -1.7237  0.9088 -0.5331
25791SOL    HW278825   3.640   6.342   0.345  0.9784  0.3136 -0.2672
25792SOL     OW78826   1.052   7.379   8.168 -0.1279  0.2105 -0.2389
25792SOL    HW178827   1.111   7.410   8.100 -0.2009  1.0998  0.0797
25792SOL    HW278828   1.029   7.458   8.217 -0.4957 -0.3314  0.4863
25793SOL     OW78829   5.774   4.470   1.906 -0.2688 -0.0016  0.5453
25793SOL    HW178830   5.724   4.420   1.841 -0.0566 -0.1777  0.5181
25793SOL    HW278831   5.820   4.537   1.855  1.3864 -1.3056  0.2629
25794SOL     OW78832   5.545   8.359   4.898  0.2512  0.6327  0.1787
25794SOL    HW178833   5.569   8.444   4.934 -0.4735  0.5734  0.8401
25794SOL    HW278834   5.483   8.323   4.962  0.5684 -0.3986 -0.0823
25795SOL     OW78835   2.403   1.764   5.562 -0.6193 -0.1764  0.8638
25795SOL    HW178836   2.447   1.741   5.644  1.9993 -0.1010 -0.3968
25795SOL    HW278837   2.365   1.850   5.579  0.8546  0.3512  1.7074
25796SOL     OW78838   0.504   0.473   5.100  0.3416 -0.3272 -0.2075
25796SOL    HW178839   0.430   0.481   5.040  0.3443 -1.8154 -0.4567
25796SOL    HW278840   0.470   0.422   5.173  0.6208  0.5957  0.5867
25797SOL     OW78841   3.157   2.362   6.736 -0.4158 -0.2516  0.2215
25797SOL    HW178842   3.078   2.308   6.738 -0.0609 -0.7685  0.5892
25797SOL    HW278843   3.210   2.329   6.808  0.3195 -0.1821 -0.2770
25798SOL     OW78844   8.228   3.016   2.804 -0.1266 -0.2876 -0.0984
25798SOL    HW178845   8.274   2.951   2.857  1.4021 -0.5291 -1.6613
25798SOL    HW278846   8.253   3.100   2.842  0.6726 -0.4728 -0.2024
25799SOL     OW78847   3.782   2.655   4.927 -0.0418  0.1529  0.7978
25799SOL    HW178848   3.725   2.670   4.851 -2.3635 -3.0664  1.6578
25799SOL    HW278849   3.737   2.700   4.999  0.7135  0.9493  0.7834
25800SOL     OW78850   6.801   7.317   4.607  0.3857  0.2460  0.0200
25800SOL    HW178851   6.806   7.249   4.673 -1.4386 -1.7414 -1.7387
25800SOL    HW278852   6.893   7.333   4.582  0.8424 -2.2739 -0.1591
25801SOL     OW78853   1.894   0.847   3.850 -0.5177  0.5227 -0.1504
25801SOL    HW178854   1.903   0.784   3.779 -0.1085 -0.6442  0.8949
25801SOL    HW278855   1.802   0.874   3.847 -0.8783 -0.6476 -0.2207
25802SOL     OW78856   3.190   3.894   1.233 -0.2272 -0.3460  0.2058
25802SOL    HW178857   3.223   3.834   1.300  2.8136 -0.2539 -1.0306
25802SOL    HW278858   3.212   3.981   1.268  2.3909 -0.3254 -1.2149
25803SOL     OW78859   0.294   6.216   7.135  0.3025 -0.0751  0.5937
25803SOL    HW178860   0.344   6.137   7.155  0.8171 -0.0242 -0.4122
25803SOL    HW278861   0.228   6.186   7.072 -0.3984  0.0322  1.2603
25804SOL     OW78862   1.824   8.224   7.240  0.3209  0.6827  0.3302
25804SOL    HW178863   1.849   8.135   7.213  1.9378  0.4219  2.4340
25804SOL    HW278864   1.732   8.232   7.214  0.1207 -1.6308  0.1209
25805SOL     OW78865   5.998   7.291   5.982  0.0418 -0.1151 -0.0176
25805SOL    HW178866   6.089   7.276   6.006 -0.0566  0.5854  0.8550
25805SOL    HW278867   5.975   7.374   6.024 -0.6641  0.2990 -1.1722
25806SOL     OW78868   0.336   1.579   8.381 -0.6268  0.1959 -0.4796
25806SOL    HW178869   0.393   1.509   8.411 -0.4305  0.5221 -0.0825
25806SOL    HW278870   0.373   1.659   8.419 -2.0016  0.2896  0.7724
25807SOL     OW78871   3.047   7.523   8.580 -0.2215 -0.3314 -0.1180
25807SOL    HW178872   2.960   7.486   8.595  0.1119 -0.4372  1.7489
25807SOL    HW278873   3.057   7.589   8.649  1.0794 -0.1310 -0.4752
25808SOL     OW78874   3.943   4.338   0.130 -0.0404  0.1627  0.1769
25808SOL    HW178875   4.033   4.314   0.153 -0.2092 -0.6837 -0.0115
25808SOL    HW278876   3.952   4.418   0.078  0.6985 -0.5643 -0.8466
25809SOL     OW78877   1.210   5.943   0.358 -0.4032  0.0260  0.4124
25809SOL    HW178878   1.262   6.021   0.377 -0.9050 -0.2372  3.2404
25809SOL    HW278879   1.273   5.871   0.362 -0.3805  0.0334  0.2295
25810SOL     OW78880   3.551   6.823   7.765  0.3457  0.2393  0.4148
25810SOL    HW178881   3.514   6.740   7.736  1.8690  0.3893 -2.3334
25810SOL    HW278882   3.506   6.889   7.712  0.7081  0.9505  0.9757
25811SOL     OW78883   0.111   3.553   7.131  0.5824  0.3462  0.1744
25811SOL    HW178884   0.081   3.469   7.166  2.3507 -0.5924 -0.4484
25811SOL    HW278885   0.098   3.615   7.204  1.5346 -0.9777  1.5263
25812SOL     OW78886   1.580   5.553   2.440 -0.2584  0.2347  0.2014
25812SOL    HW178887   1.526   5.596   2.506  2.1298  0.6023  2.0655
25812SOL    HW278888   1.639   5.497   2.490 -0.0773 -1.5406 -1.8544
25813SOL     OW78889   0.506   4.084   8.597  0.1291  0.3256 -0.5587
25813SOL    HW178890   0.428   4.033   8.621 -0.9168  1.0062 -2.3306
25813SOL    HW278891   0.484   4.122   8.512  2.1630  1.0766 -0.7902
25814SOL     OW78892   3.639   4.177   0.536  0.2400  0.4981 -0.3075
25814SOL    HW178893   3.625   4.098   0.588  0.0097  0.1049 -0.9625
25814SOL    HW278894   3.698   4.231   0.589  0.4839 -0.1599  0.0897
25815SOL     OW78895   7.200   5.051   5.406  0.3873 -0.1534 -0.0272
25815SOL    HW178896   7.169   4.980   5.348 -0.1485  1.9323 -2.4926
25815SOL    HW278897   7.295   5.042   5.407  0.2697 -1.7367  0.9311
25816SOL     OW78898   7.632   3.020   1.344 -0.3163  0.2491 -0.3399
25816SOL    HW178899   7.606   2.995   1.255 -1.3811 -3.4763  0.8510
25816SOL    HW278900   7.565   2.981   1.400  1.7843  0.1160  2.2415
25817SOL     OW78901   2.691   8.000   2.623 -0.1078 -0.0770  0.0711
25817SOL    HW178902   2.740   8.011   2.704  2.7546 -0.7070 -1.4593
25817SOL    HW278903   2.705   8.081   2.574 -1.5959  0.2010  0.0604
25818SOL     OW78904   9.185   1.479   8.511  0.1524 -0.6226 -0.3079
25818SOL    HW178905   9.104   1.512   8.472  1.3290 -1.2848 -3.6608
25818SOL    HW278906   9.165   1.389   8.536 -0.0901 -0.9410 -1.5539
25819SOL     OW78907   1.865   1.221   6.657 -0.3064 -0.4855 -0.0862
25819SOL    HW178908   1.775   1.190   6.655 -0.7082  0.6228  0.1433
25819SOL    HW278909   1.876   1.268   6.574 -0.5109  0.8669  0.6254
25820SOL     OW78910   7.097   3.331   5.339  0.0072  0.2565  0.0149
25820SOL    HW178911   7.061   3.262   5.282 -0.2503  0.7160 -0.3842
25820SOL    HW278912   7.159   3.284   5.396 -1.1673 -0.5280  0.6814
25821SOL     OW78913   5.316   5.357   7.061 -0.3825 -0.0967 -0.6695
25821SOL    HW178914   5.258   5.432   7.067  0.1372  0.1996  1.2964
25821SOL    HW278915   5.404   5.393   7.074 -0.0381 -0.9113 -0.6680
25822SOL     OW78916   1.725   8.876   3.064  0.1230 -0.1437 -0.2183
25822SOL    HW178917   1.695   8.869   3.155  0.5154  2.1828  0.1528
25822SOL    HW278918   1.651   8.916   3.019  0.8644  1.1395 -0.3346
25823SOL     OW78919   1.700   4.637   5.182 -0.2992 -0.0896 -0.3396
25823SOL    HW178920   1.724   4.729   5.197 -0.6628 -0.0687  0.1637
25823SOL    HW278921   1.604   4.638   5.178 -0.3131 -0.4706 -0.1597
25824SOL     OW78922   8.359   5.450   7.574 -0.0412 -0.0421 -0.3041
25824SOL    HW178923   8.374   5.443   7.668  0.9409  2.0255 -0.2486
25824SOL    HW278924   8.378   5.363   7.539 -0.3493 -0.8128  1.3775
25825SOL     OW78925   2.068   0.484   7.766 -0.0231  0.2406 -0.1691
25825SOL    HW178926   2.090   0.414   7.828 -0.6054 -0.2328 -0.4914
25825SOL    HW278927   2.111   0.562   7.802  0.4305 -0.2259  0.3236
25826SOL     OW78928   4.825   8.881   9.170 -0.2635  0.0222  0.4108
25826SOL    HW178929   4.837   8.936   9.092 -0.4124 -0.3080  0.1529
25826SOL    HW278930   4.731   8.864   9.174 -0.1313 -0.8915  0.0129
25827SOL     OW78931   0.991   1.531   4.808 -0.1932  0.0736  0.4115
25827SOL    HW178932   0.948   1.612   4.835  0.8103  0.8830 -0.3438
25827SOL    HW278933   1.019   1.548   4.718 -1.9469 -1.9344 -0.6146
25828SOL     OW78934   5.322   1.366   8.549 -0.3690 -1.1197  0.5577
25828SOL    HW178935   5.242   1.351   8.600  0.2943 -0.7528  1.7214
25828SOL    HW278936   5.353   1.278   8.527 -0.8976 -1.2720  0.3932
25829SOL     OW78937   6.352   1.842   8.481 -0.3324  0.0368  0.7071
25829SOL    HW178938   6.403   1.767   8.450  1.3440  0.9100  1.2309
25829SOL    HW278939   6.309   1.811   8.560 -1.9586 -1.1934 -0.5773
25830SOL     OW78940   4.947   0.183   9.006 -0.0691  0.1198 -0.1675
25830SOL    HW178941   4.994   0.100   9.013  2.1485  1.1398 -1.7041
25830SOL    HW278942   4.862   0.160   8.967 -0.6499 -1.6821  1.9545
25831SOL     OW78943   1.261   6.623   3.665 -0.3488  0.2428  0.6189
25831SOL    HW178944   1.351   6.597   3.647 -0.6816 -1.0328  0.6429
25831SOL    HW278945   1.255   6.713   3.634  1.1522  0.6425  1.3941
25832SOL     OW78946   6.323   7.560   4.608 -0.1325 -0.5288 -0.0080
25832SOL    HW178947   6.379   7.495   4.567  1.3300  0.5883  0.1364
25832SOL    HW278948   6.255   7.578   4.543  0.3497 -1.0542 -0.6596
25833SOL     OW78949   2.204   2.844   8.993  0.1308  0.7384 -0.2263
25833SOL    HW178950   2.175   2.826   8.903  1.7374  0.4705 -0.7432
25833SOL    HW278951   2.287   2.891   8.981 -0.3576  2.0239  1.1377
25834SOL     OW78952   7.129   0.220   8.851  0.0210  0.0823 -0.0889
25834SOL    HW178953   7.113   0.196   8.760  1.1835 -1.2984  0.0265
25834SOL    HW278954   7.084   0.304   8.863 -2.3426 -0.9369 -1.1894
25835SOL     OW78955   5.442   3.975   0.711  0.2687 -0.8023  0.5563
25835SOL    HW178956   5.453   4.053   0.767  1.4188 -1.6391  1.5525
25835SOL    HW278957   5.494   3.907   0.755  0.6697 -1.6785 -1.2088
25836SOL     OW78958   3.166   1.409   6.148 -0.1358  0.1474  0.4740
25836SOL    HW178959   3.166   1.457   6.066 -1.2641  0.8008  0.8325
25836SOL    HW278960   3.219   1.462   6.208  1.9600 -1.0713 -0.1992
25837SOL     OW78961   8.031   5.829   5.102 -0.2853 -0.0974  0.7730
25837SOL    HW178962   7.988   5.915   5.103 -1.1915 -0.5198  2.6905
25837SOL    HW278963   7.967   5.771   5.061  1.0241  0.3774 -2.2210
25838SOL     OW78964   5.606   4.664   4.672  0.0577  0.3614 -0.5503
25838SOL    HW178965   5.544   4.724   4.632 -1.4468 -0.7532  0.0491
25838SOL    HW278966   5.632   4.707   4.754 -2.1909 -0.4216  0.6389
25839SOL     OW78967   2.580   4.197   6.414  0.1271  0.1686  0.3222
25839SOL    HW178968   2.504   4.225   6.465 -0.0816 -0.0454  0.1270
25839SOL    HW278969   2.602   4.111   6.449  0.8908  0.6468  1.0584
25840SOL     OW78970   7.214   8.722   0.605 -0.0036 -0.3067  0.0506
25840SOL    HW178971   7.139   8.682   0.562  0.8679 -0.8545 -1.0036
25840SOL    HW278972   7.231   8.667   0.682 -0.5034 -0.3469  0.1304
25841SOL     OW78973   0.576   9.120   2.963  0.5431  0.3630 -0.0698
25841SOL    HW178974   0.520   9.062   3.013  1.5831  1.0339  2.0046
25841SOL    HW278975   0.650   9.065   2.937  1.3080  0.5894  1.5063
25842SOL     OW78976   6.550   7.904   3.378 -0.1397 -0.6603 -0.4285
25842SOL    HW178977   6.540   7.962   3.302 -0.2356 -0.5708 -0.3476
25842SOL    HW278978   6.592   7.958   3.444  0.1048 -0.7896 -0.4763
25843SOL     OW78979   2.493   7.491   2.081  0.5112 -0.3317  0.9118
25843SOL    HW178980   2.470   7.582   2.102  0.1099 -0.0159 -0.7528
25843SOL    HW278981   2.448   7.473   1.998  0.6081 -2.0497  1.1989
25844SOL     OW78982   5.333   3.068   4.512  0.0958 -0.1706  0.6431
25844SOL    HW178983   5.373   3.031   4.590 -1.1054 -0.4949  1.1183
25844SOL    HW278984   5.310   3.158   4.537 -3.5265 -1.2977  1.9335
25845SOL     OW78985   2.120   1.597   2.726  0.0171  0.5255 -0.5149
25845SOL    HW178986   2.204   1.608   2.683  1.0772  0.9363  1.5056
25845SOL    HW278987   2.059   1.652   2.677  0.4079 -1.2644 -3.1815
25846SOL     OW78988   0.499   3.321   1.343 -0.0611  0.3550  0.1374
25846SOL    HW178989   0.410   3.357   1.337  0.1415  0.8616  0.1214
25846SOL    HW278990   0.486   3.227   1.357 -0.6038  0.1293 -1.5912
25847SOL     OW78991   1.683   3.125   2.640  0.4730 -0.9335  0.3836
25847SOL    HW178992   1.615   3.149   2.578  0.0644  0.8252  1.4480
25847SOL    HW278993   1.691   3.030   2.632 -0.6548 -0.9227 -1.2084
25848SOL     OW78994   5.178   2.567   9.208  0.3248 -0.2808  0.0639
25848SOL    HW178995   5.131   2.526   9.135 -0.8034  1.1924 -0.0913
25848SOL    HW278996   5.270   2.545   9.193 -0.0170 -1.0213 -1.1131
25849SOL     OW78997   5.680   1.857   8.411 -0.1141  0.0677  0.4079
25849SOL    HW178998   5.654   1.930   8.354 -1.1693 -0.3861  0.2727
25849SOL    HW278999   5.632   1.873   8.493 -0.4132 -0.4996  0.3485
25850SOL     OW79000   6.805   2.776   8.382  0.0615  0.0816 -0.3033
25850SOL    HW179001   6.728   2.751   8.330  1.0347  0.8845 -2.2319
25850SOL    HW279002   6.800   2.872   8.386  0.1708  0.0490  0.8783
25851SOL     OW79003   2.506   1.869   1.191 -0.2094 -0.0966 -0.4991
25851SOL    HW179004   2.592   1.832   1.210 -0.2019  1.0105  2.0053
25851SOL    HW279005   2.516   1.963   1.206 -1.6413  0.1820 -1.0649
25852SOL     OW79006   7.352   2.163   3.860  0.0609  0.6873  0.4395
25852SOL    HW179007   7.437   2.122   3.871  0.0666 -0.0925 -1.9256
25852SOL    HW279008   7.358   2.211   3.777 -2.3859 -1.1810 -0.9652
25853SOL     OW79009   3.966   4.472   0.467 -0.2706  0.1019 -0.0321
25853SOL    HW179010   3.904   4.457   0.538 -2.0922 -1.1523 -1.7726
25853SOL    HW279011   4.020   4.393   0.465 -0.4880 -0.0400 -0.2953
25854SOL     OW79012   5.396   4.477   6.991 -0.5531 -0.1756 -0.1642
25854SOL    HW179013   5.357   4.458   6.905 -1.0773  0.0196  0.0281
25854SOL    HW279014   5.412   4.391   7.030 -1.6941 -0.2516  0.1578
25855SOL     OW79015   4.770   2.029   7.793 -0.5195  0.4452 -0.2567
25855SOL    HW179016   4.789   1.936   7.804  0.0657  0.6377  0.4834
25855SOL    HW279017   4.847   2.074   7.829 -1.0926  1.2220  0.0535
25856SOL     OW79018   1.532   6.511   1.918  0.7226  0.1146 -0.0734
25856SOL    HW179019   1.534   6.416   1.923  2.3685  0.0274 -1.5249
25856SOL    HW279020   1.464   6.530   1.852  0.9640 -0.0999 -0.3863
25857SOL     OW79021   4.815   4.376   4.392  0.3449 -0.2485  1.0294
25857SOL    HW179022   4.765   4.296   4.407 -1.0827  0.2477 -0.7332
25857SOL    HW279023   4.870   4.356   4.316 -0.0265  0.4080  0.5716
25858SOL     OW79024   2.071   6.164   4.986  0.2715  0.5154 -0.0534
25858SOL    HW179025   1.986   6.208   4.988 -0.7762 -1.4016 -0.1881
25858SOL    HW279026   2.052   6.073   5.007  2.0197 -0.4066 -2.0676
25859SOL     OW79027   2.648   5.769   4.526  0.0075 -0.2505  0.2171
25859SOL    HW179028   2.612   5.703   4.585 -0.8105  0.1607  0.1898
25859SOL    HW279029   2.732   5.792   4.565 -1.1436  1.0722  2.0737
25860SOL     OW79030   8.106   4.384   0.417 -0.1918 -0.4506  0.4065
25860SOL    HW179031   8.150   4.467   0.397 -2.4587  0.4694 -1.0623
25860SOL    HW279032   8.056   4.363   0.339 -0.8415 -2.4754  1.2944
25861SOL     OW79033   9.101   6.638   4.651  0.2764  0.2209  0.0907
25861SOL    HW179034   9.154   6.666   4.725  2.3303 -1.6350 -0.5604
25861SOL    HW279035   9.160   6.643   4.576 -0.6003 -1.4194 -0.7765
25862SOL     OW79036   2.738   8.493   2.458 -0.1397 -0.0472 -0.5273
25862SOL    HW179037   2.751   8.529   2.370  2.2233 -0.3596 -0.3664
25862SOL    HW279038   2.648   8.518   2.481 -0.3382  1.2422 -2.4565
25863SOL     OW79039   8.560   0.795   3.108 -0.3336  0.0913 -0.6038
25863SOL    HW179040   8.505   0.847   3.049 -0.0380 -0.3119 -1.2418
25863SOL    HW279041   8.501   0.771   3.181 -0.7378  0.4738 -0.8016
25864SOL     OW79042   7.119   0.406   7.170 -0.3005 -0.2289  0.1695
25864SOL    HW179043   7.163   0.464   7.232 -0.4961 -0.9256  0.9761
25864SOL    HW279044   7.127   0.451   7.086 -1.0036  1.2761  0.8749
25865SOL     OW79045   8.405   7.882   9.045 -0.1666  0.0995  0.1785
25865SOL    HW179046   8.418   7.833   8.964 -1.9021  0.4252 -0.3451
25865SOL    HW279047   8.365   7.819   9.105 -0.9024  0.4284  0.0434
25866SOL     OW79048   3.490   1.356   1.871  0.2682  0.3864  0.4431
25866SOL    HW179049   3.512   1.338   1.962  1.7036 -0.5759 -0.0562
25866SOL    HW279050   3.570   1.391   1.833  0.1004 -0.4795 -0.7701
25867SOL     OW79051   8.603   8.699   3.770  0.0319  0.3940  0.2199
25867SOL    HW179052   8.599   8.611   3.806  3.9627 -0.4908 -1.0076
25867SOL    HW279053   8.629   8.754   3.843  0.4594 -0.0058  0.3716
25868NA      NA79054   2.867   6.434   1.416  0.0167  0.5679 -0.1467
25869NA      NA79055   6.376   3.380   3.754  0.2048 -0.0434  0.4052
25870NA      NA79056   3.092   6.033   5.104  0.1349 -0.1328 -0.1143
25871NA      NA79057   6.336   2.761   1.318 -0.0110  0.6098  0.2707
25872NA      NA79058   4.662   3.883   1.543 -0.0068 -0.3005 -0.6953
25873NA      NA79059   7.189   3.925   3.984  0.0556 -0.4144 -0.2733
25874NA      NA79060   3.489   0.190   5.028 -0.2154 -0.0102  0.0950
25875NA      NA79061   7.714   3.646   3.088 -0.6412 -0.3832 -0.1130
25876NA      NA79062   7.590   9.170   1.326  0.1183 -0.0785  0.4755
25877NA      NA79063   7.729   6.360   0.407  0.4732  0.4574 -0.1309
25878NA      NA79064   0.366   3.751   7.538  0.0206 -0.0408 -0.4292
25879NA      NA79065   6.478   1.426   8.376  0.1962  0.3475 -0.2174
25880NA      NA79066   1.835   8.037   5.709  0.3347 -0.6063 -0.2067
25881NA      NA79067   2.150   3.859   6.509  0.3697 -0.3319  0.0646
25882NA      NA79068   5.887   4.543   5.624  0.2188  0.0833 -0.0456
25883NA      NA79069   0.464   2.131   2.917  0.0296  0.5730  0.4833
25884NA      NA79070   4.722   7.839   1.949 -0.0764  0.2139 -0.2437
25885NA      NA79071   2.764   8.998   2.398  0.0059  0.0046  0.1910
25886NA      NA79072   4.824   4.427   9.219 -0.3470  0.0520 -0.0252
25887NA      NA79073   5.627   5.974   2.148  0.0574 -0.1092  0.0986
25888NA      NA79074   4.832   6.449   0.296 -0.1530 -0.5039 -0.0791
25889NA      NA79075   0.314   7.433   3.270  0.1680 -0.3365 -0.2751
25890NA      NA79076   5.253   1.474   5.994  0.5057  0.0859 -0.0443
25891NA      NA79077   0.470   3.023   6.477  0.2437 -0.2077 -0.2504
25892NA      NA79078   6.450   5.049   1.347  0.2720  0.3288 -0.0057
25893NA      NA79079   2.123   4.399   9.166 -0.9579 -0.4989  0.2700
25894NA      NA79080   6.247   7.519   7.342  0.0763 -0.2795 -0.2884
25895NA      NA79081   0.434   7.713   8.209 -0.1257  0.3138  0.5129
25896NA      NA79082   4.090   4.664   4.459 -0.0088 -0.2031 -0.1221
25897NA      NA79083   7.708   4.036   5.845  0.0454 -0.5638 -0.0591
25898NA      NA79084   6.393   0.334   8.007  0.3680 -0.2466  0.1722
25899NA      NA79085   4.561   5.009   1.981  0.3485  0.5019  0.0583
25900NA      NA79086   9.148   2.384   0.727 -0.1504 -0.0151  0.5628
25901NA      NA79087   2.809   5.518   6.475 -0.3447 -0.1264 -0.1706
25902NA      NA79088   3.312   3.966   8.956  0.5310  0.5811  0.3883
25903NA      NA79089   4.736   5.358   6.644  0.5880  0.0674 -0.0629
25904NA      NA79090   0.823   7.591   5.270 -0.1347 -0.2191 -0.3084
25905NA      NA79091   8.266   3.672   6.792  0.5016 -0.5915 -0.0998
25906NA      NA79092   2.873   1.868   3.744  0.1822 -0.2701 -0.2066
25907NA      NA79093   7.597   0.719   0.493  0.4330  0.0842 -0.0290
25908NA      NA79094   5.899   1.991   5.698 -0.1003  0.0077 -0.1550
25909NA      NA79095   3.340   2.390   9.075  0.0280  0.1810  0.0565
25910NA      NA79096   4.856   8.417   2.180  0.2217 -0.5942 -0.1030
25911NA      NA79097   8.543   8.554   6.691 -0.1471 -0.8509  0.4229
25912NA      NA79098   6.104   7.946   0.233  0.1845 -0.5141 -0.0187
25913NA      NA79099   2.941   3.627   6.527  0.4071  0.3565  0.2586
25914NA      NA79100   7.447   4.370   0.426 -0.5142  0.2404  0.1394
25915NA      NA79101   2.929   4.037   5.493 -0.2440  0.0197 -0.0034
25916NA      NA79102   4.112   0.062   7.809 -0.4096  0.2142  0.1726
25917NA      NA79103   7.885   4.170   2.907  0.2914  0.0715  0.0771
25918NA      NA79104   9.079   9.138   6.047  0.1929  0.4518  0.0707
25919NA      NA79105   4.303   8.966   0.509 -0.2879 -0.2277  0.0549
25920NA      NA79106   0.914   5.748   4.496  0.5085 -0.0331  0.0301
25921NA      NA79107   5.151   6.194   9.094  0.5477 -0.1460 -0.1234
25922NA      NA79108   2.158   1.601   0.246 -0.5393 -0.5206 -0.2273
25923NA      NA79109   7.629   2.486   6.357  0.1848 -0.2769 -0.4633
25924NA      NA79110   3.229   8.566   6.106  0.5324 -0.6489 -0.0699
25925NA      NA79111   4.399   7.778   6.130  0.0813 -0.4807 -0.1872
25926NA      NA79112   3.605   7.099   8.429  0.7004  0.6682  0.0486
25927NA      NA79113   5.293   0.440   3.158 -0.2767 -0.2424 -0.0903
25928NA      NA79114   5.986   8.024   1.144  0.0252  0.4773  0.2745
25929NA      NA79115   5.895   3.133   2.046  0.2389 -0.5203 -0.3161
25930NA      NA79116   4.383   4.812   7.014  0.1178 -0.2235  0.0522
25931NA      NA79117   6.596   8.244   5.919 -0.7047  0.1218 -0.3024
25932NA      NA79118   4.811   3.056   4.459  0.5601  0.1266 -0.0622
25933NA      NA79119   4.159   1.358   4.673  0.1028 -0.0972  0.1425
25934NA      NA79120   8.232   6.615   6.438  0.2527  0.4251 -0.0028
25935NA      NA79121   4.971   9.134   8.547 -0.1137  0.0403  0.3930
25936NA      NA79122   2.521   0.891   6.326  0.2639 -0.4607  0.0474
25937NA      NA79123   8.222   8.549   7.379  0.2414  0.3721  0.6324
25938NA      NA79124   1.308   6.813   7.705  0.2531  0.1654 -0.3366
25939NA      NA79125   5.358   6.662   7.237 -0.0999 -0.2258 -0.3020
25940NA      NA79126   3.476   4.828   0.529 -0.3268 -0.5488 -0.0818
25941CL      CL79127   4.163   4.632   6.587  0.0662  0.1276  0.1685
25942CL      CL79128   2.691   5.767   4.898 -0.1034 -0.4425 -0.3099
25943CL      CL79129   4.952   3.855   3.796 -0.2036 -0.2045 -0.1751
25944CL      CL79130   1.157   0.935   3.612 -0.0974 -0.0473  0.0102
25945CL      CL79131   6.079   1.389   5.910  0.1127  0.0283  0.1737
25946CL      CL79132   0.675   8.086   5.559 -0.0246 -0.2668 -0.3229
25947CL      CL79133   1.660   4.003   6.263 -0.0121 -0.2963  0.0039
25948CL      CL79134   2.464   5.828   1.054  0.4214  0.0735 -0.1745
25949CL      CL79135   2.925   9.258   1.796  0.0559  0.0338 -0.2330
25950CL      CL79136   4.241   3.979   0.133 -0.0863 -0.0253 -0.1666
25951CL      CL79137   5.884   7.047   6.773  0.2172 -0.1214  0.0099
25952CL      CL79138   7.875   3.785   3.207  0.1640  0.0775  0.2220
25953CL      CL79139   9.182   8.464   4.280 -0.3880  0.2483  0.2586
25954CL      CL79140   2.736   8.572   4.646 -0.1598 -0.1944 -0.6248
25955CL      CL79141   8.973   8.354   8.904 -0.2071 -0.0851 -0.1765
25956CL      CL79142   2.688   9.023   2.626 -0.1762  0.0069 -0.3851
25957CL      CL79143   1.693   1.507   0.140  0.1192 -0.1980 -0.3651
25958CL      CL79144   9.132   3.943   6.182  0.0421 -0.4744 -0.2845
25959CL      CL79145   6.527   8.572   3.834  0.0214 -0.0572 -0.1166
25960CL      CL79146   3.358   6.345   4.846  0.3141  0.0370 -0.0586
25961CL      CL79147   8.964   2.349   0.884 -0.1732 -0.3687 -0.0883
25962CL      CL79148   9.172   7.091   6.468  0.0381  0.2233  0.6096
25963CL      CL79149   8.909   1.631   8.449 -0.2031  0.0182  0.3920
25964CL      CL79150   1.238   5.377   7.239 -0.4672  0.1721 -0.3772
25965CL      CL79151   9.190   7.316   7.660 -0.0020  0.1825 -0.0823
25966CL      CL79152   0.243   7.566   1.615 -0.3355 -0.2969  0.0681
25967CL      CL79153   8.853   2.007   3.345  0.5488 -0.0329  0.5336
25968CL      CL79154   1.911   3.034   4.247  0.4208  0.2363  0.3837
25969CL      CL79155   0.253   5.995   6.710 -0.3652 -0.3557  0.4713
25970CL      CL79156   3.291   2.375   2.207  0.0316  0.1108 -0.2640
25971CL      CL79157   2.828   0.051   5.850  0.2555  0.1739  0.1867
25972CL      CL79158   5.409   5.857   3.804  0.5619 -0.1260 -0.0344
25973CL      CL79159   8.504   8.190   7.241 -0.1494  0.0946 -0.0301
25974CL      CL79160   6.445   1.964   4.713 -0.0842  0.1860 -0.2973
25975CL      CL79161   2.137   5.206   4.954 -0.3266  0.2201 -0.4151
25976CL      CL79162   3.547   3.643   1.481 -0.5322  0.2621  0.0337
25977CL      CL79163   6.104   9.099   7.452  0.3803 -0.3037  0.3766
25978CL      CL79164   2.566   4.629   0.843  0.1083 -0.2544 -0.2843
25979CL      CL79165   2.393   7.971   1.854  0.3580  0.1957 -0.4131
25980CL      CL79166   3.767   1.644   8.569  0.3252  0.4688 -0.1152
25981CL      CL79167   0.346   7.074   2.916  0.0801  0.0624  0.4917
25982CL      CL79168   0.691   6.935   5.392  0.2354 -0.0347 -0.2297
25983CL      CL79169   0.741   9.071   2.505  0.0930 -0.0572 -0.2285
25984CL      CL79170   6.205   5.904   6.322  0.2154  0.3738 -0.0855
25985CL      CL79171   6.768   0.832   3.053 -0.0879 -0.3608 -0.1394
25986CL      CL79172   6.403   4.380   4.739 -0.3412  0.5521  0.3522
25987CL      CL79173   9.013   8.068   3.950 -0.0665 -0.0804 -0.2089
25988CL      CL79174   3.102   3.884   6.916  0.0447 -0.1321  0.0562
25989CL      CL79175   3.318   7.439   6.923  0.4129 -0.5526 -0.1750
25990CL      CL79176   2.775   4.189   6.730  0.3274 -0.1623  0.0397
25991CL      CL79177   4.714   7.766   7.925  0.0714 -0.0200 -0.2307
25992CL      CL79178   6.293   1.618   0.101 -0.5224  0.3809  0.1200
25993CL      CL79179   4.967   6.246   2.887  0.1678  0.0696 -0.1814
25994CL      CL79180   7.042   8.456   4.446  0.0120  0.3445 -0.3183
25995CL      CL79181   8.281   5.322   9.063  0.0659  0.0992  0.0630
25996CL      CL79182   8.592   5.113   3.618 -0.2311  0.2978  0.0266
25997CL      CL79183   0.910   4.327   0.243  0.2506  0.1904  0.4820
25998CL      CL79184   9.079   7.652   1.892  0.0427  0.1071 -0.0096
25999CL      CL79185   1.355   5.619   4.280  0.0128  0.0829 -0.6300
26000CL      CL79186   5.985   4.361   8.989  0.1018  0.0707  0.3440
26001CL      CL79187   4.457   0.362   5.580  0.0140 -0.1993 -0.0143
26002CL      CL79188   7.813   5.926   4.563 -0.0688 -0.1469  0.2788
26003CL      CL79189   3.203   6.455   8.415  0.0667  0.4502  0.0139
26004CL      CL79190   1.043   4.237   7.422 -0.2638 -0.1270  0.0605
26005CL      CL79191   4.294   6.585   8.656 -0.2865  0.1593 -0.3696
26006CL      CL79192   9.113   8.511   8.052  0.0863 -0.0459  0.6286
26007CL      CL79193   3.222   1.211   3.623  0.2893 -0.0699  0.1665
26008CL      CL79194   6.821   2.744   3.685 -0.1426 -0.2624  0.0624
26009CL      CL79195   0.494   0.177   0.850  0.0564  0.0359 -0.3741
26010CL      CL79196   1.612   6.247   8.273 -0.4650 -0.3199 -0.0476
26011CL      CL79197   7.680   6.772   0.708  0.8434  0.0031 -0.1361
26012CL      CL79198   3.808   7.199   8.529  0.2530  0.1169  0.3325
26013CL      CL79199   4.718   8.897   5.522  0.3695 -0.1102 -0.3099
26014CL      CL79200   1.560   1.848   0.838 -0.2336 -0.0405  0.3687
26015CL      CL79201   7.843   1.003   0.737 -0.1517  0.1701 -0.2122
26016CL      CL79202   6.539   3.571   3.107 -0.1075 -0.1582  0.1228
26017CL      CL79203   2.638   8.260   2.983 -0.0635 -0.1333 -0.0971
26018CL      CL79204   8.485   0.608   2.361 -0.3615  0.3164  0.1053
26019CL      CL79205   2.938   1.101   1.699  0.0093  0.0840  0.2450
26020CL      CL79206   2.043   8.976   8.572 -0.4654  0.3385 -0.2016
26021CL      CL79207   9.230   4.666   1.782 -0.0403 -0.0001 -0.1219
26022CL      CL79208   2.453   6.688   3.654  0.1640 -0.2179  0.1345
26023CL      CL79209   4.545   0.055   0.480  0.4210 -0.0109  0.0356
26024CL      CL79210   1.818   2.066   6.115  0.0016 -0.1176 -0.0071
26025CL      CL79211   3.505   2.912   9.066  0.2323 -0.8508 -0.3529
26026CL      CL79212   7.598   2.893   0.841 -0.1920  0.1748 -0.2608
26027CL      CL79213   5.521   6.423   2.023 -0.4779 -0.1448 -0.4855
26028CL      CL79214   4.757   5.639   8.568 -0.0472  0.0708  0.0628
26029CL      CL79215   3.831   7.120   1.932  0.3823  0.3971 -0.3880
26030CL      CL79216   5.628   2.217   0.999  0.5550  0.5040 -0.1513
26031CL      CL79217   7.719   5.405   1.654 -0.4204  0.1396  0.0796
26032CL      CL79218   2.938   4.581   5.241 -0.0506 -0.3824  0.2933
26033CL      CL79219   4.939   1.274   0.065 -0.9023  0.4987 -0.1484
26034CL      CL79220   7.435   7.740   2.570 -0.7178 -0.7736 -0.0612
26035CL      CL79221   0.047   0.791   4.385  0.0301  0.1988  0.3380
26036CL      CL79222   5.267   4.246   0.870 -0.2903  0.0313 -0.3395
26037CL      CL79223   7.226   3.467   4.583  0.0246  0.4732 -0.2991
26038CL      CL79224   7.355   5.240   0.679 -0.0317 -0.0997  0.3664
26039CL      CL79225   0.601   5.197   1.577  0.0454 -0.0106 -0.2206
26040CL      CL79226   1.295   7.433   7.961  0.3059 -0.1003  0.4440
26041CL      CL79227   1.181   7.248   0.128 -0.1155  0.4407  0.0173
26042CL      CL79228   3.221   4.067   2.118 -0.0748 -0.0011 -0.1404
26043CL      CL79229   0.815   2.294   1.931 -0.0280 -0.2451  0.0382
   9.28229   9.28229   9.28229
