;
;   File g2.5dp_cooh_pamam.itp  was generated
;   By user: sairam (1000)
;   On host: sairam
;   At date: Tue. February  2 11:14:41 2025
;
;   This is a standalone topology file
;
;   Created by:
;   ParmEd:       amb2gro_top_gro.py, VERSION 3.4.1
;   Executable:   amb2gro_top_gro.py
;   Library dir:  /usr/local/gromacs/share/gromacs/top
;   Command line:
;     ./amb2gro_top_gro.py -p g2.5dp_cooh_pamam.prmtop -c g2.5dp_cooh_pamam.inpcrd -t g2.5dp_cooh_pamam.itp -g g2.5dp_cooh_pamam.gro -b g2.5dp_cooh_pamam.pdb
;

;[ defaults ]
;; nbfunc        comb-rule       gen-pairs       fudgeLJ fudgeQQ
;1               2               yes             0.5          0.83333333  
;
;[ atomtypes ]
;; name    at.num    mass    charge ptype  sigma      epsilon
;n4             7  14.010000  0.00000000  A     0.32499985        0.71128
;c3             6  12.010000  0.00000000  A     0.33996695      0.4577296
;c              6  12.010000  0.00000000  A     0.33996695       0.359824
;o              8  16.000000  0.00000000  A     0.29599219        0.87864
;hx             1   1.008000  0.00000000  A     0.19599772      0.0656888
;hc             1   1.008000  0.00000000  A     0.26495328      0.0656888
;hn             1   1.008000  0.00000000  A     0.10690785      0.0656888
;n              7  14.010000  0.00000000  A     0.32499985        0.71128
;h1             1   1.008000  0.00000000  A      0.2471353      0.0656888
;oh             8  16.000000  0.00000000  A     0.30664734      0.8803136
;ho             1   1.008000  0.00000000  A              0              0


[ moleculetype ]
; Name            nrexcl
g2.5dp_cooh_pamam          3

[ atoms ]
;   nr       type  resnr residue  atom   cgnr    charge       mass  typeB    chargeB      massB
; residue    1 aaa rtp aaa q 2.0
    1         n4      1    aaa     N1      1 -0.01815100  14.010000   ; qtot -0.018151
    2         c3      1    aaa     C1      2 0.01243000  12.010000   ; qtot -0.005721
    3         c3      1    aaa     C2      3 0.01243000  12.010000   ; qtot 0.006709
    4         n4      1    aaa     N2      4 -0.01815100  14.010000   ; qtot -0.011442
    5         c3      1    aaa     C3      5 -0.01431700  12.010000   ; qtot -0.025759
    6         c3      1    aaa     C4      6 -0.01431700  12.010000   ; qtot -0.040076
    7         c3      1    aaa     C5      7 -0.01431700  12.010000   ; qtot -0.054393
    8         c3      1    aaa     C6      8 -0.01431700  12.010000   ; qtot -0.068710
    9         c3      1    aaa     C7      9 -0.26758200  12.010000   ; qtot -0.336292
   10          c      1    aaa     C8     10 0.71337400  12.010000   ; qtot 0.377082
   11         c3      1    aaa     C9     11 -0.26758200  12.010000   ; qtot 0.109500
   12          c      1    aaa    C10     12 0.71337400  12.010000   ; qtot 0.822874
   13         c3      1    aaa    C11     13 -0.26758200  12.010000   ; qtot 0.555292
   14          c      1    aaa    C12     14 0.71337400  12.010000   ; qtot 1.268666
   15         c3      1    aaa    C13     15 -0.26758200  12.010000   ; qtot 1.001084
   16          c      1    aaa    C14     16 0.71337400  12.010000   ; qtot 1.714458
   17          o      1    aaa     O1     17 -0.55531800  16.000000   ; qtot 1.159140
   18          o      1    aaa     O2     18 -0.55531800  16.000000   ; qtot 0.603822
   19          o      1    aaa     O3     19 -0.55531800  16.000000   ; qtot 0.048504
   20          o      1    aaa     O4     20 -0.55531800  16.000000   ; qtot -0.506814
   21         hx      1    aaa     H1     21 0.08276100   1.008000   ; qtot -0.424053
   22         hx      1    aaa     H2     22 0.08276100   1.008000   ; qtot -0.341292
   23         hx      1    aaa     H3     23 0.08276100   1.008000   ; qtot -0.258531
   24         hx      1    aaa     H4     24 0.08276100   1.008000   ; qtot -0.175770
   25         hx      1    aaa     H5     25 0.10467000   1.008000   ; qtot -0.071100
   26         hx      1    aaa     H6     26 0.10467000   1.008000   ; qtot 0.033570
   27         hx      1    aaa     H7     27 0.10467000   1.008000   ; qtot 0.138240
   28         hx      1    aaa     H8     28 0.10467000   1.008000   ; qtot 0.242910
   29         hx      1    aaa     H9     29 0.10467000   1.008000   ; qtot 0.347580
   30         hx      1    aaa    H10     30 0.10467000   1.008000   ; qtot 0.452250
   31         hx      1    aaa    H11     31 0.10467000   1.008000   ; qtot 0.556920
   32         hx      1    aaa    H12     32 0.10467000   1.008000   ; qtot 0.661590
   33         hc      1    aaa    H13     33 0.11830200   1.008000   ; qtot 0.779892
   34         hc      1    aaa    H14     34 0.11830200   1.008000   ; qtot 0.898194
   35         hc      1    aaa    H15     35 0.11830200   1.008000   ; qtot 1.016496
   36         hc      1    aaa    H16     36 0.11830200   1.008000   ; qtot 1.134798
   37         hc      1    aaa    H17     37 0.11830200   1.008000   ; qtot 1.253100
   38         hc      1    aaa    H18     38 0.11830200   1.008000   ; qtot 1.371402
   39         hc      1    aaa    H19     39 0.11830200   1.008000   ; qtot 1.489704
   40         hc      1    aaa    H20     40 0.11830200   1.008000   ; qtot 1.608006
   41         hn      1    aaa    H37     41 0.19599700   1.008000   ; qtot 1.804003
   42         hn      1    aaa    H38     42 0.19599700   1.008000   ; qtot 2.000000
; residue    2 bbb rtp bbb q 1.0
   43         n4      2    bbb     N1     43 -0.02747900  14.010000   ; qtot 1.972521
   44         c3      2    bbb     C1     44 -0.05097600  12.010000   ; qtot 1.921545
   45         c3      2    bbb     C2     45 -0.05097600  12.010000   ; qtot 1.870569
   46         c3      2    bbb     C3     46 -0.18457900  12.010000   ; qtot 1.685990
   47          c      2    bbb     C4     47 0.67254400  12.010000   ; qtot 2.358534
   48         c3      2    bbb     C5     48 -0.18457900  12.010000   ; qtot 2.173955
   49          c      2    bbb     C6     49 0.67254400  12.010000   ; qtot 2.846499
   50         c3      2    bbb     C7     50 -0.02083000  12.010000   ; qtot 2.825669
   51         c3      2    bbb     C8     51 -0.03328100  12.010000   ; qtot 2.792388
   52          n      2    bbb     N2     52 -0.33303000  14.010000   ; qtot 2.459358
   53          o      2    bbb     O1     53 -0.52917200  16.000000   ; qtot 1.930186
   54          o      2    bbb     O2     54 -0.52917200  16.000000   ; qtot 1.401014
   55         hx      2    bbb     H1     55 0.11563300   1.008000   ; qtot 1.516647
   56         hx      2    bbb     H2     56 0.11563300   1.008000   ; qtot 1.632280
   57         hx      2    bbb     H3     57 0.11563300   1.008000   ; qtot 1.747913
   58         hx      2    bbb     H4     58 0.11563300   1.008000   ; qtot 1.863546
   59         hc      2    bbb     H5     59 0.08347900   1.008000   ; qtot 1.947025
   60         hc      2    bbb     H6     60 0.08347900   1.008000   ; qtot 2.030504
   61         hc      2    bbb     H7     61 0.08347900   1.008000   ; qtot 2.113983
   62         hc      2    bbb     H8     62 0.08347900   1.008000   ; qtot 2.197462
   63         hx      2    bbb     H9     63 0.07988000   1.008000   ; qtot 2.277342
   64         hx      2    bbb    H10     64 0.07988000   1.008000   ; qtot 2.357222
   65         h1      2    bbb    H11     65 0.10618100   1.008000   ; qtot 2.463403
   66         h1      2    bbb    H12     66 0.10618100   1.008000   ; qtot 2.569584
   67         hn      2    bbb    H13     67 0.25916100   1.008000   ; qtot 2.828745
   68         hn      2    bbb    H25     68 0.17125500   1.008000   ; qtot 3.000000
; residue    3 bbb rtp bbb q 1.0
   69         n4      3    bbb     N1     69 -0.02747900  14.010000   ; qtot 2.972521
   70         c3      3    bbb     C1     70 -0.05097600  12.010000   ; qtot 2.921545
   71         c3      3    bbb     C2     71 -0.05097600  12.010000   ; qtot 2.870569
   72         c3      3    bbb     C3     72 -0.18457900  12.010000   ; qtot 2.685990
   73          c      3    bbb     C4     73 0.67254400  12.010000   ; qtot 3.358534
   74         c3      3    bbb     C5     74 -0.18457900  12.010000   ; qtot 3.173955
   75          c      3    bbb     C6     75 0.67254400  12.010000   ; qtot 3.846499
   76         c3      3    bbb     C7     76 -0.02083000  12.010000   ; qtot 3.825669
   77         c3      3    bbb     C8     77 -0.03328100  12.010000   ; qtot 3.792388
   78          n      3    bbb     N2     78 -0.33303000  14.010000   ; qtot 3.459358
   79          o      3    bbb     O1     79 -0.52917200  16.000000   ; qtot 2.930186
   80          o      3    bbb     O2     80 -0.52917200  16.000000   ; qtot 2.401014
   81         hx      3    bbb     H1     81 0.11563300   1.008000   ; qtot 2.516647
   82         hx      3    bbb     H2     82 0.11563300   1.008000   ; qtot 2.632280
   83         hx      3    bbb     H3     83 0.11563300   1.008000   ; qtot 2.747913
   84         hx      3    bbb     H4     84 0.11563300   1.008000   ; qtot 2.863546
   85         hc      3    bbb     H5     85 0.08347900   1.008000   ; qtot 2.947025
   86         hc      3    bbb     H6     86 0.08347900   1.008000   ; qtot 3.030504
   87         hc      3    bbb     H7     87 0.08347900   1.008000   ; qtot 3.113983
   88         hc      3    bbb     H8     88 0.08347900   1.008000   ; qtot 3.197462
   89         hx      3    bbb     H9     89 0.07988000   1.008000   ; qtot 3.277342
   90         hx      3    bbb    H10     90 0.07988000   1.008000   ; qtot 3.357222
   91         h1      3    bbb    H11     91 0.10618100   1.008000   ; qtot 3.463403
   92         h1      3    bbb    H12     92 0.10618100   1.008000   ; qtot 3.569584
   93         hn      3    bbb    H13     93 0.25916100   1.008000   ; qtot 3.828745
   94         hn      3    bbb    H25     94 0.17125500   1.008000   ; qtot 4.000000
; residue    4 bbb rtp bbb q 1.0
   95         n4      4    bbb     N1     95 -0.02747900  14.010000   ; qtot 3.972521
   96         c3      4    bbb     C1     96 -0.05097600  12.010000   ; qtot 3.921545
   97         c3      4    bbb     C2     97 -0.05097600  12.010000   ; qtot 3.870569
   98         c3      4    bbb     C3     98 -0.18457900  12.010000   ; qtot 3.685990
   99          c      4    bbb     C4     99 0.67254400  12.010000   ; qtot 4.358534
  100         c3      4    bbb     C5    100 -0.18457900  12.010000   ; qtot 4.173955
  101          c      4    bbb     C6    101 0.67254400  12.010000   ; qtot 4.846499
  102         c3      4    bbb     C7    102 -0.02083000  12.010000   ; qtot 4.825669
  103         c3      4    bbb     C8    103 -0.03328100  12.010000   ; qtot 4.792388
  104          n      4    bbb     N2    104 -0.33303000  14.010000   ; qtot 4.459358
  105          o      4    bbb     O1    105 -0.52917200  16.000000   ; qtot 3.930186
  106          o      4    bbb     O2    106 -0.52917200  16.000000   ; qtot 3.401014
  107         hx      4    bbb     H1    107 0.11563300   1.008000   ; qtot 3.516647
  108         hx      4    bbb     H2    108 0.11563300   1.008000   ; qtot 3.632280
  109         hx      4    bbb     H3    109 0.11563300   1.008000   ; qtot 3.747913
  110         hx      4    bbb     H4    110 0.11563300   1.008000   ; qtot 3.863546
  111         hc      4    bbb     H5    111 0.08347900   1.008000   ; qtot 3.947025
  112         hc      4    bbb     H6    112 0.08347900   1.008000   ; qtot 4.030504
  113         hc      4    bbb     H7    113 0.08347900   1.008000   ; qtot 4.113983
  114         hc      4    bbb     H8    114 0.08347900   1.008000   ; qtot 4.197462
  115         hx      4    bbb     H9    115 0.07988000   1.008000   ; qtot 4.277342
  116         hx      4    bbb    H10    116 0.07988000   1.008000   ; qtot 4.357222
  117         h1      4    bbb    H11    117 0.10618100   1.008000   ; qtot 4.463403
  118         h1      4    bbb    H12    118 0.10618100   1.008000   ; qtot 4.569584
  119         hn      4    bbb    H13    119 0.25916100   1.008000   ; qtot 4.828745
  120         hn      4    bbb    H25    120 0.17125500   1.008000   ; qtot 5.000000
; residue    5 bbb rtp bbb q 1.0
  121         n4      5    bbb     N1    121 -0.02747900  14.010000   ; qtot 4.972521
  122         c3      5    bbb     C1    122 -0.05097600  12.010000   ; qtot 4.921545
  123         c3      5    bbb     C2    123 -0.05097600  12.010000   ; qtot 4.870569
  124         c3      5    bbb     C3    124 -0.18457900  12.010000   ; qtot 4.685990
  125          c      5    bbb     C4    125 0.67254400  12.010000   ; qtot 5.358534
  126         c3      5    bbb     C5    126 -0.18457900  12.010000   ; qtot 5.173955
  127          c      5    bbb     C6    127 0.67254400  12.010000   ; qtot 5.846499
  128         c3      5    bbb     C7    128 -0.02083000  12.010000   ; qtot 5.825669
  129         c3      5    bbb     C8    129 -0.03328100  12.010000   ; qtot 5.792388
  130          n      5    bbb     N2    130 -0.33303000  14.010000   ; qtot 5.459358
  131          o      5    bbb     O1    131 -0.52917200  16.000000   ; qtot 4.930186
  132          o      5    bbb     O2    132 -0.52917200  16.000000   ; qtot 4.401014
  133         hx      5    bbb     H1    133 0.11563300   1.008000   ; qtot 4.516647
  134         hx      5    bbb     H2    134 0.11563300   1.008000   ; qtot 4.632280
  135         hx      5    bbb     H3    135 0.11563300   1.008000   ; qtot 4.747913
  136         hx      5    bbb     H4    136 0.11563300   1.008000   ; qtot 4.863546
  137         hc      5    bbb     H5    137 0.08347900   1.008000   ; qtot 4.947025
  138         hc      5    bbb     H6    138 0.08347900   1.008000   ; qtot 5.030504
  139         hc      5    bbb     H7    139 0.08347900   1.008000   ; qtot 5.113983
  140         hc      5    bbb     H8    140 0.08347900   1.008000   ; qtot 5.197462
  141         hx      5    bbb     H9    141 0.07988000   1.008000   ; qtot 5.277342
  142         hx      5    bbb    H10    142 0.07988000   1.008000   ; qtot 5.357222
  143         h1      5    bbb    H11    143 0.10618100   1.008000   ; qtot 5.463403
  144         h1      5    bbb    H12    144 0.10618100   1.008000   ; qtot 5.569584
  145         hn      5    bbb    H13    145 0.25916100   1.008000   ; qtot 5.828745
  146         hn      5    bbb    H25    146 0.17125500   1.008000   ; qtot 6.000000
; residue    6 bbb rtp bbb q 1.0
  147         n4      6    bbb     N1    147 -0.02747900  14.010000   ; qtot 5.972521
  148         c3      6    bbb     C1    148 -0.05097600  12.010000   ; qtot 5.921545
  149         c3      6    bbb     C2    149 -0.05097600  12.010000   ; qtot 5.870569
  150         c3      6    bbb     C3    150 -0.18457900  12.010000   ; qtot 5.685990
  151          c      6    bbb     C4    151 0.67254400  12.010000   ; qtot 6.358534
  152         c3      6    bbb     C5    152 -0.18457900  12.010000   ; qtot 6.173955
  153          c      6    bbb     C6    153 0.67254400  12.010000   ; qtot 6.846499
  154         c3      6    bbb     C7    154 -0.02083000  12.010000   ; qtot 6.825669
  155         c3      6    bbb     C8    155 -0.03328100  12.010000   ; qtot 6.792388
  156          n      6    bbb     N2    156 -0.33303000  14.010000   ; qtot 6.459358
  157          o      6    bbb     O1    157 -0.52917200  16.000000   ; qtot 5.930186
  158          o      6    bbb     O2    158 -0.52917200  16.000000   ; qtot 5.401014
  159         hx      6    bbb     H1    159 0.11563300   1.008000   ; qtot 5.516647
  160         hx      6    bbb     H2    160 0.11563300   1.008000   ; qtot 5.632280
  161         hx      6    bbb     H3    161 0.11563300   1.008000   ; qtot 5.747913
  162         hx      6    bbb     H4    162 0.11563300   1.008000   ; qtot 5.863546
  163         hc      6    bbb     H5    163 0.08347900   1.008000   ; qtot 5.947025
  164         hc      6    bbb     H6    164 0.08347900   1.008000   ; qtot 6.030504
  165         hc      6    bbb     H7    165 0.08347900   1.008000   ; qtot 6.113983
  166         hc      6    bbb     H8    166 0.08347900   1.008000   ; qtot 6.197462
  167         hx      6    bbb     H9    167 0.07988000   1.008000   ; qtot 6.277342
  168         hx      6    bbb    H10    168 0.07988000   1.008000   ; qtot 6.357222
  169         h1      6    bbb    H11    169 0.10618100   1.008000   ; qtot 6.463403
  170         h1      6    bbb    H12    170 0.10618100   1.008000   ; qtot 6.569584
  171         hn      6    bbb    H13    171 0.25916100   1.008000   ; qtot 6.828745
  172         hn      6    bbb    H25    172 0.17125500   1.008000   ; qtot 7.000000
; residue    7 bbb rtp bbb q 1.0
  173         n4      7    bbb     N1    173 -0.02747900  14.010000   ; qtot 6.972521
  174         c3      7    bbb     C1    174 -0.05097600  12.010000   ; qtot 6.921545
  175         c3      7    bbb     C2    175 -0.05097600  12.010000   ; qtot 6.870569
  176         c3      7    bbb     C3    176 -0.18457900  12.010000   ; qtot 6.685990
  177          c      7    bbb     C4    177 0.67254400  12.010000   ; qtot 7.358534
  178         c3      7    bbb     C5    178 -0.18457900  12.010000   ; qtot 7.173955
  179          c      7    bbb     C6    179 0.67254400  12.010000   ; qtot 7.846499
  180         c3      7    bbb     C7    180 -0.02083000  12.010000   ; qtot 7.825669
  181         c3      7    bbb     C8    181 -0.03328100  12.010000   ; qtot 7.792388
  182          n      7    bbb     N2    182 -0.33303000  14.010000   ; qtot 7.459358
  183          o      7    bbb     O1    183 -0.52917200  16.000000   ; qtot 6.930186
  184          o      7    bbb     O2    184 -0.52917200  16.000000   ; qtot 6.401014
  185         hx      7    bbb     H1    185 0.11563300   1.008000   ; qtot 6.516647
  186         hx      7    bbb     H2    186 0.11563300   1.008000   ; qtot 6.632280
  187         hx      7    bbb     H3    187 0.11563300   1.008000   ; qtot 6.747913
  188         hx      7    bbb     H4    188 0.11563300   1.008000   ; qtot 6.863546
  189         hc      7    bbb     H5    189 0.08347900   1.008000   ; qtot 6.947025
  190         hc      7    bbb     H6    190 0.08347900   1.008000   ; qtot 7.030504
  191         hc      7    bbb     H7    191 0.08347900   1.008000   ; qtot 7.113983
  192         hc      7    bbb     H8    192 0.08347900   1.008000   ; qtot 7.197462
  193         hx      7    bbb     H9    193 0.07988000   1.008000   ; qtot 7.277342
  194         hx      7    bbb    H10    194 0.07988000   1.008000   ; qtot 7.357222
  195         h1      7    bbb    H11    195 0.10618100   1.008000   ; qtot 7.463403
  196         h1      7    bbb    H12    196 0.10618100   1.008000   ; qtot 7.569584
  197         hn      7    bbb    H13    197 0.25916100   1.008000   ; qtot 7.828745
  198         hn      7    bbb    H25    198 0.17125500   1.008000   ; qtot 8.000000
; residue    8 bbb rtp bbb q 1.0
  199         n4      8    bbb     N1    199 -0.02747900  14.010000   ; qtot 7.972521
  200         c3      8    bbb     C1    200 -0.05097600  12.010000   ; qtot 7.921545
  201         c3      8    bbb     C2    201 -0.05097600  12.010000   ; qtot 7.870569
  202         c3      8    bbb     C3    202 -0.18457900  12.010000   ; qtot 7.685990
  203          c      8    bbb     C4    203 0.67254400  12.010000   ; qtot 8.358534
  204         c3      8    bbb     C5    204 -0.18457900  12.010000   ; qtot 8.173955
  205          c      8    bbb     C6    205 0.67254400  12.010000   ; qtot 8.846499
  206         c3      8    bbb     C7    206 -0.02083000  12.010000   ; qtot 8.825669
  207         c3      8    bbb     C8    207 -0.03328100  12.010000   ; qtot 8.792388
  208          n      8    bbb     N2    208 -0.33303000  14.010000   ; qtot 8.459358
  209          o      8    bbb     O1    209 -0.52917200  16.000000   ; qtot 7.930186
  210          o      8    bbb     O2    210 -0.52917200  16.000000   ; qtot 7.401014
  211         hx      8    bbb     H1    211 0.11563300   1.008000   ; qtot 7.516647
  212         hx      8    bbb     H2    212 0.11563300   1.008000   ; qtot 7.632280
  213         hx      8    bbb     H3    213 0.11563300   1.008000   ; qtot 7.747913
  214         hx      8    bbb     H4    214 0.11563300   1.008000   ; qtot 7.863546
  215         hc      8    bbb     H5    215 0.08347900   1.008000   ; qtot 7.947025
  216         hc      8    bbb     H6    216 0.08347900   1.008000   ; qtot 8.030504
  217         hc      8    bbb     H7    217 0.08347900   1.008000   ; qtot 8.113983
  218         hc      8    bbb     H8    218 0.08347900   1.008000   ; qtot 8.197462
  219         hx      8    bbb     H9    219 0.07988000   1.008000   ; qtot 8.277342
  220         hx      8    bbb    H10    220 0.07988000   1.008000   ; qtot 8.357222
  221         h1      8    bbb    H11    221 0.10618100   1.008000   ; qtot 8.463403
  222         h1      8    bbb    H12    222 0.10618100   1.008000   ; qtot 8.569584
  223         hn      8    bbb    H13    223 0.25916100   1.008000   ; qtot 8.828745
  224         hn      8    bbb    H25    224 0.17125500   1.008000   ; qtot 9.000000
; residue    9 bbb rtp bbb q 1.0
  225         n4      9    bbb     N1    225 -0.02747900  14.010000   ; qtot 8.972521
  226         c3      9    bbb     C1    226 -0.05097600  12.010000   ; qtot 8.921545
  227         c3      9    bbb     C2    227 -0.05097600  12.010000   ; qtot 8.870569
  228         c3      9    bbb     C3    228 -0.18457900  12.010000   ; qtot 8.685990
  229          c      9    bbb     C4    229 0.67254400  12.010000   ; qtot 9.358534
  230         c3      9    bbb     C5    230 -0.18457900  12.010000   ; qtot 9.173955
  231          c      9    bbb     C6    231 0.67254400  12.010000   ; qtot 9.846499
  232         c3      9    bbb     C7    232 -0.02083000  12.010000   ; qtot 9.825669
  233         c3      9    bbb     C8    233 -0.03328100  12.010000   ; qtot 9.792388
  234          n      9    bbb     N2    234 -0.33303000  14.010000   ; qtot 9.459358
  235          o      9    bbb     O1    235 -0.52917200  16.000000   ; qtot 8.930186
  236          o      9    bbb     O2    236 -0.52917200  16.000000   ; qtot 8.401014
  237         hx      9    bbb     H1    237 0.11563300   1.008000   ; qtot 8.516647
  238         hx      9    bbb     H2    238 0.11563300   1.008000   ; qtot 8.632280
  239         hx      9    bbb     H3    239 0.11563300   1.008000   ; qtot 8.747913
  240         hx      9    bbb     H4    240 0.11563300   1.008000   ; qtot 8.863546
  241         hc      9    bbb     H5    241 0.08347900   1.008000   ; qtot 8.947025
  242         hc      9    bbb     H6    242 0.08347900   1.008000   ; qtot 9.030504
  243         hc      9    bbb     H7    243 0.08347900   1.008000   ; qtot 9.113983
  244         hc      9    bbb     H8    244 0.08347900   1.008000   ; qtot 9.197462
  245         hx      9    bbb     H9    245 0.07988000   1.008000   ; qtot 9.277342
  246         hx      9    bbb    H10    246 0.07988000   1.008000   ; qtot 9.357222
  247         h1      9    bbb    H11    247 0.10618100   1.008000   ; qtot 9.463403
  248         h1      9    bbb    H12    248 0.10618100   1.008000   ; qtot 9.569584
  249         hn      9    bbb    H13    249 0.25916100   1.008000   ; qtot 9.828745
  250         hn      9    bbb    H25    250 0.17125500   1.008000   ; qtot 10.000000
; residue   10 bbb rtp bbb q 1.0
  251         n4     10    bbb     N1    251 -0.02747900  14.010000   ; qtot 9.972521
  252         c3     10    bbb     C1    252 -0.05097600  12.010000   ; qtot 9.921545
  253         c3     10    bbb     C2    253 -0.05097600  12.010000   ; qtot 9.870569
  254         c3     10    bbb     C3    254 -0.18457900  12.010000   ; qtot 9.685990
  255          c     10    bbb     C4    255 0.67254400  12.010000   ; qtot 10.358534
  256         c3     10    bbb     C5    256 -0.18457900  12.010000   ; qtot 10.173955
  257          c     10    bbb     C6    257 0.67254400  12.010000   ; qtot 10.846499
  258         c3     10    bbb     C7    258 -0.02083000  12.010000   ; qtot 10.825669
  259         c3     10    bbb     C8    259 -0.03328100  12.010000   ; qtot 10.792388
  260          n     10    bbb     N2    260 -0.33303000  14.010000   ; qtot 10.459358
  261          o     10    bbb     O1    261 -0.52917200  16.000000   ; qtot 9.930186
  262          o     10    bbb     O2    262 -0.52917200  16.000000   ; qtot 9.401014
  263         hx     10    bbb     H1    263 0.11563300   1.008000   ; qtot 9.516647
  264         hx     10    bbb     H2    264 0.11563300   1.008000   ; qtot 9.632280
  265         hx     10    bbb     H3    265 0.11563300   1.008000   ; qtot 9.747913
  266         hx     10    bbb     H4    266 0.11563300   1.008000   ; qtot 9.863546
  267         hc     10    bbb     H5    267 0.08347900   1.008000   ; qtot 9.947025
  268         hc     10    bbb     H6    268 0.08347900   1.008000   ; qtot 10.030504
  269         hc     10    bbb     H7    269 0.08347900   1.008000   ; qtot 10.113983
  270         hc     10    bbb     H8    270 0.08347900   1.008000   ; qtot 10.197462
  271         hx     10    bbb     H9    271 0.07988000   1.008000   ; qtot 10.277342
  272         hx     10    bbb    H10    272 0.07988000   1.008000   ; qtot 10.357222
  273         h1     10    bbb    H11    273 0.10618100   1.008000   ; qtot 10.463403
  274         h1     10    bbb    H12    274 0.10618100   1.008000   ; qtot 10.569584
  275         hn     10    bbb    H13    275 0.25916100   1.008000   ; qtot 10.828745
  276         hn     10    bbb    H25    276 0.17125500   1.008000   ; qtot 11.000000
; residue   11 bbb rtp bbb q 1.0
  277         n4     11    bbb     N1    277 -0.02747900  14.010000   ; qtot 10.972521
  278         c3     11    bbb     C1    278 -0.05097600  12.010000   ; qtot 10.921545
  279         c3     11    bbb     C2    279 -0.05097600  12.010000   ; qtot 10.870569
  280         c3     11    bbb     C3    280 -0.18457900  12.010000   ; qtot 10.685990
  281          c     11    bbb     C4    281 0.67254400  12.010000   ; qtot 11.358534
  282         c3     11    bbb     C5    282 -0.18457900  12.010000   ; qtot 11.173955
  283          c     11    bbb     C6    283 0.67254400  12.010000   ; qtot 11.846499
  284         c3     11    bbb     C7    284 -0.02083000  12.010000   ; qtot 11.825669
  285         c3     11    bbb     C8    285 -0.03328100  12.010000   ; qtot 11.792388
  286          n     11    bbb     N2    286 -0.33303000  14.010000   ; qtot 11.459358
  287          o     11    bbb     O1    287 -0.52917200  16.000000   ; qtot 10.930186
  288          o     11    bbb     O2    288 -0.52917200  16.000000   ; qtot 10.401014
  289         hx     11    bbb     H1    289 0.11563300   1.008000   ; qtot 10.516647
  290         hx     11    bbb     H2    290 0.11563300   1.008000   ; qtot 10.632280
  291         hx     11    bbb     H3    291 0.11563300   1.008000   ; qtot 10.747913
  292         hx     11    bbb     H4    292 0.11563300   1.008000   ; qtot 10.863546
  293         hc     11    bbb     H5    293 0.08347900   1.008000   ; qtot 10.947025
  294         hc     11    bbb     H6    294 0.08347900   1.008000   ; qtot 11.030504
  295         hc     11    bbb     H7    295 0.08347900   1.008000   ; qtot 11.113983
  296         hc     11    bbb     H8    296 0.08347900   1.008000   ; qtot 11.197462
  297         hx     11    bbb     H9    297 0.07988000   1.008000   ; qtot 11.277342
  298         hx     11    bbb    H10    298 0.07988000   1.008000   ; qtot 11.357222
  299         h1     11    bbb    H11    299 0.10618100   1.008000   ; qtot 11.463403
  300         h1     11    bbb    H12    300 0.10618100   1.008000   ; qtot 11.569584
  301         hn     11    bbb    H13    301 0.25916100   1.008000   ; qtot 11.828745
  302         hn     11    bbb    H25    302 0.17125500   1.008000   ; qtot 12.000000
; residue   12 bbb rtp bbb q 1.0
  303         n4     12    bbb     N1    303 -0.02747900  14.010000   ; qtot 11.972521
  304         c3     12    bbb     C1    304 -0.05097600  12.010000   ; qtot 11.921545
  305         c3     12    bbb     C2    305 -0.05097600  12.010000   ; qtot 11.870569
  306         c3     12    bbb     C3    306 -0.18457900  12.010000   ; qtot 11.685990
  307          c     12    bbb     C4    307 0.67254400  12.010000   ; qtot 12.358534
  308         c3     12    bbb     C5    308 -0.18457900  12.010000   ; qtot 12.173955
  309          c     12    bbb     C6    309 0.67254400  12.010000   ; qtot 12.846499
  310         c3     12    bbb     C7    310 -0.02083000  12.010000   ; qtot 12.825669
  311         c3     12    bbb     C8    311 -0.03328100  12.010000   ; qtot 12.792388
  312          n     12    bbb     N2    312 -0.33303000  14.010000   ; qtot 12.459358
  313          o     12    bbb     O1    313 -0.52917200  16.000000   ; qtot 11.930186
  314          o     12    bbb     O2    314 -0.52917200  16.000000   ; qtot 11.401014
  315         hx     12    bbb     H1    315 0.11563300   1.008000   ; qtot 11.516647
  316         hx     12    bbb     H2    316 0.11563300   1.008000   ; qtot 11.632280
  317         hx     12    bbb     H3    317 0.11563300   1.008000   ; qtot 11.747913
  318         hx     12    bbb     H4    318 0.11563300   1.008000   ; qtot 11.863546
  319         hc     12    bbb     H5    319 0.08347900   1.008000   ; qtot 11.947025
  320         hc     12    bbb     H6    320 0.08347900   1.008000   ; qtot 12.030504
  321         hc     12    bbb     H7    321 0.08347900   1.008000   ; qtot 12.113983
  322         hc     12    bbb     H8    322 0.08347900   1.008000   ; qtot 12.197462
  323         hx     12    bbb     H9    323 0.07988000   1.008000   ; qtot 12.277342
  324         hx     12    bbb    H10    324 0.07988000   1.008000   ; qtot 12.357222
  325         h1     12    bbb    H11    325 0.10618100   1.008000   ; qtot 12.463403
  326         h1     12    bbb    H12    326 0.10618100   1.008000   ; qtot 12.569584
  327         hn     12    bbb    H13    327 0.25916100   1.008000   ; qtot 12.828745
  328         hn     12    bbb    H25    328 0.17125500   1.008000   ; qtot 13.000000
; residue   13 bbb rtp bbb q 1.0
  329         n4     13    bbb     N1    329 -0.02747900  14.010000   ; qtot 12.972521
  330         c3     13    bbb     C1    330 -0.05097600  12.010000   ; qtot 12.921545
  331         c3     13    bbb     C2    331 -0.05097600  12.010000   ; qtot 12.870569
  332         c3     13    bbb     C3    332 -0.18457900  12.010000   ; qtot 12.685990
  333          c     13    bbb     C4    333 0.67254400  12.010000   ; qtot 13.358534
  334         c3     13    bbb     C5    334 -0.18457900  12.010000   ; qtot 13.173955
  335          c     13    bbb     C6    335 0.67254400  12.010000   ; qtot 13.846499
  336         c3     13    bbb     C7    336 -0.02083000  12.010000   ; qtot 13.825669
  337         c3     13    bbb     C8    337 -0.03328100  12.010000   ; qtot 13.792388
  338          n     13    bbb     N2    338 -0.33303000  14.010000   ; qtot 13.459358
  339          o     13    bbb     O1    339 -0.52917200  16.000000   ; qtot 12.930186
  340          o     13    bbb     O2    340 -0.52917200  16.000000   ; qtot 12.401014
  341         hx     13    bbb     H1    341 0.11563300   1.008000   ; qtot 12.516647
  342         hx     13    bbb     H2    342 0.11563300   1.008000   ; qtot 12.632280
  343         hx     13    bbb     H3    343 0.11563300   1.008000   ; qtot 12.747913
  344         hx     13    bbb     H4    344 0.11563300   1.008000   ; qtot 12.863546
  345         hc     13    bbb     H5    345 0.08347900   1.008000   ; qtot 12.947025
  346         hc     13    bbb     H6    346 0.08347900   1.008000   ; qtot 13.030504
  347         hc     13    bbb     H7    347 0.08347900   1.008000   ; qtot 13.113983
  348         hc     13    bbb     H8    348 0.08347900   1.008000   ; qtot 13.197462
  349         hx     13    bbb     H9    349 0.07988000   1.008000   ; qtot 13.277342
  350         hx     13    bbb    H10    350 0.07988000   1.008000   ; qtot 13.357222
  351         h1     13    bbb    H11    351 0.10618100   1.008000   ; qtot 13.463403
  352         h1     13    bbb    H12    352 0.10618100   1.008000   ; qtot 13.569584
  353         hn     13    bbb    H13    353 0.25916100   1.008000   ; qtot 13.828745
  354         hn     13    bbb    H25    354 0.17125500   1.008000   ; qtot 14.000000
; residue   14 ccc rtp ccc q 1.0
  355          n     14    ccc     N1    355 -0.56206700  14.010000   ; qtot 13.437933
  356         hn     14    ccc     H1    356 0.35233300   1.008000   ; qtot 13.790266
  357         c3     14    ccc     C1    357 0.10283300  12.010000   ; qtot 13.893099
  358         h1     14    ccc     H2    358 0.07153300   1.008000   ; qtot 13.964632
  359         c3     14    ccc     C2    359 0.07063300  12.010000   ; qtot 14.035265
  360         h1     14    ccc     H3    360 0.07153300   1.008000   ; qtot 14.106798
  361         hx     14    ccc     H4    361 0.11303300   1.008000   ; qtot 14.219831
  362         hx     14    ccc     H5    362 0.11303300   1.008000   ; qtot 14.332864
  363         n4     14    ccc     N2    363 -0.67056700  14.010000   ; qtot 13.662297
  364         c3     14    ccc     C3    364 0.10863300  12.010000   ; qtot 13.770930
  365         c3     14    ccc     C4    365 0.10863300  12.010000   ; qtot 13.879563
  366         hx     14    ccc     H6    366 0.12753300   1.008000   ; qtot 14.007096
  367         c3     14    ccc     C5    367 -0.20606700  12.010000   ; qtot 13.801029
  368         hx     14    ccc     H7    368 0.12753300   1.008000   ; qtot 13.928562
  369         hc     14    ccc     H8    369 0.10603300   1.008000   ; qtot 14.034595
  370         hc     14    ccc     H9    370 0.10603300   1.008000   ; qtot 14.140628
  371          c     14    ccc     C6    371 0.63793300  12.010000   ; qtot 14.778561
  372         oh     14    ccc     O1    372 -0.53626700  16.000000   ; qtot 14.242294
  373          o     14    ccc     O2    373 -0.48266700  16.000000   ; qtot 13.759627
  374         hx     14    ccc    H10    374 0.12753300   1.008000   ; qtot 13.887160
  375         hx     14    ccc    H11    375 0.12753300   1.008000   ; qtot 14.014693
  376         c3     14    ccc     C7    376 -0.20606700  12.010000   ; qtot 13.808626
  377         hc     14    ccc    H12    377 0.10603300   1.008000   ; qtot 13.914659
  378         hc     14    ccc    H13    378 0.10603300   1.008000   ; qtot 14.020692
  379          c     14    ccc     C8    379 0.63793300  12.010000   ; qtot 14.658625
  380          o     14    ccc     O3    380 -0.48266700  16.000000   ; qtot 14.175958
  381         oh     14    ccc     O4    381 -0.53626700  16.000000   ; qtot 13.639691
  382         ho     14    ccc    H14    382 0.45283300   1.008000   ; qtot 14.092524
  383         ho     14    ccc    H15    383 0.45283300   1.008000   ; qtot 14.545357
  384         hn     14    ccc    H16    384 0.45463300   1.008000   ; qtot 14.999990
; residue   15 ccc rtp ccc q 1.0
  385          n     15    ccc     N1    385 -0.56206700  14.010000   ; qtot 14.437923
  386         hn     15    ccc     H1    386 0.35233300   1.008000   ; qtot 14.790256
  387         c3     15    ccc     C1    387 0.10283300  12.010000   ; qtot 14.893089
  388         h1     15    ccc     H2    388 0.07153300   1.008000   ; qtot 14.964622
  389         c3     15    ccc     C2    389 0.07063300  12.010000   ; qtot 15.035255
  390         h1     15    ccc     H3    390 0.07153300   1.008000   ; qtot 15.106788
  391         hx     15    ccc     H4    391 0.11303300   1.008000   ; qtot 15.219821
  392         hx     15    ccc     H5    392 0.11303300   1.008000   ; qtot 15.332854
  393         n4     15    ccc     N2    393 -0.67056700  14.010000   ; qtot 14.662287
  394         c3     15    ccc     C3    394 0.10863300  12.010000   ; qtot 14.770920
  395         c3     15    ccc     C4    395 0.10863300  12.010000   ; qtot 14.879553
  396         hx     15    ccc     H6    396 0.12753300   1.008000   ; qtot 15.007086
  397         c3     15    ccc     C5    397 -0.20606700  12.010000   ; qtot 14.801019
  398         hx     15    ccc     H7    398 0.12753300   1.008000   ; qtot 14.928552
  399         hc     15    ccc     H8    399 0.10603300   1.008000   ; qtot 15.034585
  400         hc     15    ccc     H9    400 0.10603300   1.008000   ; qtot 15.140618
  401          c     15    ccc     C6    401 0.63793300  12.010000   ; qtot 15.778551
  402         oh     15    ccc     O1    402 -0.53626700  16.000000   ; qtot 15.242284
  403          o     15    ccc     O2    403 -0.48266700  16.000000   ; qtot 14.759617
  404         hx     15    ccc    H10    404 0.12753300   1.008000   ; qtot 14.887150
  405         hx     15    ccc    H11    405 0.12753300   1.008000   ; qtot 15.014683
  406         c3     15    ccc     C7    406 -0.20606700  12.010000   ; qtot 14.808616
  407         hc     15    ccc    H12    407 0.10603300   1.008000   ; qtot 14.914649
  408         hc     15    ccc    H13    408 0.10603300   1.008000   ; qtot 15.020682
  409          c     15    ccc     C8    409 0.63793300  12.010000   ; qtot 15.658615
  410          o     15    ccc     O3    410 -0.48266700  16.000000   ; qtot 15.175948
  411         oh     15    ccc     O4    411 -0.53626700  16.000000   ; qtot 14.639681
  412         ho     15    ccc    H14    412 0.45283300   1.008000   ; qtot 15.092514
  413         ho     15    ccc    H15    413 0.45283300   1.008000   ; qtot 15.545347
  414         hn     15    ccc    H16    414 0.45463300   1.008000   ; qtot 15.999980
; residue   16 ccc rtp ccc q 1.0
  415          n     16    ccc     N1    415 -0.56206700  14.010000   ; qtot 15.437913
  416         hn     16    ccc     H1    416 0.35233300   1.008000   ; qtot 15.790246
  417         c3     16    ccc     C1    417 0.10283300  12.010000   ; qtot 15.893079
  418         h1     16    ccc     H2    418 0.07153300   1.008000   ; qtot 15.964612
  419         c3     16    ccc     C2    419 0.07063300  12.010000   ; qtot 16.035245
  420         h1     16    ccc     H3    420 0.07153300   1.008000   ; qtot 16.106778
  421         hx     16    ccc     H4    421 0.11303300   1.008000   ; qtot 16.219811
  422         hx     16    ccc     H5    422 0.11303300   1.008000   ; qtot 16.332844
  423         n4     16    ccc     N2    423 -0.67056700  14.010000   ; qtot 15.662277
  424         c3     16    ccc     C3    424 0.10863300  12.010000   ; qtot 15.770910
  425         c3     16    ccc     C4    425 0.10863300  12.010000   ; qtot 15.879543
  426         hx     16    ccc     H6    426 0.12753300   1.008000   ; qtot 16.007076
  427         c3     16    ccc     C5    427 -0.20606700  12.010000   ; qtot 15.801009
  428         hx     16    ccc     H7    428 0.12753300   1.008000   ; qtot 15.928542
  429         hc     16    ccc     H8    429 0.10603300   1.008000   ; qtot 16.034575
  430         hc     16    ccc     H9    430 0.10603300   1.008000   ; qtot 16.140608
  431          c     16    ccc     C6    431 0.63793300  12.010000   ; qtot 16.778541
  432         oh     16    ccc     O1    432 -0.53626700  16.000000   ; qtot 16.242274
  433          o     16    ccc     O2    433 -0.48266700  16.000000   ; qtot 15.759607
  434         hx     16    ccc    H10    434 0.12753300   1.008000   ; qtot 15.887140
  435         hx     16    ccc    H11    435 0.12753300   1.008000   ; qtot 16.014673
  436         c3     16    ccc     C7    436 -0.20606700  12.010000   ; qtot 15.808606
  437         hc     16    ccc    H12    437 0.10603300   1.008000   ; qtot 15.914639
  438         hc     16    ccc    H13    438 0.10603300   1.008000   ; qtot 16.020672
  439          c     16    ccc     C8    439 0.63793300  12.010000   ; qtot 16.658605
  440          o     16    ccc     O3    440 -0.48266700  16.000000   ; qtot 16.175938
  441         oh     16    ccc     O4    441 -0.53626700  16.000000   ; qtot 15.639671
  442         ho     16    ccc    H14    442 0.45283300   1.008000   ; qtot 16.092504
  443         ho     16    ccc    H15    443 0.45283300   1.008000   ; qtot 16.545337
  444         hn     16    ccc    H16    444 0.45463300   1.008000   ; qtot 16.999970
; residue   17 ccc rtp ccc q 1.0
  445          n     17    ccc     N1    445 -0.56206700  14.010000   ; qtot 16.437903
  446         hn     17    ccc     H1    446 0.35233300   1.008000   ; qtot 16.790236
  447         c3     17    ccc     C1    447 0.10283300  12.010000   ; qtot 16.893069
  448         h1     17    ccc     H2    448 0.07153300   1.008000   ; qtot 16.964602
  449         c3     17    ccc     C2    449 0.07063300  12.010000   ; qtot 17.035235
  450         h1     17    ccc     H3    450 0.07153300   1.008000   ; qtot 17.106768
  451         hx     17    ccc     H4    451 0.11303300   1.008000   ; qtot 17.219801
  452         hx     17    ccc     H5    452 0.11303300   1.008000   ; qtot 17.332834
  453         n4     17    ccc     N2    453 -0.67056700  14.010000   ; qtot 16.662267
  454         c3     17    ccc     C3    454 0.10863300  12.010000   ; qtot 16.770900
  455         c3     17    ccc     C4    455 0.10863300  12.010000   ; qtot 16.879533
  456         hx     17    ccc     H6    456 0.12753300   1.008000   ; qtot 17.007066
  457         c3     17    ccc     C5    457 -0.20606700  12.010000   ; qtot 16.800999
  458         hx     17    ccc     H7    458 0.12753300   1.008000   ; qtot 16.928532
  459         hc     17    ccc     H8    459 0.10603300   1.008000   ; qtot 17.034565
  460         hc     17    ccc     H9    460 0.10603300   1.008000   ; qtot 17.140598
  461          c     17    ccc     C6    461 0.63793300  12.010000   ; qtot 17.778531
  462         oh     17    ccc     O1    462 -0.53626700  16.000000   ; qtot 17.242264
  463          o     17    ccc     O2    463 -0.48266700  16.000000   ; qtot 16.759597
  464         hx     17    ccc    H10    464 0.12753300   1.008000   ; qtot 16.887130
  465         hx     17    ccc    H11    465 0.12753300   1.008000   ; qtot 17.014663
  466         c3     17    ccc     C7    466 -0.20606700  12.010000   ; qtot 16.808596
  467         hc     17    ccc    H12    467 0.10603300   1.008000   ; qtot 16.914629
  468         hc     17    ccc    H13    468 0.10603300   1.008000   ; qtot 17.020662
  469          c     17    ccc     C8    469 0.63793300  12.010000   ; qtot 17.658595
  470          o     17    ccc     O3    470 -0.48266700  16.000000   ; qtot 17.175928
  471         oh     17    ccc     O4    471 -0.53626700  16.000000   ; qtot 16.639661
  472         ho     17    ccc    H14    472 0.45283300   1.008000   ; qtot 17.092494
  473         ho     17    ccc    H15    473 0.45283300   1.008000   ; qtot 17.545327
  474         hn     17    ccc    H16    474 0.45463300   1.008000   ; qtot 17.999960
; residue   18 ccc rtp ccc q 1.0
  475          n     18    ccc     N1    475 -0.56206700  14.010000   ; qtot 17.437893
  476         hn     18    ccc     H1    476 0.35233300   1.008000   ; qtot 17.790226
  477         c3     18    ccc     C1    477 0.10283300  12.010000   ; qtot 17.893059
  478         h1     18    ccc     H2    478 0.07153300   1.008000   ; qtot 17.964592
  479         c3     18    ccc     C2    479 0.07063300  12.010000   ; qtot 18.035225
  480         h1     18    ccc     H3    480 0.07153300   1.008000   ; qtot 18.106758
  481         hx     18    ccc     H4    481 0.11303300   1.008000   ; qtot 18.219791
  482         hx     18    ccc     H5    482 0.11303300   1.008000   ; qtot 18.332824
  483         n4     18    ccc     N2    483 -0.67056700  14.010000   ; qtot 17.662257
  484         c3     18    ccc     C3    484 0.10863300  12.010000   ; qtot 17.770890
  485         c3     18    ccc     C4    485 0.10863300  12.010000   ; qtot 17.879523
  486         hx     18    ccc     H6    486 0.12753300   1.008000   ; qtot 18.007056
  487         c3     18    ccc     C5    487 -0.20606700  12.010000   ; qtot 17.800989
  488         hx     18    ccc     H7    488 0.12753300   1.008000   ; qtot 17.928522
  489         hc     18    ccc     H8    489 0.10603300   1.008000   ; qtot 18.034555
  490         hc     18    ccc     H9    490 0.10603300   1.008000   ; qtot 18.140588
  491          c     18    ccc     C6    491 0.63793300  12.010000   ; qtot 18.778521
  492         oh     18    ccc     O1    492 -0.53626700  16.000000   ; qtot 18.242254
  493          o     18    ccc     O2    493 -0.48266700  16.000000   ; qtot 17.759587
  494         hx     18    ccc    H10    494 0.12753300   1.008000   ; qtot 17.887120
  495         hx     18    ccc    H11    495 0.12753300   1.008000   ; qtot 18.014653
  496         c3     18    ccc     C7    496 -0.20606700  12.010000   ; qtot 17.808586
  497         hc     18    ccc    H12    497 0.10603300   1.008000   ; qtot 17.914619
  498         hc     18    ccc    H13    498 0.10603300   1.008000   ; qtot 18.020652
  499          c     18    ccc     C8    499 0.63793300  12.010000   ; qtot 18.658585
  500          o     18    ccc     O3    500 -0.48266700  16.000000   ; qtot 18.175918
  501         oh     18    ccc     O4    501 -0.53626700  16.000000   ; qtot 17.639651
  502         ho     18    ccc    H14    502 0.45283300   1.008000   ; qtot 18.092484
  503         ho     18    ccc    H15    503 0.45283300   1.008000   ; qtot 18.545317
  504         hn     18    ccc    H16    504 0.45463300   1.008000   ; qtot 18.999950
; residue   19 ccc rtp ccc q 1.0
  505          n     19    ccc     N1    505 -0.56206700  14.010000   ; qtot 18.437883
  506         hn     19    ccc     H1    506 0.35233300   1.008000   ; qtot 18.790216
  507         c3     19    ccc     C1    507 0.10283300  12.010000   ; qtot 18.893049
  508         h1     19    ccc     H2    508 0.07153300   1.008000   ; qtot 18.964582
  509         c3     19    ccc     C2    509 0.07063300  12.010000   ; qtot 19.035215
  510         h1     19    ccc     H3    510 0.07153300   1.008000   ; qtot 19.106748
  511         hx     19    ccc     H4    511 0.11303300   1.008000   ; qtot 19.219781
  512         hx     19    ccc     H5    512 0.11303300   1.008000   ; qtot 19.332814
  513         n4     19    ccc     N2    513 -0.67056700  14.010000   ; qtot 18.662247
  514         c3     19    ccc     C3    514 0.10863300  12.010000   ; qtot 18.770880
  515         c3     19    ccc     C4    515 0.10863300  12.010000   ; qtot 18.879513
  516         hx     19    ccc     H6    516 0.12753300   1.008000   ; qtot 19.007046
  517         c3     19    ccc     C5    517 -0.20606700  12.010000   ; qtot 18.800979
  518         hx     19    ccc     H7    518 0.12753300   1.008000   ; qtot 18.928512
  519         hc     19    ccc     H8    519 0.10603300   1.008000   ; qtot 19.034545
  520         hc     19    ccc     H9    520 0.10603300   1.008000   ; qtot 19.140578
  521          c     19    ccc     C6    521 0.63793300  12.010000   ; qtot 19.778511
  522         oh     19    ccc     O1    522 -0.53626700  16.000000   ; qtot 19.242244
  523          o     19    ccc     O2    523 -0.48266700  16.000000   ; qtot 18.759577
  524         hx     19    ccc    H10    524 0.12753300   1.008000   ; qtot 18.887110
  525         hx     19    ccc    H11    525 0.12753300   1.008000   ; qtot 19.014643
  526         c3     19    ccc     C7    526 -0.20606700  12.010000   ; qtot 18.808576
  527         hc     19    ccc    H12    527 0.10603300   1.008000   ; qtot 18.914609
  528         hc     19    ccc    H13    528 0.10603300   1.008000   ; qtot 19.020642
  529          c     19    ccc     C8    529 0.63793300  12.010000   ; qtot 19.658575
  530          o     19    ccc     O3    530 -0.48266700  16.000000   ; qtot 19.175908
  531         oh     19    ccc     O4    531 -0.53626700  16.000000   ; qtot 18.639641
  532         ho     19    ccc    H14    532 0.45283300   1.008000   ; qtot 19.092474
  533         ho     19    ccc    H15    533 0.45283300   1.008000   ; qtot 19.545307
  534         hn     19    ccc    H16    534 0.45463300   1.008000   ; qtot 19.999940
; residue   20 ccc rtp ccc q 1.0
  535          n     20    ccc     N1    535 -0.56206700  14.010000   ; qtot 19.437873
  536         hn     20    ccc     H1    536 0.35233300   1.008000   ; qtot 19.790206
  537         c3     20    ccc     C1    537 0.10283300  12.010000   ; qtot 19.893039
  538         h1     20    ccc     H2    538 0.07153300   1.008000   ; qtot 19.964572
  539         c3     20    ccc     C2    539 0.07063300  12.010000   ; qtot 20.035205
  540         h1     20    ccc     H3    540 0.07153300   1.008000   ; qtot 20.106738
  541         hx     20    ccc     H4    541 0.11303300   1.008000   ; qtot 20.219771
  542         hx     20    ccc     H5    542 0.11303300   1.008000   ; qtot 20.332804
  543         n4     20    ccc     N2    543 -0.67056700  14.010000   ; qtot 19.662237
  544         c3     20    ccc     C3    544 0.10863300  12.010000   ; qtot 19.770870
  545         c3     20    ccc     C4    545 0.10863300  12.010000   ; qtot 19.879503
  546         hx     20    ccc     H6    546 0.12753300   1.008000   ; qtot 20.007036
  547         c3     20    ccc     C5    547 -0.20606700  12.010000   ; qtot 19.800969
  548         hx     20    ccc     H7    548 0.12753300   1.008000   ; qtot 19.928502
  549         hc     20    ccc     H8    549 0.10603300   1.008000   ; qtot 20.034535
  550         hc     20    ccc     H9    550 0.10603300   1.008000   ; qtot 20.140568
  551          c     20    ccc     C6    551 0.63793300  12.010000   ; qtot 20.778501
  552         oh     20    ccc     O1    552 -0.53626700  16.000000   ; qtot 20.242234
  553          o     20    ccc     O2    553 -0.48266700  16.000000   ; qtot 19.759567
  554         hx     20    ccc    H10    554 0.12753300   1.008000   ; qtot 19.887100
  555         hx     20    ccc    H11    555 0.12753300   1.008000   ; qtot 20.014633
  556         c3     20    ccc     C7    556 -0.20606700  12.010000   ; qtot 19.808566
  557         hc     20    ccc    H12    557 0.10603300   1.008000   ; qtot 19.914599
  558         hc     20    ccc    H13    558 0.10603300   1.008000   ; qtot 20.020632
  559          c     20    ccc     C8    559 0.63793300  12.010000   ; qtot 20.658565
  560          o     20    ccc     O3    560 -0.48266700  16.000000   ; qtot 20.175898
  561         oh     20    ccc     O4    561 -0.53626700  16.000000   ; qtot 19.639631
  562         ho     20    ccc    H14    562 0.45283300   1.008000   ; qtot 20.092464
  563         ho     20    ccc    H15    563 0.45283300   1.008000   ; qtot 20.545297
  564         hn     20    ccc    H16    564 0.45463300   1.008000   ; qtot 20.999930
; residue   21 ccc rtp ccc q 1.0
  565          n     21    ccc     N1    565 -0.56206700  14.010000   ; qtot 20.437863
  566         hn     21    ccc     H1    566 0.35233300   1.008000   ; qtot 20.790196
  567         c3     21    ccc     C1    567 0.10283300  12.010000   ; qtot 20.893029
  568         h1     21    ccc     H2    568 0.07153300   1.008000   ; qtot 20.964562
  569         c3     21    ccc     C2    569 0.07063300  12.010000   ; qtot 21.035195
  570         h1     21    ccc     H3    570 0.07153300   1.008000   ; qtot 21.106728
  571         hx     21    ccc     H4    571 0.11303300   1.008000   ; qtot 21.219761
  572         hx     21    ccc     H5    572 0.11303300   1.008000   ; qtot 21.332794
  573         n4     21    ccc     N2    573 -0.67056700  14.010000   ; qtot 20.662227
  574         c3     21    ccc     C3    574 0.10863300  12.010000   ; qtot 20.770860
  575         c3     21    ccc     C4    575 0.10863300  12.010000   ; qtot 20.879493
  576         hx     21    ccc     H6    576 0.12753300   1.008000   ; qtot 21.007026
  577         c3     21    ccc     C5    577 -0.20606700  12.010000   ; qtot 20.800959
  578         hx     21    ccc     H7    578 0.12753300   1.008000   ; qtot 20.928492
  579         hc     21    ccc     H8    579 0.10603300   1.008000   ; qtot 21.034525
  580         hc     21    ccc     H9    580 0.10603300   1.008000   ; qtot 21.140558
  581          c     21    ccc     C6    581 0.63793300  12.010000   ; qtot 21.778491
  582         oh     21    ccc     O1    582 -0.53626700  16.000000   ; qtot 21.242224
  583          o     21    ccc     O2    583 -0.48266700  16.000000   ; qtot 20.759557
  584         hx     21    ccc    H10    584 0.12753300   1.008000   ; qtot 20.887090
  585         hx     21    ccc    H11    585 0.12753300   1.008000   ; qtot 21.014623
  586         c3     21    ccc     C7    586 -0.20606700  12.010000   ; qtot 20.808556
  587         hc     21    ccc    H12    587 0.10603300   1.008000   ; qtot 20.914589
  588         hc     21    ccc    H13    588 0.10603300   1.008000   ; qtot 21.020622
  589          c     21    ccc     C8    589 0.63793300  12.010000   ; qtot 21.658555
  590          o     21    ccc     O3    590 -0.48266700  16.000000   ; qtot 21.175888
  591         oh     21    ccc     O4    591 -0.53626700  16.000000   ; qtot 20.639621
  592         ho     21    ccc    H14    592 0.45283300   1.008000   ; qtot 21.092454
  593         ho     21    ccc    H15    593 0.45283300   1.008000   ; qtot 21.545287
  594         hn     21    ccc    H16    594 0.45463300   1.008000   ; qtot 21.999920
; residue   22 ccc rtp ccc q 1.0
  595          n     22    ccc     N1    595 -0.56206700  14.010000   ; qtot 21.437853
  596         hn     22    ccc     H1    596 0.35233300   1.008000   ; qtot 21.790186
  597         c3     22    ccc     C1    597 0.10283300  12.010000   ; qtot 21.893019
  598         h1     22    ccc     H2    598 0.07153300   1.008000   ; qtot 21.964552
  599         c3     22    ccc     C2    599 0.07063300  12.010000   ; qtot 22.035185
  600         h1     22    ccc     H3    600 0.07153300   1.008000   ; qtot 22.106718
  601         hx     22    ccc     H4    601 0.11303300   1.008000   ; qtot 22.219751
  602         hx     22    ccc     H5    602 0.11303300   1.008000   ; qtot 22.332784
  603         n4     22    ccc     N2    603 -0.67056700  14.010000   ; qtot 21.662217
  604         c3     22    ccc     C3    604 0.10863300  12.010000   ; qtot 21.770850
  605         c3     22    ccc     C4    605 0.10863300  12.010000   ; qtot 21.879483
  606         hx     22    ccc     H6    606 0.12753300   1.008000   ; qtot 22.007016
  607         c3     22    ccc     C5    607 -0.20606700  12.010000   ; qtot 21.800949
  608         hx     22    ccc     H7    608 0.12753300   1.008000   ; qtot 21.928482
  609         hc     22    ccc     H8    609 0.10603300   1.008000   ; qtot 22.034515
  610         hc     22    ccc     H9    610 0.10603300   1.008000   ; qtot 22.140548
  611          c     22    ccc     C6    611 0.63793300  12.010000   ; qtot 22.778481
  612         oh     22    ccc     O1    612 -0.53626700  16.000000   ; qtot 22.242214
  613          o     22    ccc     O2    613 -0.48266700  16.000000   ; qtot 21.759547
  614         hx     22    ccc    H10    614 0.12753300   1.008000   ; qtot 21.887080
  615         hx     22    ccc    H11    615 0.12753300   1.008000   ; qtot 22.014613
  616         c3     22    ccc     C7    616 -0.20606700  12.010000   ; qtot 21.808546
  617         hc     22    ccc    H12    617 0.10603300   1.008000   ; qtot 21.914579
  618         hc     22    ccc    H13    618 0.10603300   1.008000   ; qtot 22.020612
  619          c     22    ccc     C8    619 0.63793300  12.010000   ; qtot 22.658545
  620          o     22    ccc     O3    620 -0.48266700  16.000000   ; qtot 22.175878
  621         oh     22    ccc     O4    621 -0.53626700  16.000000   ; qtot 21.639611
  622         ho     22    ccc    H14    622 0.45283300   1.008000   ; qtot 22.092444
  623         ho     22    ccc    H15    623 0.45283300   1.008000   ; qtot 22.545277
  624         hn     22    ccc    H16    624 0.45463300   1.008000   ; qtot 22.999910
; residue   23 ccc rtp ccc q 1.0
  625          n     23    ccc     N1    625 -0.56206700  14.010000   ; qtot 22.437843
  626         hn     23    ccc     H1    626 0.35233300   1.008000   ; qtot 22.790176
  627         c3     23    ccc     C1    627 0.10283300  12.010000   ; qtot 22.893009
  628         h1     23    ccc     H2    628 0.07153300   1.008000   ; qtot 22.964542
  629         c3     23    ccc     C2    629 0.07063300  12.010000   ; qtot 23.035175
  630         h1     23    ccc     H3    630 0.07153300   1.008000   ; qtot 23.106708
  631         hx     23    ccc     H4    631 0.11303300   1.008000   ; qtot 23.219741
  632         hx     23    ccc     H5    632 0.11303300   1.008000   ; qtot 23.332774
  633         n4     23    ccc     N2    633 -0.67056700  14.010000   ; qtot 22.662207
  634         c3     23    ccc     C3    634 0.10863300  12.010000   ; qtot 22.770840
  635         c3     23    ccc     C4    635 0.10863300  12.010000   ; qtot 22.879473
  636         hx     23    ccc     H6    636 0.12753300   1.008000   ; qtot 23.007006
  637         c3     23    ccc     C5    637 -0.20606700  12.010000   ; qtot 22.800939
  638         hx     23    ccc     H7    638 0.12753300   1.008000   ; qtot 22.928472
  639         hc     23    ccc     H8    639 0.10603300   1.008000   ; qtot 23.034505
  640         hc     23    ccc     H9    640 0.10603300   1.008000   ; qtot 23.140538
  641          c     23    ccc     C6    641 0.63793300  12.010000   ; qtot 23.778471
  642         oh     23    ccc     O1    642 -0.53626700  16.000000   ; qtot 23.242204
  643          o     23    ccc     O2    643 -0.48266700  16.000000   ; qtot 22.759537
  644         hx     23    ccc    H10    644 0.12753300   1.008000   ; qtot 22.887070
  645         hx     23    ccc    H11    645 0.12753300   1.008000   ; qtot 23.014603
  646         c3     23    ccc     C7    646 -0.20606700  12.010000   ; qtot 22.808536
  647         hc     23    ccc    H12    647 0.10603300   1.008000   ; qtot 22.914569
  648         hc     23    ccc    H13    648 0.10603300   1.008000   ; qtot 23.020602
  649          c     23    ccc     C8    649 0.63793300  12.010000   ; qtot 23.658535
  650          o     23    ccc     O3    650 -0.48266700  16.000000   ; qtot 23.175868
  651         oh     23    ccc     O4    651 -0.53626700  16.000000   ; qtot 22.639601
  652         ho     23    ccc    H14    652 0.45283300   1.008000   ; qtot 23.092434
  653         ho     23    ccc    H15    653 0.45283300   1.008000   ; qtot 23.545267
  654         hn     23    ccc    H16    654 0.45463300   1.008000   ; qtot 23.999900
; residue   24 ccc rtp ccc q 1.0
  655          n     24    ccc     N1    655 -0.56206700  14.010000   ; qtot 23.437833
  656         hn     24    ccc     H1    656 0.35233300   1.008000   ; qtot 23.790166
  657         c3     24    ccc     C1    657 0.10283300  12.010000   ; qtot 23.892999
  658         h1     24    ccc     H2    658 0.07153300   1.008000   ; qtot 23.964532
  659         c3     24    ccc     C2    659 0.07063300  12.010000   ; qtot 24.035165
  660         h1     24    ccc     H3    660 0.07153300   1.008000   ; qtot 24.106698
  661         hx     24    ccc     H4    661 0.11303300   1.008000   ; qtot 24.219731
  662         hx     24    ccc     H5    662 0.11303300   1.008000   ; qtot 24.332764
  663         n4     24    ccc     N2    663 -0.67056700  14.010000   ; qtot 23.662197
  664         c3     24    ccc     C3    664 0.10863300  12.010000   ; qtot 23.770830
  665         c3     24    ccc     C4    665 0.10863300  12.010000   ; qtot 23.879463
  666         hx     24    ccc     H6    666 0.12753300   1.008000   ; qtot 24.006996
  667         c3     24    ccc     C5    667 -0.20606700  12.010000   ; qtot 23.800929
  668         hx     24    ccc     H7    668 0.12753300   1.008000   ; qtot 23.928462
  669         hc     24    ccc     H8    669 0.10603300   1.008000   ; qtot 24.034495
  670         hc     24    ccc     H9    670 0.10603300   1.008000   ; qtot 24.140528
  671          c     24    ccc     C6    671 0.63793300  12.010000   ; qtot 24.778461
  672         oh     24    ccc     O1    672 -0.53626700  16.000000   ; qtot 24.242194
  673          o     24    ccc     O2    673 -0.48266700  16.000000   ; qtot 23.759527
  674         hx     24    ccc    H10    674 0.12753300   1.008000   ; qtot 23.887060
  675         hx     24    ccc    H11    675 0.12753300   1.008000   ; qtot 24.014593
  676         c3     24    ccc     C7    676 -0.20606700  12.010000   ; qtot 23.808526
  677         hc     24    ccc    H12    677 0.10603300   1.008000   ; qtot 23.914559
  678         hc     24    ccc    H13    678 0.10603300   1.008000   ; qtot 24.020592
  679          c     24    ccc     C8    679 0.63793300  12.010000   ; qtot 24.658525
  680          o     24    ccc     O3    680 -0.48266700  16.000000   ; qtot 24.175858
  681         oh     24    ccc     O4    681 -0.53626700  16.000000   ; qtot 23.639591
  682         ho     24    ccc    H14    682 0.45283300   1.008000   ; qtot 24.092424
  683         ho     24    ccc    H15    683 0.45283300   1.008000   ; qtot 24.545257
  684         hn     24    ccc    H16    684 0.45463300   1.008000   ; qtot 24.999890
; residue   25 ccc rtp ccc q 1.0
  685          n     25    ccc     N1    685 -0.56206700  14.010000   ; qtot 24.437823
  686         hn     25    ccc     H1    686 0.35233300   1.008000   ; qtot 24.790156
  687         c3     25    ccc     C1    687 0.10283300  12.010000   ; qtot 24.892989
  688         h1     25    ccc     H2    688 0.07153300   1.008000   ; qtot 24.964522
  689         c3     25    ccc     C2    689 0.07063300  12.010000   ; qtot 25.035155
  690         h1     25    ccc     H3    690 0.07153300   1.008000   ; qtot 25.106688
  691         hx     25    ccc     H4    691 0.11303300   1.008000   ; qtot 25.219721
  692         hx     25    ccc     H5    692 0.11303300   1.008000   ; qtot 25.332754
  693         n4     25    ccc     N2    693 -0.67056700  14.010000   ; qtot 24.662187
  694         c3     25    ccc     C3    694 0.10863300  12.010000   ; qtot 24.770820
  695         c3     25    ccc     C4    695 0.10863300  12.010000   ; qtot 24.879453
  696         hx     25    ccc     H6    696 0.12753300   1.008000   ; qtot 25.006986
  697         c3     25    ccc     C5    697 -0.20606700  12.010000   ; qtot 24.800919
  698         hx     25    ccc     H7    698 0.12753300   1.008000   ; qtot 24.928452
  699         hc     25    ccc     H8    699 0.10603300   1.008000   ; qtot 25.034485
  700         hc     25    ccc     H9    700 0.10603300   1.008000   ; qtot 25.140518
  701          c     25    ccc     C6    701 0.63793300  12.010000   ; qtot 25.778451
  702         oh     25    ccc     O1    702 -0.53626700  16.000000   ; qtot 25.242184
  703          o     25    ccc     O2    703 -0.48266700  16.000000   ; qtot 24.759517
  704         hx     25    ccc    H10    704 0.12753300   1.008000   ; qtot 24.887050
  705         hx     25    ccc    H11    705 0.12753300   1.008000   ; qtot 25.014583
  706         c3     25    ccc     C7    706 -0.20606700  12.010000   ; qtot 24.808516
  707         hc     25    ccc    H12    707 0.10603300   1.008000   ; qtot 24.914549
  708         hc     25    ccc    H13    708 0.10603300   1.008000   ; qtot 25.020582
  709          c     25    ccc     C8    709 0.63793300  12.010000   ; qtot 25.658515
  710          o     25    ccc     O3    710 -0.48266700  16.000000   ; qtot 25.175848
  711         oh     25    ccc     O4    711 -0.53626700  16.000000   ; qtot 24.639581
  712         ho     25    ccc    H14    712 0.45283300   1.008000   ; qtot 25.092414
  713         ho     25    ccc    H15    713 0.45283300   1.008000   ; qtot 25.545247
  714         hn     25    ccc    H16    714 0.45463300   1.008000   ; qtot 25.999880
; residue   26 ccc rtp ccc q 1.0
  715          n     26    ccc     N1    715 -0.56206700  14.010000   ; qtot 25.437813
  716         hn     26    ccc     H1    716 0.35233300   1.008000   ; qtot 25.790146
  717         c3     26    ccc     C1    717 0.10283300  12.010000   ; qtot 25.892979
  718         h1     26    ccc     H2    718 0.07153300   1.008000   ; qtot 25.964512
  719         c3     26    ccc     C2    719 0.07063300  12.010000   ; qtot 26.035145
  720         h1     26    ccc     H3    720 0.07153300   1.008000   ; qtot 26.106678
  721         hx     26    ccc     H4    721 0.11303300   1.008000   ; qtot 26.219711
  722         hx     26    ccc     H5    722 0.11303300   1.008000   ; qtot 26.332744
  723         n4     26    ccc     N2    723 -0.67056700  14.010000   ; qtot 25.662177
  724         c3     26    ccc     C3    724 0.10863300  12.010000   ; qtot 25.770810
  725         c3     26    ccc     C4    725 0.10863300  12.010000   ; qtot 25.879443
  726         hx     26    ccc     H6    726 0.12753300   1.008000   ; qtot 26.006976
  727         c3     26    ccc     C5    727 -0.20606700  12.010000   ; qtot 25.800909
  728         hx     26    ccc     H7    728 0.12753300   1.008000   ; qtot 25.928442
  729         hc     26    ccc     H8    729 0.10603300   1.008000   ; qtot 26.034475
  730         hc     26    ccc     H9    730 0.10603300   1.008000   ; qtot 26.140508
  731          c     26    ccc     C6    731 0.63793300  12.010000   ; qtot 26.778441
  732         oh     26    ccc     O1    732 -0.53626700  16.000000   ; qtot 26.242174
  733          o     26    ccc     O2    733 -0.48266700  16.000000   ; qtot 25.759507
  734         hx     26    ccc    H10    734 0.12753300   1.008000   ; qtot 25.887040
  735         hx     26    ccc    H11    735 0.12753300   1.008000   ; qtot 26.014573
  736         c3     26    ccc     C7    736 -0.20606700  12.010000   ; qtot 25.808506
  737         hc     26    ccc    H12    737 0.10603300   1.008000   ; qtot 25.914539
  738         hc     26    ccc    H13    738 0.10603300   1.008000   ; qtot 26.020572
  739          c     26    ccc     C8    739 0.63793300  12.010000   ; qtot 26.658505
  740          o     26    ccc     O3    740 -0.48266700  16.000000   ; qtot 26.175838
  741         oh     26    ccc     O4    741 -0.53626700  16.000000   ; qtot 25.639571
  742         ho     26    ccc    H14    742 0.45283300   1.008000   ; qtot 26.092404
  743         ho     26    ccc    H15    743 0.45283300   1.008000   ; qtot 26.545237
  744         hn     26    ccc    H16    744 0.45463300   1.008000   ; qtot 26.999870
; residue   27 ccc rtp ccc q 1.0
  745          n     27    ccc     N1    745 -0.56206700  14.010000   ; qtot 26.437803
  746         hn     27    ccc     H1    746 0.35233300   1.008000   ; qtot 26.790136
  747         c3     27    ccc     C1    747 0.10283300  12.010000   ; qtot 26.892969
  748         h1     27    ccc     H2    748 0.07153300   1.008000   ; qtot 26.964502
  749         c3     27    ccc     C2    749 0.07063300  12.010000   ; qtot 27.035135
  750         h1     27    ccc     H3    750 0.07153300   1.008000   ; qtot 27.106668
  751         hx     27    ccc     H4    751 0.11303300   1.008000   ; qtot 27.219701
  752         hx     27    ccc     H5    752 0.11303300   1.008000   ; qtot 27.332734
  753         n4     27    ccc     N2    753 -0.67056700  14.010000   ; qtot 26.662167
  754         c3     27    ccc     C3    754 0.10863300  12.010000   ; qtot 26.770800
  755         c3     27    ccc     C4    755 0.10863300  12.010000   ; qtot 26.879433
  756         hx     27    ccc     H6    756 0.12753300   1.008000   ; qtot 27.006966
  757         c3     27    ccc     C5    757 -0.20606700  12.010000   ; qtot 26.800899
  758         hx     27    ccc     H7    758 0.12753300   1.008000   ; qtot 26.928432
  759         hc     27    ccc     H8    759 0.10603300   1.008000   ; qtot 27.034465
  760         hc     27    ccc     H9    760 0.10603300   1.008000   ; qtot 27.140498
  761          c     27    ccc     C6    761 0.63793300  12.010000   ; qtot 27.778431
  762         oh     27    ccc     O1    762 -0.53626700  16.000000   ; qtot 27.242164
  763          o     27    ccc     O2    763 -0.48266700  16.000000   ; qtot 26.759497
  764         hx     27    ccc    H10    764 0.12753300   1.008000   ; qtot 26.887030
  765         hx     27    ccc    H11    765 0.12753300   1.008000   ; qtot 27.014563
  766         c3     27    ccc     C7    766 -0.20606700  12.010000   ; qtot 26.808496
  767         hc     27    ccc    H12    767 0.10603300   1.008000   ; qtot 26.914529
  768         hc     27    ccc    H13    768 0.10603300   1.008000   ; qtot 27.020562
  769          c     27    ccc     C8    769 0.63793300  12.010000   ; qtot 27.658495
  770          o     27    ccc     O3    770 -0.48266700  16.000000   ; qtot 27.175828
  771         oh     27    ccc     O4    771 -0.53626700  16.000000   ; qtot 26.639561
  772         ho     27    ccc    H14    772 0.45283300   1.008000   ; qtot 27.092394
  773         ho     27    ccc    H15    773 0.45283300   1.008000   ; qtot 27.545227
  774         hn     27    ccc    H16    774 0.45463300   1.008000   ; qtot 27.999860
; residue   28 ccc rtp ccc q 1.0
  775          n     28    ccc     N1    775 -0.56206700  14.010000   ; qtot 27.437793
  776         hn     28    ccc     H1    776 0.35233300   1.008000   ; qtot 27.790126
  777         c3     28    ccc     C1    777 0.10283300  12.010000   ; qtot 27.892959
  778         h1     28    ccc     H2    778 0.07153300   1.008000   ; qtot 27.964492
  779         c3     28    ccc     C2    779 0.07063300  12.010000   ; qtot 28.035125
  780         h1     28    ccc     H3    780 0.07153300   1.008000   ; qtot 28.106658
  781         hx     28    ccc     H4    781 0.11303300   1.008000   ; qtot 28.219691
  782         hx     28    ccc     H5    782 0.11303300   1.008000   ; qtot 28.332724
  783         n4     28    ccc     N2    783 -0.67056700  14.010000   ; qtot 27.662157
  784         c3     28    ccc     C3    784 0.10863300  12.010000   ; qtot 27.770790
  785         c3     28    ccc     C4    785 0.10863300  12.010000   ; qtot 27.879423
  786         hx     28    ccc     H6    786 0.12753300   1.008000   ; qtot 28.006956
  787         c3     28    ccc     C5    787 -0.20606700  12.010000   ; qtot 27.800889
  788         hx     28    ccc     H7    788 0.12753300   1.008000   ; qtot 27.928422
  789         hc     28    ccc     H8    789 0.10603300   1.008000   ; qtot 28.034455
  790         hc     28    ccc     H9    790 0.10603300   1.008000   ; qtot 28.140488
  791          c     28    ccc     C6    791 0.63793300  12.010000   ; qtot 28.778421
  792         oh     28    ccc     O1    792 -0.53626700  16.000000   ; qtot 28.242154
  793          o     28    ccc     O2    793 -0.48266700  16.000000   ; qtot 27.759487
  794         hx     28    ccc    H10    794 0.12753300   1.008000   ; qtot 27.887020
  795         hx     28    ccc    H11    795 0.12753300   1.008000   ; qtot 28.014553
  796         c3     28    ccc     C7    796 -0.20606700  12.010000   ; qtot 27.808486
  797         hc     28    ccc    H12    797 0.10603300   1.008000   ; qtot 27.914519
  798         hc     28    ccc    H13    798 0.10603300   1.008000   ; qtot 28.020552
  799          c     28    ccc     C8    799 0.63793300  12.010000   ; qtot 28.658485
  800          o     28    ccc     O3    800 -0.48266700  16.000000   ; qtot 28.175818
  801         oh     28    ccc     O4    801 -0.53626700  16.000000   ; qtot 27.639551
  802         ho     28    ccc    H14    802 0.45283300   1.008000   ; qtot 28.092384
  803         ho     28    ccc    H15    803 0.45283300   1.008000   ; qtot 28.545217
  804         hn     28    ccc    H16    804 0.45463300   1.008000   ; qtot 28.999850
; residue   29 ccc rtp ccc q 1.0
  805          n     29    ccc     N1    805 -0.56206700  14.010000   ; qtot 28.437783
  806         hn     29    ccc     H1    806 0.35233300   1.008000   ; qtot 28.790116
  807         c3     29    ccc     C1    807 0.10283300  12.010000   ; qtot 28.892949
  808         h1     29    ccc     H2    808 0.07153300   1.008000   ; qtot 28.964482
  809         c3     29    ccc     C2    809 0.07063300  12.010000   ; qtot 29.035115
  810         h1     29    ccc     H3    810 0.07153300   1.008000   ; qtot 29.106648
  811         hx     29    ccc     H4    811 0.11303300   1.008000   ; qtot 29.219681
  812         hx     29    ccc     H5    812 0.11303300   1.008000   ; qtot 29.332714
  813         n4     29    ccc     N2    813 -0.67056700  14.010000   ; qtot 28.662147
  814         c3     29    ccc     C3    814 0.10863300  12.010000   ; qtot 28.770780
  815         c3     29    ccc     C4    815 0.10863300  12.010000   ; qtot 28.879413
  816         hx     29    ccc     H6    816 0.12753300   1.008000   ; qtot 29.006946
  817         c3     29    ccc     C5    817 -0.20606700  12.010000   ; qtot 28.800879
  818         hx     29    ccc     H7    818 0.12753300   1.008000   ; qtot 28.928412
  819         hc     29    ccc     H8    819 0.10603300   1.008000   ; qtot 29.034445
  820         hc     29    ccc     H9    820 0.10603300   1.008000   ; qtot 29.140478
  821          c     29    ccc     C6    821 0.63793300  12.010000   ; qtot 29.778411
  822         oh     29    ccc     O1    822 -0.53626700  16.000000   ; qtot 29.242144
  823          o     29    ccc     O2    823 -0.48266700  16.000000   ; qtot 28.759477
  824         hx     29    ccc    H10    824 0.12753300   1.008000   ; qtot 28.887010
  825         hx     29    ccc    H11    825 0.12753300   1.008000   ; qtot 29.014543
  826         c3     29    ccc     C7    826 -0.20606700  12.010000   ; qtot 28.808476
  827         hc     29    ccc    H12    827 0.10603300   1.008000   ; qtot 28.914509
  828         hc     29    ccc    H13    828 0.10603300   1.008000   ; qtot 29.020542
  829          c     29    ccc     C8    829 0.63793300  12.010000   ; qtot 29.658475
  830          o     29    ccc     O3    830 -0.48266700  16.000000   ; qtot 29.175808
  831         oh     29    ccc     O4    831 -0.53626700  16.000000   ; qtot 28.639541
  832         ho     29    ccc    H14    832 0.45283300   1.008000   ; qtot 29.092374
  833         ho     29    ccc    H15    833 0.45283300   1.008000   ; qtot 29.545207
  834         hn     29    ccc    H16    834 0.45463300   1.008000   ; qtot 29.999840

[ bonds ]
;    ai     aj funct         c0         c1         c2         c3
      1      2     1   0.15110 237065.440000
      1      7     1   0.15110 237065.440000
      1      8     1   0.15110 237065.440000
      2      3     1   0.15375 251793.120000
      3      4     1   0.15110 237065.440000
      4      5     1   0.15110 237065.440000
      4      6     1   0.15110 237065.440000
      5     11     1   0.15375 251793.120000
      6      9     1   0.15375 251793.120000
      7     13     1   0.15375 251793.120000
      8     15     1   0.15375 251793.120000
      9     10     1   0.15241 261918.400000
     10     18     1   0.12183 533627.360000
     10     52     1   0.13789 357815.680000
     11     12     1   0.15241 261918.400000
     12     17     1   0.12183 533627.360000
     12     78     1   0.13789 357815.680000
     13     14     1   0.15241 261918.400000
     14     20     1   0.12183 533627.360000
     14    104     1   0.13789 357815.680000
     15     16     1   0.15241 261918.400000
     16     19     1   0.12183 533627.360000
     16    130     1   0.13789 357815.680000
     43     44     1   0.15110 237065.440000
     43     45     1   0.15110 237065.440000
     43     50     1   0.15110 237065.440000
     44     46     1   0.15375 251793.120000
     45     48     1   0.15375 251793.120000
     46     47     1   0.15241 261918.400000
     47     53     1   0.12183 533627.360000
     47    156     1   0.13789 357815.680000
     48     49     1   0.15241 261918.400000
     49     54     1   0.12183 533627.360000
     49    182     1   0.13789 357815.680000
     50     51     1   0.15375 251793.120000
     51     52     1   0.14619 275056.160000
     69     70     1   0.15110 237065.440000
     69     71     1   0.15110 237065.440000
     69     76     1   0.15110 237065.440000
     70     72     1   0.15375 251793.120000
     71     74     1   0.15375 251793.120000
     72     73     1   0.15241 261918.400000
     73     79     1   0.12183 533627.360000
     73    208     1   0.13789 357815.680000
     74     75     1   0.15241 261918.400000
     75     80     1   0.12183 533627.360000
     75    234     1   0.13789 357815.680000
     76     77     1   0.15375 251793.120000
     77     78     1   0.14619 275056.160000
     95     96     1   0.15110 237065.440000
     95     97     1   0.15110 237065.440000
     95    102     1   0.15110 237065.440000
     96     98     1   0.15375 251793.120000
     97    100     1   0.15375 251793.120000
     98     99     1   0.15241 261918.400000
     99    105     1   0.12183 533627.360000
     99    260     1   0.13789 357815.680000
    100    101     1   0.15241 261918.400000
    101    106     1   0.12183 533627.360000
    101    286     1   0.13789 357815.680000
    102    103     1   0.15375 251793.120000
    103    104     1   0.14619 275056.160000
    121    122     1   0.15110 237065.440000
    121    123     1   0.15110 237065.440000
    121    128     1   0.15110 237065.440000
    122    124     1   0.15375 251793.120000
    123    126     1   0.15375 251793.120000
    124    125     1   0.15241 261918.400000
    125    131     1   0.12183 533627.360000
    125    312     1   0.13789 357815.680000
    126    127     1   0.15241 261918.400000
    127    132     1   0.12183 533627.360000
    127    338     1   0.13789 357815.680000
    128    129     1   0.15375 251793.120000
    129    130     1   0.14619 275056.160000
    147    148     1   0.15110 237065.440000
    147    149     1   0.15110 237065.440000
    147    154     1   0.15110 237065.440000
    148    150     1   0.15375 251793.120000
    149    152     1   0.15375 251793.120000
    150    151     1   0.15241 261918.400000
    151    355     1   0.13789 357815.680000
    151    157     1   0.12183 533627.360000
    152    153     1   0.15241 261918.400000
    153    158     1   0.12183 533627.360000
    153    385     1   0.13789 357815.680000
    154    155     1   0.15375 251793.120000
    155    156     1   0.14619 275056.160000
    173    174     1   0.15110 237065.440000
    173    175     1   0.15110 237065.440000
    173    180     1   0.15110 237065.440000
    174    176     1   0.15375 251793.120000
    175    178     1   0.15375 251793.120000
    176    177     1   0.15241 261918.400000
    177    415     1   0.13789 357815.680000
    177    183     1   0.12183 533627.360000
    178    179     1   0.15241 261918.400000
    179    184     1   0.12183 533627.360000
    179    445     1   0.13789 357815.680000
    180    181     1   0.15375 251793.120000
    181    182     1   0.14619 275056.160000
    199    200     1   0.15110 237065.440000
    199    201     1   0.15110 237065.440000
    199    206     1   0.15110 237065.440000
    200    202     1   0.15375 251793.120000
    201    204     1   0.15375 251793.120000
    202    203     1   0.15241 261918.400000
    203    475     1   0.13789 357815.680000
    203    209     1   0.12183 533627.360000
    204    205     1   0.15241 261918.400000
    205    210     1   0.12183 533627.360000
    205    505     1   0.13789 357815.680000
    206    207     1   0.15375 251793.120000
    207    208     1   0.14619 275056.160000
    225    226     1   0.15110 237065.440000
    225    227     1   0.15110 237065.440000
    225    232     1   0.15110 237065.440000
    226    228     1   0.15375 251793.120000
    227    230     1   0.15375 251793.120000
    228    229     1   0.15241 261918.400000
    229    535     1   0.13789 357815.680000
    229    235     1   0.12183 533627.360000
    230    231     1   0.15241 261918.400000
    231    236     1   0.12183 533627.360000
    231    565     1   0.13789 357815.680000
    232    233     1   0.15375 251793.120000
    233    234     1   0.14619 275056.160000
    251    252     1   0.15110 237065.440000
    251    253     1   0.15110 237065.440000
    251    258     1   0.15110 237065.440000
    252    254     1   0.15375 251793.120000
    253    256     1   0.15375 251793.120000
    254    255     1   0.15241 261918.400000
    255    595     1   0.13789 357815.680000
    255    261     1   0.12183 533627.360000
    256    257     1   0.15241 261918.400000
    257    262     1   0.12183 533627.360000
    257    625     1   0.13789 357815.680000
    258    259     1   0.15375 251793.120000
    259    260     1   0.14619 275056.160000
    277    278     1   0.15110 237065.440000
    277    279     1   0.15110 237065.440000
    277    284     1   0.15110 237065.440000
    278    280     1   0.15375 251793.120000
    279    282     1   0.15375 251793.120000
    280    281     1   0.15241 261918.400000
    281    655     1   0.13789 357815.680000
    281    287     1   0.12183 533627.360000
    282    283     1   0.15241 261918.400000
    283    288     1   0.12183 533627.360000
    283    685     1   0.13789 357815.680000
    284    285     1   0.15375 251793.120000
    285    286     1   0.14619 275056.160000
    303    304     1   0.15110 237065.440000
    303    305     1   0.15110 237065.440000
    303    310     1   0.15110 237065.440000
    304    306     1   0.15375 251793.120000
    305    308     1   0.15375 251793.120000
    306    307     1   0.15241 261918.400000
    307    715     1   0.13789 357815.680000
    307    313     1   0.12183 533627.360000
    308    309     1   0.15241 261918.400000
    309    314     1   0.12183 533627.360000
    309    745     1   0.13789 357815.680000
    310    311     1   0.15375 251793.120000
    311    312     1   0.14619 275056.160000
    329    330     1   0.15110 237065.440000
    329    331     1   0.15110 237065.440000
    329    336     1   0.15110 237065.440000
    330    332     1   0.15375 251793.120000
    331    334     1   0.15375 251793.120000
    332    333     1   0.15241 261918.400000
    333    775     1   0.13789 357815.680000
    333    339     1   0.12183 533627.360000
    334    335     1   0.15241 261918.400000
    335    805     1   0.13789 357815.680000
    335    340     1   0.12183 533627.360000
    336    337     1   0.15375 251793.120000
    337    338     1   0.14619 275056.160000
    355    357     1   0.14619 275056.160000
    357    359     1   0.15375 251793.120000
    359    363     1   0.15110 237065.440000
    363    364     1   0.15110 237065.440000
    363    365     1   0.15110 237065.440000
    364    376     1   0.15375 251793.120000
    365    367     1   0.15375 251793.120000
    367    371     1   0.15241 261918.400000
    371    372     1   0.13513 334803.680000
    371    373     1   0.12183 533627.360000
    376    379     1   0.15241 261918.400000
    379    380     1   0.12183 533627.360000
    379    381     1   0.13513 334803.680000
    385    387     1   0.14619 275056.160000
    387    389     1   0.15375 251793.120000
    389    393     1   0.15110 237065.440000
    393    394     1   0.15110 237065.440000
    393    395     1   0.15110 237065.440000
    394    406     1   0.15375 251793.120000
    395    397     1   0.15375 251793.120000
    397    401     1   0.15241 261918.400000
    401    402     1   0.13513 334803.680000
    401    403     1   0.12183 533627.360000
    406    409     1   0.15241 261918.400000
    409    410     1   0.12183 533627.360000
    409    411     1   0.13513 334803.680000
    415    417     1   0.14619 275056.160000
    417    419     1   0.15375 251793.120000
    419    423     1   0.15110 237065.440000
    423    424     1   0.15110 237065.440000
    423    425     1   0.15110 237065.440000
    424    436     1   0.15375 251793.120000
    425    427     1   0.15375 251793.120000
    427    431     1   0.15241 261918.400000
    431    432     1   0.13513 334803.680000
    431    433     1   0.12183 533627.360000
    436    439     1   0.15241 261918.400000
    439    440     1   0.12183 533627.360000
    439    441     1   0.13513 334803.680000
    445    447     1   0.14619 275056.160000
    447    449     1   0.15375 251793.120000
    449    453     1   0.15110 237065.440000
    453    454     1   0.15110 237065.440000
    453    455     1   0.15110 237065.440000
    454    466     1   0.15375 251793.120000
    455    457     1   0.15375 251793.120000
    457    461     1   0.15241 261918.400000
    461    462     1   0.13513 334803.680000
    461    463     1   0.12183 533627.360000
    466    469     1   0.15241 261918.400000
    469    470     1   0.12183 533627.360000
    469    471     1   0.13513 334803.680000
    475    477     1   0.14619 275056.160000
    477    479     1   0.15375 251793.120000
    479    483     1   0.15110 237065.440000
    483    484     1   0.15110 237065.440000
    483    485     1   0.15110 237065.440000
    484    496     1   0.15375 251793.120000
    485    487     1   0.15375 251793.120000
    487    491     1   0.15241 261918.400000
    491    492     1   0.13513 334803.680000
    491    493     1   0.12183 533627.360000
    496    499     1   0.15241 261918.400000
    499    500     1   0.12183 533627.360000
    499    501     1   0.13513 334803.680000
    505    507     1   0.14619 275056.160000
    507    509     1   0.15375 251793.120000
    509    513     1   0.15110 237065.440000
    513    514     1   0.15110 237065.440000
    513    515     1   0.15110 237065.440000
    514    526     1   0.15375 251793.120000
    515    517     1   0.15375 251793.120000
    517    521     1   0.15241 261918.400000
    521    522     1   0.13513 334803.680000
    521    523     1   0.12183 533627.360000
    526    529     1   0.15241 261918.400000
    529    530     1   0.12183 533627.360000
    529    531     1   0.13513 334803.680000
    535    537     1   0.14619 275056.160000
    537    539     1   0.15375 251793.120000
    539    543     1   0.15110 237065.440000
    543    544     1   0.15110 237065.440000
    543    545     1   0.15110 237065.440000
    544    556     1   0.15375 251793.120000
    545    547     1   0.15375 251793.120000
    547    551     1   0.15241 261918.400000
    551    552     1   0.13513 334803.680000
    551    553     1   0.12183 533627.360000
    556    559     1   0.15241 261918.400000
    559    560     1   0.12183 533627.360000
    559    561     1   0.13513 334803.680000
    565    567     1   0.14619 275056.160000
    567    569     1   0.15375 251793.120000
    569    573     1   0.15110 237065.440000
    573    574     1   0.15110 237065.440000
    573    575     1   0.15110 237065.440000
    574    586     1   0.15375 251793.120000
    575    577     1   0.15375 251793.120000
    577    581     1   0.15241 261918.400000
    581    582     1   0.13513 334803.680000
    581    583     1   0.12183 533627.360000
    586    589     1   0.15241 261918.400000
    589    590     1   0.12183 533627.360000
    589    591     1   0.13513 334803.680000
    595    597     1   0.14619 275056.160000
    597    599     1   0.15375 251793.120000
    599    603     1   0.15110 237065.440000
    603    604     1   0.15110 237065.440000
    603    605     1   0.15110 237065.440000
    604    616     1   0.15375 251793.120000
    605    607     1   0.15375 251793.120000
    607    611     1   0.15241 261918.400000
    611    612     1   0.13513 334803.680000
    611    613     1   0.12183 533627.360000
    616    619     1   0.15241 261918.400000
    619    620     1   0.12183 533627.360000
    619    621     1   0.13513 334803.680000
    625    627     1   0.14619 275056.160000
    627    629     1   0.15375 251793.120000
    629    633     1   0.15110 237065.440000
    633    634     1   0.15110 237065.440000
    633    635     1   0.15110 237065.440000
    634    646     1   0.15375 251793.120000
    635    637     1   0.15375 251793.120000
    637    641     1   0.15241 261918.400000
    641    642     1   0.13513 334803.680000
    641    643     1   0.12183 533627.360000
    646    649     1   0.15241 261918.400000
    649    650     1   0.12183 533627.360000
    649    651     1   0.13513 334803.680000
    655    657     1   0.14619 275056.160000
    657    659     1   0.15375 251793.120000
    659    663     1   0.15110 237065.440000
    663    664     1   0.15110 237065.440000
    663    665     1   0.15110 237065.440000
    664    676     1   0.15375 251793.120000
    665    667     1   0.15375 251793.120000
    667    671     1   0.15241 261918.400000
    671    672     1   0.13513 334803.680000
    671    673     1   0.12183 533627.360000
    676    679     1   0.15241 261918.400000
    679    680     1   0.12183 533627.360000
    679    681     1   0.13513 334803.680000
    685    687     1   0.14619 275056.160000
    687    689     1   0.15375 251793.120000
    689    693     1   0.15110 237065.440000
    693    694     1   0.15110 237065.440000
    693    695     1   0.15110 237065.440000
    694    706     1   0.15375 251793.120000
    695    697     1   0.15375 251793.120000
    697    701     1   0.15241 261918.400000
    701    702     1   0.13513 334803.680000
    701    703     1   0.12183 533627.360000
    706    709     1   0.15241 261918.400000
    709    710     1   0.12183 533627.360000
    709    711     1   0.13513 334803.680000
    715    717     1   0.14619 275056.160000
    717    719     1   0.15375 251793.120000
    719    723     1   0.15110 237065.440000
    723    724     1   0.15110 237065.440000
    723    725     1   0.15110 237065.440000
    724    736     1   0.15375 251793.120000
    725    727     1   0.15375 251793.120000
    727    731     1   0.15241 261918.400000
    731    732     1   0.13513 334803.680000
    731    733     1   0.12183 533627.360000
    736    739     1   0.15241 261918.400000
    739    740     1   0.12183 533627.360000
    739    741     1   0.13513 334803.680000
    745    747     1   0.14619 275056.160000
    747    749     1   0.15375 251793.120000
    749    753     1   0.15110 237065.440000
    753    754     1   0.15110 237065.440000
    753    755     1   0.15110 237065.440000
    754    766     1   0.15375 251793.120000
    755    757     1   0.15375 251793.120000
    757    761     1   0.15241 261918.400000
    761    762     1   0.13513 334803.680000
    761    763     1   0.12183 533627.360000
    766    769     1   0.15241 261918.400000
    769    770     1   0.12183 533627.360000
    769    771     1   0.13513 334803.680000
    775    777     1   0.14619 275056.160000
    777    779     1   0.15375 251793.120000
    779    783     1   0.15110 237065.440000
    783    784     1   0.15110 237065.440000
    783    785     1   0.15110 237065.440000
    784    796     1   0.15375 251793.120000
    785    787     1   0.15375 251793.120000
    787    791     1   0.15241 261918.400000
    791    792     1   0.13513 334803.680000
    791    793     1   0.12183 533627.360000
    796    799     1   0.15241 261918.400000
    799    800     1   0.12183 533627.360000
    799    801     1   0.13513 334803.680000
    805    807     1   0.14619 275056.160000
    807    809     1   0.15375 251793.120000
    809    813     1   0.15110 237065.440000
    813    814     1   0.15110 237065.440000
    813    815     1   0.15110 237065.440000
    814    826     1   0.15375 251793.120000
    815    817     1   0.15375 251793.120000
    817    821     1   0.15241 261918.400000
    821    822     1   0.13513 334803.680000
    821    823     1   0.12183 533627.360000
    826    829     1   0.15241 261918.400000
    829    830     1   0.12183 533627.360000
    829    831     1   0.13513 334803.680000
      1     41     1   0.10304 312293.760000
      2     21     1   0.10910 283424.160000
      2     22     1   0.10910 283424.160000
      3     23     1   0.10910 283424.160000
      3     24     1   0.10910 283424.160000
      4     42     1   0.10304 312293.760000
      5     25     1   0.10910 283424.160000
      5     26     1   0.10910 283424.160000
      6     27     1   0.10910 283424.160000
      6     28     1   0.10910 283424.160000
      7     29     1   0.10910 283424.160000
      7     30     1   0.10910 283424.160000
      8     31     1   0.10910 283424.160000
      8     32     1   0.10910 283424.160000
      9     33     1   0.10969 276646.080000
      9     34     1   0.10969 276646.080000
     11     35     1   0.10969 276646.080000
     11     36     1   0.10969 276646.080000
     13     37     1   0.10969 276646.080000
     13     38     1   0.10969 276646.080000
     15     39     1   0.10969 276646.080000
     15     40     1   0.10969 276646.080000
     43     68     1   0.10304 312293.760000
     44     55     1   0.10910 283424.160000
     44     56     1   0.10910 283424.160000
     45     57     1   0.10910 283424.160000
     45     58     1   0.10910 283424.160000
     46     59     1   0.10969 276646.080000
     46     60     1   0.10969 276646.080000
     48     61     1   0.10969 276646.080000
     48     62     1   0.10969 276646.080000
     50     63     1   0.10910 283424.160000
     50     64     1   0.10910 283424.160000
     51     65     1   0.10969 276646.080000
     51     66     1   0.10969 276646.080000
     52     67     1   0.10129 337397.760000
     69     94     1   0.10304 312293.760000
     70     81     1   0.10910 283424.160000
     70     82     1   0.10910 283424.160000
     71     83     1   0.10910 283424.160000
     71     84     1   0.10910 283424.160000
     72     85     1   0.10969 276646.080000
     72     86     1   0.10969 276646.080000
     74     87     1   0.10969 276646.080000
     74     88     1   0.10969 276646.080000
     76     89     1   0.10910 283424.160000
     76     90     1   0.10910 283424.160000
     77     91     1   0.10969 276646.080000
     77     92     1   0.10969 276646.080000
     78     93     1   0.10129 337397.760000
     95    120     1   0.10304 312293.760000
     96    107     1   0.10910 283424.160000
     96    108     1   0.10910 283424.160000
     97    109     1   0.10910 283424.160000
     97    110     1   0.10910 283424.160000
     98    111     1   0.10969 276646.080000
     98    112     1   0.10969 276646.080000
    100    113     1   0.10969 276646.080000
    100    114     1   0.10969 276646.080000
    102    115     1   0.10910 283424.160000
    102    116     1   0.10910 283424.160000
    103    117     1   0.10969 276646.080000
    103    118     1   0.10969 276646.080000
    104    119     1   0.10129 337397.760000
    121    146     1   0.10304 312293.760000
    122    133     1   0.10910 283424.160000
    122    134     1   0.10910 283424.160000
    123    135     1   0.10910 283424.160000
    123    136     1   0.10910 283424.160000
    124    137     1   0.10969 276646.080000
    124    138     1   0.10969 276646.080000
    126    139     1   0.10969 276646.080000
    126    140     1   0.10969 276646.080000
    128    141     1   0.10910 283424.160000
    128    142     1   0.10910 283424.160000
    129    143     1   0.10969 276646.080000
    129    144     1   0.10969 276646.080000
    130    145     1   0.10129 337397.760000
    147    172     1   0.10304 312293.760000
    148    159     1   0.10910 283424.160000
    148    160     1   0.10910 283424.160000
    149    161     1   0.10910 283424.160000
    149    162     1   0.10910 283424.160000
    150    163     1   0.10969 276646.080000
    150    164     1   0.10969 276646.080000
    152    165     1   0.10969 276646.080000
    152    166     1   0.10969 276646.080000
    154    167     1   0.10910 283424.160000
    154    168     1   0.10910 283424.160000
    155    169     1   0.10969 276646.080000
    155    170     1   0.10969 276646.080000
    156    171     1   0.10129 337397.760000
    173    198     1   0.10304 312293.760000
    174    185     1   0.10910 283424.160000
    174    186     1   0.10910 283424.160000
    175    187     1   0.10910 283424.160000
    175    188     1   0.10910 283424.160000
    176    189     1   0.10969 276646.080000
    176    190     1   0.10969 276646.080000
    178    191     1   0.10969 276646.080000
    178    192     1   0.10969 276646.080000
    180    193     1   0.10910 283424.160000
    180    194     1   0.10910 283424.160000
    181    195     1   0.10969 276646.080000
    181    196     1   0.10969 276646.080000
    182    197     1   0.10129 337397.760000
    199    224     1   0.10304 312293.760000
    200    211     1   0.10910 283424.160000
    200    212     1   0.10910 283424.160000
    201    213     1   0.10910 283424.160000
    201    214     1   0.10910 283424.160000
    202    215     1   0.10969 276646.080000
    202    216     1   0.10969 276646.080000
    204    217     1   0.10969 276646.080000
    204    218     1   0.10969 276646.080000
    206    219     1   0.10910 283424.160000
    206    220     1   0.10910 283424.160000
    207    221     1   0.10969 276646.080000
    207    222     1   0.10969 276646.080000
    208    223     1   0.10129 337397.760000
    225    250     1   0.10304 312293.760000
    226    237     1   0.10910 283424.160000
    226    238     1   0.10910 283424.160000
    227    239     1   0.10910 283424.160000
    227    240     1   0.10910 283424.160000
    228    241     1   0.10969 276646.080000
    228    242     1   0.10969 276646.080000
    230    243     1   0.10969 276646.080000
    230    244     1   0.10969 276646.080000
    232    245     1   0.10910 283424.160000
    232    246     1   0.10910 283424.160000
    233    247     1   0.10969 276646.080000
    233    248     1   0.10969 276646.080000
    234    249     1   0.10129 337397.760000
    251    276     1   0.10304 312293.760000
    252    263     1   0.10910 283424.160000
    252    264     1   0.10910 283424.160000
    253    265     1   0.10910 283424.160000
    253    266     1   0.10910 283424.160000
    254    267     1   0.10969 276646.080000
    254    268     1   0.10969 276646.080000
    256    269     1   0.10969 276646.080000
    256    270     1   0.10969 276646.080000
    258    271     1   0.10910 283424.160000
    258    272     1   0.10910 283424.160000
    259    273     1   0.10969 276646.080000
    259    274     1   0.10969 276646.080000
    260    275     1   0.10129 337397.760000
    277    302     1   0.10304 312293.760000
    278    289     1   0.10910 283424.160000
    278    290     1   0.10910 283424.160000
    279    291     1   0.10910 283424.160000
    279    292     1   0.10910 283424.160000
    280    293     1   0.10969 276646.080000
    280    294     1   0.10969 276646.080000
    282    295     1   0.10969 276646.080000
    282    296     1   0.10969 276646.080000
    284    297     1   0.10910 283424.160000
    284    298     1   0.10910 283424.160000
    285    299     1   0.10969 276646.080000
    285    300     1   0.10969 276646.080000
    286    301     1   0.10129 337397.760000
    303    328     1   0.10304 312293.760000
    304    315     1   0.10910 283424.160000
    304    316     1   0.10910 283424.160000
    305    317     1   0.10910 283424.160000
    305    318     1   0.10910 283424.160000
    306    319     1   0.10969 276646.080000
    306    320     1   0.10969 276646.080000
    308    321     1   0.10969 276646.080000
    308    322     1   0.10969 276646.080000
    310    323     1   0.10910 283424.160000
    310    324     1   0.10910 283424.160000
    311    325     1   0.10969 276646.080000
    311    326     1   0.10969 276646.080000
    312    327     1   0.10129 337397.760000
    329    354     1   0.10304 312293.760000
    330    341     1   0.10910 283424.160000
    330    342     1   0.10910 283424.160000
    331    343     1   0.10910 283424.160000
    331    344     1   0.10910 283424.160000
    332    345     1   0.10969 276646.080000
    332    346     1   0.10969 276646.080000
    334    347     1   0.10969 276646.080000
    334    348     1   0.10969 276646.080000
    336    349     1   0.10910 283424.160000
    336    350     1   0.10910 283424.160000
    337    351     1   0.10969 276646.080000
    337    352     1   0.10969 276646.080000
    338    353     1   0.10129 337397.760000
    355    356     1   0.10129 337397.760000
    357    358     1   0.10969 276646.080000
    357    360     1   0.10969 276646.080000
    359    361     1   0.10910 283424.160000
    359    362     1   0.10910 283424.160000
    363    384     1   0.10304 312293.760000
    364    374     1   0.10910 283424.160000
    364    375     1   0.10910 283424.160000
    365    366     1   0.10910 283424.160000
    365    368     1   0.10910 283424.160000
    367    369     1   0.10969 276646.080000
    367    370     1   0.10969 276646.080000
    372    382     1   0.09730 310787.520000
    376    377     1   0.10969 276646.080000
    376    378     1   0.10969 276646.080000
    381    383     1   0.09730 310787.520000
    385    386     1   0.10129 337397.760000
    387    388     1   0.10969 276646.080000
    387    390     1   0.10969 276646.080000
    389    391     1   0.10910 283424.160000
    389    392     1   0.10910 283424.160000
    393    414     1   0.10304 312293.760000
    394    404     1   0.10910 283424.160000
    394    405     1   0.10910 283424.160000
    395    396     1   0.10910 283424.160000
    395    398     1   0.10910 283424.160000
    397    399     1   0.10969 276646.080000
    397    400     1   0.10969 276646.080000
    402    412     1   0.09730 310787.520000
    406    407     1   0.10969 276646.080000
    406    408     1   0.10969 276646.080000
    411    413     1   0.09730 310787.520000
    415    416     1   0.10129 337397.760000
    417    418     1   0.10969 276646.080000
    417    420     1   0.10969 276646.080000
    419    421     1   0.10910 283424.160000
    419    422     1   0.10910 283424.160000
    423    444     1   0.10304 312293.760000
    424    434     1   0.10910 283424.160000
    424    435     1   0.10910 283424.160000
    425    426     1   0.10910 283424.160000
    425    428     1   0.10910 283424.160000
    427    429     1   0.10969 276646.080000
    427    430     1   0.10969 276646.080000
    432    442     1   0.09730 310787.520000
    436    437     1   0.10969 276646.080000
    436    438     1   0.10969 276646.080000
    441    443     1   0.09730 310787.520000
    445    446     1   0.10129 337397.760000
    447    448     1   0.10969 276646.080000
    447    450     1   0.10969 276646.080000
    449    451     1   0.10910 283424.160000
    449    452     1   0.10910 283424.160000
    453    474     1   0.10304 312293.760000
    454    464     1   0.10910 283424.160000
    454    465     1   0.10910 283424.160000
    455    456     1   0.10910 283424.160000
    455    458     1   0.10910 283424.160000
    457    459     1   0.10969 276646.080000
    457    460     1   0.10969 276646.080000
    462    472     1   0.09730 310787.520000
    466    467     1   0.10969 276646.080000
    466    468     1   0.10969 276646.080000
    471    473     1   0.09730 310787.520000
    475    476     1   0.10129 337397.760000
    477    478     1   0.10969 276646.080000
    477    480     1   0.10969 276646.080000
    479    481     1   0.10910 283424.160000
    479    482     1   0.10910 283424.160000
    483    504     1   0.10304 312293.760000
    484    494     1   0.10910 283424.160000
    484    495     1   0.10910 283424.160000
    485    486     1   0.10910 283424.160000
    485    488     1   0.10910 283424.160000
    487    489     1   0.10969 276646.080000
    487    490     1   0.10969 276646.080000
    492    502     1   0.09730 310787.520000
    496    497     1   0.10969 276646.080000
    496    498     1   0.10969 276646.080000
    501    503     1   0.09730 310787.520000
    505    506     1   0.10129 337397.760000
    507    508     1   0.10969 276646.080000
    507    510     1   0.10969 276646.080000
    509    511     1   0.10910 283424.160000
    509    512     1   0.10910 283424.160000
    513    534     1   0.10304 312293.760000
    514    524     1   0.10910 283424.160000
    514    525     1   0.10910 283424.160000
    515    516     1   0.10910 283424.160000
    515    518     1   0.10910 283424.160000
    517    519     1   0.10969 276646.080000
    517    520     1   0.10969 276646.080000
    522    532     1   0.09730 310787.520000
    526    527     1   0.10969 276646.080000
    526    528     1   0.10969 276646.080000
    531    533     1   0.09730 310787.520000
    535    536     1   0.10129 337397.760000
    537    538     1   0.10969 276646.080000
    537    540     1   0.10969 276646.080000
    539    541     1   0.10910 283424.160000
    539    542     1   0.10910 283424.160000
    543    564     1   0.10304 312293.760000
    544    554     1   0.10910 283424.160000
    544    555     1   0.10910 283424.160000
    545    546     1   0.10910 283424.160000
    545    548     1   0.10910 283424.160000
    547    549     1   0.10969 276646.080000
    547    550     1   0.10969 276646.080000
    552    562     1   0.09730 310787.520000
    556    557     1   0.10969 276646.080000
    556    558     1   0.10969 276646.080000
    561    563     1   0.09730 310787.520000
    565    566     1   0.10129 337397.760000
    567    568     1   0.10969 276646.080000
    567    570     1   0.10969 276646.080000
    569    571     1   0.10910 283424.160000
    569    572     1   0.10910 283424.160000
    573    594     1   0.10304 312293.760000
    574    584     1   0.10910 283424.160000
    574    585     1   0.10910 283424.160000
    575    576     1   0.10910 283424.160000
    575    578     1   0.10910 283424.160000
    577    579     1   0.10969 276646.080000
    577    580     1   0.10969 276646.080000
    582    592     1   0.09730 310787.520000
    586    587     1   0.10969 276646.080000
    586    588     1   0.10969 276646.080000
    591    593     1   0.09730 310787.520000
    595    596     1   0.10129 337397.760000
    597    598     1   0.10969 276646.080000
    597    600     1   0.10969 276646.080000
    599    601     1   0.10910 283424.160000
    599    602     1   0.10910 283424.160000
    603    624     1   0.10304 312293.760000
    604    614     1   0.10910 283424.160000
    604    615     1   0.10910 283424.160000
    605    606     1   0.10910 283424.160000
    605    608     1   0.10910 283424.160000
    607    609     1   0.10969 276646.080000
    607    610     1   0.10969 276646.080000
    612    622     1   0.09730 310787.520000
    616    617     1   0.10969 276646.080000
    616    618     1   0.10969 276646.080000
    621    623     1   0.09730 310787.520000
    625    626     1   0.10129 337397.760000
    627    628     1   0.10969 276646.080000
    627    630     1   0.10969 276646.080000
    629    631     1   0.10910 283424.160000
    629    632     1   0.10910 283424.160000
    633    654     1   0.10304 312293.760000
    634    644     1   0.10910 283424.160000
    634    645     1   0.10910 283424.160000
    635    636     1   0.10910 283424.160000
    635    638     1   0.10910 283424.160000
    637    639     1   0.10969 276646.080000
    637    640     1   0.10969 276646.080000
    642    652     1   0.09730 310787.520000
    646    647     1   0.10969 276646.080000
    646    648     1   0.10969 276646.080000
    651    653     1   0.09730 310787.520000
    655    656     1   0.10129 337397.760000
    657    658     1   0.10969 276646.080000
    657    660     1   0.10969 276646.080000
    659    661     1   0.10910 283424.160000
    659    662     1   0.10910 283424.160000
    663    684     1   0.10304 312293.760000
    664    674     1   0.10910 283424.160000
    664    675     1   0.10910 283424.160000
    665    666     1   0.10910 283424.160000
    665    668     1   0.10910 283424.160000
    667    669     1   0.10969 276646.080000
    667    670     1   0.10969 276646.080000
    672    682     1   0.09730 310787.520000
    676    677     1   0.10969 276646.080000
    676    678     1   0.10969 276646.080000
    681    683     1   0.09730 310787.520000
    685    686     1   0.10129 337397.760000
    687    688     1   0.10969 276646.080000
    687    690     1   0.10969 276646.080000
    689    691     1   0.10910 283424.160000
    689    692     1   0.10910 283424.160000
    693    714     1   0.10304 312293.760000
    694    704     1   0.10910 283424.160000
    694    705     1   0.10910 283424.160000
    695    696     1   0.10910 283424.160000
    695    698     1   0.10910 283424.160000
    697    699     1   0.10969 276646.080000
    697    700     1   0.10969 276646.080000
    702    712     1   0.09730 310787.520000
    706    707     1   0.10969 276646.080000
    706    708     1   0.10969 276646.080000
    711    713     1   0.09730 310787.520000
    715    716     1   0.10129 337397.760000
    717    718     1   0.10969 276646.080000
    717    720     1   0.10969 276646.080000
    719    721     1   0.10910 283424.160000
    719    722     1   0.10910 283424.160000
    723    744     1   0.10304 312293.760000
    724    734     1   0.10910 283424.160000
    724    735     1   0.10910 283424.160000
    725    726     1   0.10910 283424.160000
    725    728     1   0.10910 283424.160000
    727    729     1   0.10969 276646.080000
    727    730     1   0.10969 276646.080000
    732    742     1   0.09730 310787.520000
    736    737     1   0.10969 276646.080000
    736    738     1   0.10969 276646.080000
    741    743     1   0.09730 310787.520000
    745    746     1   0.10129 337397.760000
    747    748     1   0.10969 276646.080000
    747    750     1   0.10969 276646.080000
    749    751     1   0.10910 283424.160000
    749    752     1   0.10910 283424.160000
    753    774     1   0.10304 312293.760000
    754    764     1   0.10910 283424.160000
    754    765     1   0.10910 283424.160000
    755    756     1   0.10910 283424.160000
    755    758     1   0.10910 283424.160000
    757    759     1   0.10969 276646.080000
    757    760     1   0.10969 276646.080000
    762    772     1   0.09730 310787.520000
    766    767     1   0.10969 276646.080000
    766    768     1   0.10969 276646.080000
    771    773     1   0.09730 310787.520000
    775    776     1   0.10129 337397.760000
    777    778     1   0.10969 276646.080000
    777    780     1   0.10969 276646.080000
    779    781     1   0.10910 283424.160000
    779    782     1   0.10910 283424.160000
    783    804     1   0.10304 312293.760000
    784    794     1   0.10910 283424.160000
    784    795     1   0.10910 283424.160000
    785    786     1   0.10910 283424.160000
    785    788     1   0.10910 283424.160000
    787    789     1   0.10969 276646.080000
    787    790     1   0.10969 276646.080000
    792    802     1   0.09730 310787.520000
    796    797     1   0.10969 276646.080000
    796    798     1   0.10969 276646.080000
    801    803     1   0.09730 310787.520000
    805    806     1   0.10129 337397.760000
    807    808     1   0.10969 276646.080000
    807    810     1   0.10969 276646.080000
    809    811     1   0.10910 283424.160000
    809    812     1   0.10910 283424.160000
    813    834     1   0.10304 312293.760000
    814    824     1   0.10910 283424.160000
    814    825     1   0.10910 283424.160000
    815    816     1   0.10910 283424.160000
    815    818     1   0.10910 283424.160000
    817    819     1   0.10969 276646.080000
    817    820     1   0.10969 276646.080000
    822    832     1   0.09730 310787.520000
    826    827     1   0.10969 276646.080000
    826    828     1   0.10969 276646.080000
    831    833     1   0.09730 310787.520000

[ pairs ]
;    ai     aj funct         c0         c1         c2         c3
      1      4     1
      1     14     1
      1     16     1
      2     13     1
      2     15     1
      2      5     1
      2      6     1
      7      3     1
      8      3     1
      3     11     1
      3      9     1
      4     12     1
      4     10     1
      5      9     1
      5     17     1
      5     78     1
      6     11     1
      6     18     1
      6     52     1
      7     15     1
      7     20     1
      7    104     1
      8     13     1
      8     19     1
      8    130     1
      9     51     1
     10     50     1
     11     77     1
     12     76     1
     13    103     1
     14    102     1
     15    129     1
     16    128     1
     17     77     1
     18     51     1
     19    129     1
     20    103     1
     43     47     1
     43     49     1
     43     52     1
     44     48     1
     44     51     1
     44     53     1
     44    156     1
     45     46     1
     45     51     1
     45     54     1
     45    182     1
     46     50     1
     46    155     1
     47    154     1
     48     50     1
     48    181     1
     49    180     1
     53    155     1
     54    181     1
     69     73     1
     69     75     1
     69     78     1
     70     74     1
     70     77     1
     70     79     1
     70    208     1
     71     72     1
     71     77     1
     71     80     1
     71    234     1
     72     76     1
     72    207     1
     73    206     1
     74     76     1
     74    233     1
     75    232     1
     79    207     1
     80    233     1
     95     99     1
     95    101     1
     95    104     1
     96    100     1
     96    103     1
     96    105     1
     96    260     1
     97     98     1
     97    103     1
     97    106     1
     97    286     1
     98    102     1
     98    259     1
     99    258     1
    100    102     1
    100    285     1
    101    284     1
    105    259     1
    106    285     1
    121    125     1
    121    127     1
    121    130     1
    122    126     1
    122    129     1
    122    131     1
    122    312     1
    123    124     1
    123    129     1
    123    132     1
    123    338     1
    124    128     1
    124    311     1
    125    310     1
    126    128     1
    126    337     1
    127    336     1
    131    311     1
    132    337     1
    147    151     1
    147    153     1
    147    156     1
    148    152     1
    148    155     1
    148    355     1
    148    157     1
    149    150     1
    149    155     1
    149    158     1
    149    385     1
    150    154     1
    150    357     1
    151    359     1
    152    154     1
    152    387     1
    153    389     1
    157    357     1
    158    387     1
    173    177     1
    173    179     1
    173    182     1
    174    178     1
    174    181     1
    174    415     1
    174    183     1
    175    176     1
    175    181     1
    175    184     1
    175    445     1
    176    180     1
    176    417     1
    177    419     1
    178    180     1
    178    447     1
    179    449     1
    183    417     1
    184    447     1
    199    203     1
    199    205     1
    199    208     1
    200    204     1
    200    207     1
    200    475     1
    200    209     1
    201    202     1
    201    207     1
    201    210     1
    201    505     1
    202    206     1
    202    477     1
    203    479     1
    204    206     1
    204    507     1
    205    509     1
    209    477     1
    210    507     1
    225    229     1
    225    231     1
    225    234     1
    226    230     1
    226    233     1
    226    535     1
    226    235     1
    227    228     1
    227    233     1
    227    236     1
    227    565     1
    228    232     1
    228    537     1
    229    539     1
    230    232     1
    230    567     1
    231    569     1
    235    537     1
    236    567     1
    251    255     1
    251    257     1
    251    260     1
    252    256     1
    252    259     1
    252    595     1
    252    261     1
    253    254     1
    253    259     1
    253    262     1
    253    625     1
    254    258     1
    254    597     1
    255    599     1
    256    258     1
    256    627     1
    257    629     1
    261    597     1
    262    627     1
    277    281     1
    277    283     1
    277    286     1
    278    282     1
    278    285     1
    278    655     1
    278    287     1
    279    280     1
    279    285     1
    279    288     1
    279    685     1
    280    284     1
    280    657     1
    281    659     1
    282    284     1
    282    687     1
    283    689     1
    287    657     1
    288    687     1
    303    307     1
    303    309     1
    303    312     1
    304    308     1
    304    311     1
    304    715     1
    304    313     1
    305    306     1
    305    311     1
    305    314     1
    305    745     1
    306    310     1
    306    717     1
    307    719     1
    308    310     1
    308    747     1
    309    749     1
    313    717     1
    314    747     1
    329    333     1
    329    335     1
    329    338     1
    330    334     1
    330    337     1
    330    775     1
    330    339     1
    331    332     1
    331    337     1
    331    805     1
    331    340     1
    332    336     1
    332    777     1
    333    779     1
    334    336     1
    334    807     1
    335    809     1
    339    777     1
    340    807     1
    355    363     1
    357    364     1
    357    365     1
    359    376     1
    359    367     1
    363    379     1
    363    371     1
    364    367     1
    364    380     1
    364    381     1
    365    376     1
    365    372     1
    365    373     1
    385    393     1
    387    394     1
    387    395     1
    389    406     1
    389    397     1
    393    409     1
    393    401     1
    394    410     1
    394    411     1
    394    397     1
    395    402     1
    395    403     1
    395    406     1
    415    423     1
    417    424     1
    417    425     1
    419    436     1
    419    427     1
    423    439     1
    423    431     1
    424    427     1
    424    440     1
    424    441     1
    425    436     1
    425    432     1
    425    433     1
    445    453     1
    447    454     1
    447    455     1
    449    466     1
    449    457     1
    453    469     1
    453    461     1
    454    470     1
    454    471     1
    454    457     1
    455    462     1
    455    463     1
    455    466     1
    475    483     1
    477    484     1
    477    485     1
    479    496     1
    479    487     1
    483    499     1
    483    491     1
    484    487     1
    484    500     1
    484    501     1
    485    496     1
    485    492     1
    485    493     1
    505    513     1
    507    514     1
    507    515     1
    509    526     1
    509    517     1
    513    529     1
    513    521     1
    514    530     1
    514    531     1
    514    517     1
    515    522     1
    515    523     1
    515    526     1
    535    543     1
    537    544     1
    537    545     1
    539    556     1
    539    547     1
    543    559     1
    543    551     1
    544    547     1
    544    560     1
    544    561     1
    545    556     1
    545    552     1
    545    553     1
    565    573     1
    567    574     1
    567    575     1
    569    586     1
    569    577     1
    573    589     1
    573    581     1
    574    590     1
    574    591     1
    574    577     1
    575    582     1
    575    583     1
    575    586     1
    595    603     1
    597    604     1
    597    605     1
    599    616     1
    599    607     1
    603    619     1
    603    611     1
    604    607     1
    604    620     1
    604    621     1
    605    616     1
    605    612     1
    605    613     1
    625    633     1
    627    634     1
    627    635     1
    629    646     1
    629    637     1
    633    649     1
    633    641     1
    634    650     1
    634    651     1
    634    637     1
    635    642     1
    635    643     1
    635    646     1
    655    663     1
    657    664     1
    657    665     1
    659    676     1
    659    667     1
    663    679     1
    663    671     1
    664    667     1
    664    680     1
    664    681     1
    665    676     1
    665    672     1
    665    673     1
    685    693     1
    687    694     1
    687    695     1
    689    706     1
    689    697     1
    693    709     1
    693    701     1
    694    710     1
    694    711     1
    694    697     1
    695    702     1
    695    703     1
    695    706     1
    715    723     1
    717    724     1
    717    725     1
    719    736     1
    719    727     1
    723    739     1
    723    731     1
    724    727     1
    724    740     1
    724    741     1
    725    736     1
    725    732     1
    725    733     1
    745    753     1
    747    754     1
    747    755     1
    749    766     1
    749    757     1
    753    769     1
    753    761     1
    754    770     1
    754    771     1
    754    757     1
    755    762     1
    755    763     1
    755    766     1
    775    783     1
    777    784     1
    777    785     1
    779    796     1
    779    787     1
    783    799     1
    783    791     1
    784    787     1
    784    800     1
    784    801     1
    785    796     1
    785    792     1
    785    793     1
    805    813     1
    807    814     1
    807    815     1
    809    826     1
    809    817     1
    813    829     1
    813    821     1
    814    830     1
    814    831     1
    814    817     1
    815    822     1
    815    823     1
    815    826     1
      1     23     1
      1     24     1
      1     37     1
      1     38     1
      1     39     1
      1     40     1
      2     29     1
      2     30     1
      2     31     1
      2     32     1
      2     42     1
     41      3     1
      3     25     1
      3     26     1
      3     27     1
      3     28     1
      4     21     1
      4     22     1
      4     35     1
      4     36     1
      4     33     1
      4     34     1
      5     23     1
      5     24     1
      5     27     1
      5     28     1
      6     23     1
      6     24     1
      6     25     1
      6     26     1
      7     21     1
      7     22     1
      7     31     1
      7     32     1
      8     21     1
      8     22     1
      8     29     1
      8     30     1
      9     42     1
      9     67     1
     10     27     1
     10     28     1
     10     65     1
     10     66     1
     11     42     1
     11     93     1
     12     25     1
     12     26     1
     12     91     1
     12     92     1
     41     13     1
     13    119     1
     14     29     1
     14     30     1
     14    117     1
     14    118     1
     41     15     1
     15    145     1
     16     31     1
     16     32     1
     16    143     1
     16    144     1
     17     35     1
     17     36     1
     17     93     1
     18     33     1
     18     34     1
     18     67     1
     19     39     1
     19     40     1
     19    145     1
     20     37     1
     20     38     1
     20    119     1
     41     21     1
     21     23     1
     21     24     1
     41     22     1
     22     23     1
     22     24     1
     23     42     1
     24     42     1
     25     42     1
     25     35     1
     25     36     1
     26     42     1
     26     35     1
     26     36     1
     27     42     1
     27     33     1
     27     34     1
     28     42     1
     28     33     1
     28     34     1
     41     29     1
     29     37     1
     29     38     1
     41     30     1
     30     37     1
     30     38     1
     41     31     1
     31     39     1
     31     40     1
     41     32     1
     32     39     1
     32     40     1
     33     52     1
     34     52     1
     35     78     1
     36     78     1
     37    104     1
     38    104     1
     39    130     1
     40    130     1
     43     59     1
     43     60     1
     43     61     1
     43     62     1
     43     65     1
     43     66     1
     44     57     1
     44     58     1
     44     63     1
     44     64     1
     45     55     1
     45     56     1
     45     63     1
     45     64     1
     46     68     1
     46    171     1
     47     55     1
     47     56     1
     47    169     1
     47    170     1
     48     68     1
     48    197     1
     49     57     1
     49     58     1
     49    195     1
     49    196     1
     50     55     1
     50     56     1
     50     57     1
     50     58     1
     50     67     1
     51     68     1
     52     63     1
     52     64     1
     53     59     1
     53     60     1
     53    171     1
     54     61     1
     54     62     1
     54    197     1
     55     68     1
     55     59     1
     55     60     1
     56     68     1
     56     59     1
     56     60     1
     57     68     1
     57     61     1
     57     62     1
     58     68     1
     58     61     1
     58     62     1
     59    156     1
     60    156     1
     61    182     1
     62    182     1
     63     68     1
     63     65     1
     63     66     1
     64     68     1
     64     65     1
     64     66     1
     65     67     1
     66     67     1
     69     85     1
     69     86     1
     69     87     1
     69     88     1
     69     91     1
     69     92     1
     70     83     1
     70     84     1
     70     89     1
     70     90     1
     71     81     1
     71     82     1
     71     89     1
     71     90     1
     72     94     1
     72    223     1
     73     81     1
     73     82     1
     73    221     1
     73    222     1
     74     94     1
     74    249     1
     75     83     1
     75     84     1
     75    247     1
     75    248     1
     76     81     1
     76     82     1
     76     83     1
     76     84     1
     76     93     1
     77     94     1
     78     89     1
     78     90     1
     79     85     1
     79     86     1
     79    223     1
     80     87     1
     80     88     1
     80    249     1
     81     94     1
     81     85     1
     81     86     1
     82     94     1
     82     85     1
     82     86     1
     83     94     1
     83     87     1
     83     88     1
     84     94     1
     84     87     1
     84     88     1
     85    208     1
     86    208     1
     87    234     1
     88    234     1
     89     94     1
     89     91     1
     89     92     1
     90     94     1
     90     91     1
     90     92     1
     91     93     1
     92     93     1
     95    111     1
     95    112     1
     95    113     1
     95    114     1
     95    117     1
     95    118     1
     96    109     1
     96    110     1
     96    115     1
     96    116     1
     97    107     1
     97    108     1
     97    115     1
     97    116     1
     98    120     1
     98    275     1
     99    107     1
     99    108     1
     99    273     1
     99    274     1
    100    120     1
    100    301     1
    101    109     1
    101    110     1
    101    299     1
    101    300     1
    102    107     1
    102    108     1
    102    109     1
    102    110     1
    102    119     1
    103    120     1
    104    115     1
    104    116     1
    105    111     1
    105    112     1
    105    275     1
    106    113     1
    106    114     1
    106    301     1
    107    120     1
    107    111     1
    107    112     1
    108    120     1
    108    111     1
    108    112     1
    109    120     1
    109    113     1
    109    114     1
    110    120     1
    110    113     1
    110    114     1
    111    260     1
    112    260     1
    113    286     1
    114    286     1
    115    120     1
    115    117     1
    115    118     1
    116    120     1
    116    117     1
    116    118     1
    117    119     1
    118    119     1
    121    137     1
    121    138     1
    121    139     1
    121    140     1
    121    143     1
    121    144     1
    122    135     1
    122    136     1
    122    141     1
    122    142     1
    123    133     1
    123    134     1
    123    141     1
    123    142     1
    124    146     1
    124    327     1
    125    133     1
    125    134     1
    125    325     1
    125    326     1
    126    146     1
    126    353     1
    127    135     1
    127    136     1
    127    351     1
    127    352     1
    128    133     1
    128    134     1
    128    135     1
    128    136     1
    128    145     1
    129    146     1
    130    141     1
    130    142     1
    131    137     1
    131    138     1
    131    327     1
    132    139     1
    132    140     1
    132    353     1
    133    146     1
    133    137     1
    133    138     1
    134    146     1
    134    137     1
    134    138     1
    135    146     1
    135    139     1
    135    140     1
    136    146     1
    136    139     1
    136    140     1
    137    312     1
    138    312     1
    139    338     1
    140    338     1
    141    146     1
    141    143     1
    141    144     1
    142    146     1
    142    143     1
    142    144     1
    143    145     1
    144    145     1
    147    163     1
    147    164     1
    147    165     1
    147    166     1
    147    169     1
    147    170     1
    148    161     1
    148    162     1
    148    167     1
    148    168     1
    149    159     1
    149    160     1
    149    167     1
    149    168     1
    150    172     1
    150    356     1
    151    159     1
    151    160     1
    151    358     1
    151    360     1
    152    172     1
    152    386     1
    153    161     1
    153    162     1
    153    388     1
    153    390     1
    154    159     1
    154    160     1
    154    161     1
    154    162     1
    154    171     1
    155    172     1
    156    167     1
    156    168     1
    157    163     1
    157    164     1
    157    356     1
    158    165     1
    158    166     1
    158    386     1
    159    172     1
    159    163     1
    159    164     1
    160    172     1
    160    163     1
    160    164     1
    161    172     1
    161    165     1
    161    166     1
    162    172     1
    162    165     1
    162    166     1
    163    355     1
    164    355     1
    165    385     1
    166    385     1
    167    172     1
    167    169     1
    167    170     1
    168    172     1
    168    169     1
    168    170     1
    169    171     1
    170    171     1
    173    189     1
    173    190     1
    173    191     1
    173    192     1
    173    195     1
    173    196     1
    174    187     1
    174    188     1
    174    193     1
    174    194     1
    175    185     1
    175    186     1
    175    193     1
    175    194     1
    176    198     1
    176    416     1
    177    185     1
    177    186     1
    177    418     1
    177    420     1
    178    198     1
    178    446     1
    179    187     1
    179    188     1
    179    448     1
    179    450     1
    180    185     1
    180    186     1
    180    187     1
    180    188     1
    180    197     1
    181    198     1
    182    193     1
    182    194     1
    183    189     1
    183    190     1
    183    416     1
    184    191     1
    184    192     1
    184    446     1
    185    198     1
    185    189     1
    185    190     1
    186    198     1
    186    189     1
    186    190     1
    187    198     1
    187    191     1
    187    192     1
    188    198     1
    188    191     1
    188    192     1
    189    415     1
    190    415     1
    191    445     1
    192    445     1
    193    198     1
    193    195     1
    193    196     1
    194    198     1
    194    195     1
    194    196     1
    195    197     1
    196    197     1
    199    215     1
    199    216     1
    199    217     1
    199    218     1
    199    221     1
    199    222     1
    200    213     1
    200    214     1
    200    219     1
    200    220     1
    201    211     1
    201    212     1
    201    219     1
    201    220     1
    202    224     1
    202    476     1
    203    211     1
    203    212     1
    203    478     1
    203    480     1
    204    224     1
    204    506     1
    205    213     1
    205    214     1
    205    508     1
    205    510     1
    206    211     1
    206    212     1
    206    213     1
    206    214     1
    206    223     1
    207    224     1
    208    219     1
    208    220     1
    209    215     1
    209    216     1
    209    476     1
    210    217     1
    210    218     1
    210    506     1
    211    224     1
    211    215     1
    211    216     1
    212    224     1
    212    215     1
    212    216     1
    213    224     1
    213    217     1
    213    218     1
    214    224     1
    214    217     1
    214    218     1
    215    475     1
    216    475     1
    217    505     1
    218    505     1
    219    224     1
    219    221     1
    219    222     1
    220    224     1
    220    221     1
    220    222     1
    221    223     1
    222    223     1
    225    241     1
    225    242     1
    225    243     1
    225    244     1
    225    247     1
    225    248     1
    226    239     1
    226    240     1
    226    245     1
    226    246     1
    227    237     1
    227    238     1
    227    245     1
    227    246     1
    228    250     1
    228    536     1
    229    237     1
    229    238     1
    229    538     1
    229    540     1
    230    250     1
    230    566     1
    231    239     1
    231    240     1
    231    568     1
    231    570     1
    232    237     1
    232    238     1
    232    239     1
    232    240     1
    232    249     1
    233    250     1
    234    245     1
    234    246     1
    235    241     1
    235    242     1
    235    536     1
    236    243     1
    236    244     1
    236    566     1
    237    250     1
    237    241     1
    237    242     1
    238    250     1
    238    241     1
    238    242     1
    239    250     1
    239    243     1
    239    244     1
    240    250     1
    240    243     1
    240    244     1
    241    535     1
    242    535     1
    243    565     1
    244    565     1
    245    250     1
    245    247     1
    245    248     1
    246    250     1
    246    247     1
    246    248     1
    247    249     1
    248    249     1
    251    267     1
    251    268     1
    251    269     1
    251    270     1
    251    273     1
    251    274     1
    252    265     1
    252    266     1
    252    271     1
    252    272     1
    253    263     1
    253    264     1
    253    271     1
    253    272     1
    254    276     1
    254    596     1
    255    263     1
    255    264     1
    255    598     1
    255    600     1
    256    276     1
    256    626     1
    257    265     1
    257    266     1
    257    628     1
    257    630     1
    258    263     1
    258    264     1
    258    265     1
    258    266     1
    258    275     1
    259    276     1
    260    271     1
    260    272     1
    261    267     1
    261    268     1
    261    596     1
    262    269     1
    262    270     1
    262    626     1
    263    276     1
    263    267     1
    263    268     1
    264    276     1
    264    267     1
    264    268     1
    265    276     1
    265    269     1
    265    270     1
    266    276     1
    266    269     1
    266    270     1
    267    595     1
    268    595     1
    269    625     1
    270    625     1
    271    276     1
    271    273     1
    271    274     1
    272    276     1
    272    273     1
    272    274     1
    273    275     1
    274    275     1
    277    293     1
    277    294     1
    277    295     1
    277    296     1
    277    299     1
    277    300     1
    278    291     1
    278    292     1
    278    297     1
    278    298     1
    279    289     1
    279    290     1
    279    297     1
    279    298     1
    280    302     1
    280    656     1
    281    289     1
    281    290     1
    281    658     1
    281    660     1
    282    302     1
    282    686     1
    283    291     1
    283    292     1
    283    688     1
    283    690     1
    284    289     1
    284    290     1
    284    291     1
    284    292     1
    284    301     1
    285    302     1
    286    297     1
    286    298     1
    287    293     1
    287    294     1
    287    656     1
    288    295     1
    288    296     1
    288    686     1
    289    302     1
    289    293     1
    289    294     1
    290    302     1
    290    293     1
    290    294     1
    291    302     1
    291    295     1
    291    296     1
    292    302     1
    292    295     1
    292    296     1
    293    655     1
    294    655     1
    295    685     1
    296    685     1
    297    302     1
    297    299     1
    297    300     1
    298    302     1
    298    299     1
    298    300     1
    299    301     1
    300    301     1
    303    319     1
    303    320     1
    303    321     1
    303    322     1
    303    325     1
    303    326     1
    304    317     1
    304    318     1
    304    323     1
    304    324     1
    305    315     1
    305    316     1
    305    323     1
    305    324     1
    306    328     1
    306    716     1
    307    315     1
    307    316     1
    307    718     1
    307    720     1
    308    328     1
    308    746     1
    309    317     1
    309    318     1
    309    748     1
    309    750     1
    310    315     1
    310    316     1
    310    317     1
    310    318     1
    310    327     1
    311    328     1
    312    323     1
    312    324     1
    313    319     1
    313    320     1
    313    716     1
    314    321     1
    314    322     1
    314    746     1
    315    328     1
    315    319     1
    315    320     1
    316    328     1
    316    319     1
    316    320     1
    317    328     1
    317    321     1
    317    322     1
    318    328     1
    318    321     1
    318    322     1
    319    715     1
    320    715     1
    321    745     1
    322    745     1
    323    328     1
    323    325     1
    323    326     1
    324    328     1
    324    325     1
    324    326     1
    325    327     1
    326    327     1
    329    345     1
    329    346     1
    329    347     1
    329    348     1
    329    351     1
    329    352     1
    330    343     1
    330    344     1
    330    349     1
    330    350     1
    331    341     1
    331    342     1
    331    349     1
    331    350     1
    332    354     1
    332    776     1
    333    341     1
    333    342     1
    333    778     1
    333    780     1
    334    354     1
    334    806     1
    335    343     1
    335    344     1
    335    808     1
    335    810     1
    336    341     1
    336    342     1
    336    343     1
    336    344     1
    336    353     1
    337    354     1
    338    349     1
    338    350     1
    339    345     1
    339    346     1
    339    776     1
    340    347     1
    340    348     1
    340    806     1
    341    354     1
    341    345     1
    341    346     1
    342    354     1
    342    345     1
    342    346     1
    343    354     1
    343    347     1
    343    348     1
    344    354     1
    344    347     1
    344    348     1
    345    775     1
    346    775     1
    347    805     1
    348    805     1
    349    354     1
    349    351     1
    349    352     1
    350    354     1
    350    351     1
    350    352     1
    351    353     1
    352    353     1
    355    361     1
    355    362     1
    356    359     1
    356    358     1
    356    360     1
    357    384     1
    358    363     1
    358    361     1
    358    362     1
    359    374     1
    359    375     1
    359    366     1
    359    368     1
    360    363     1
    360    361     1
    360    362     1
    361    364     1
    361    365     1
    361    384     1
    362    364     1
    362    365     1
    362    384     1
    363    377     1
    363    378     1
    363    369     1
    363    370     1
    364    366     1
    364    368     1
    365    374     1
    365    375     1
    366    384     1
    366    371     1
    366    369     1
    366    370     1
    367    384     1
    367    382     1
    368    384     1
    368    371     1
    368    369     1
    368    370     1
    369    372     1
    369    373     1
    370    372     1
    370    373     1
    373    382     1
    374    384     1
    374    379     1
    374    377     1
    374    378     1
    375    384     1
    375    379     1
    375    377     1
    375    378     1
    376    384     1
    376    383     1
    377    380     1
    377    381     1
    378    380     1
    378    381     1
    380    383     1
    385    391     1
    385    392     1
    386    389     1
    386    388     1
    386    390     1
    387    414     1
    388    393     1
    388    391     1
    388    392     1
    389    404     1
    389    405     1
    389    396     1
    389    398     1
    390    393     1
    390    391     1
    390    392     1
    391    394     1
    391    395     1
    391    414     1
    392    394     1
    392    395     1
    392    414     1
    393    407     1
    393    408     1
    393    399     1
    393    400     1
    394    396     1
    394    398     1
    395    404     1
    395    405     1
    396    401     1
    396    399     1
    396    400     1
    396    414     1
    397    412     1
    397    414     1
    398    401     1
    398    399     1
    398    400     1
    398    414     1
    399    402     1
    399    403     1
    400    402     1
    400    403     1
    403    412     1
    404    409     1
    404    407     1
    404    408     1
    404    414     1
    405    409     1
    405    407     1
    405    408     1
    405    414     1
    406    413     1
    406    414     1
    407    410     1
    407    411     1
    408    410     1
    408    411     1
    410    413     1
    415    421     1
    415    422     1
    416    419     1
    416    418     1
    416    420     1
    417    444     1
    418    423     1
    418    421     1
    418    422     1
    419    434     1
    419    435     1
    419    426     1
    419    428     1
    420    423     1
    420    421     1
    420    422     1
    421    424     1
    421    425     1
    421    444     1
    422    424     1
    422    425     1
    422    444     1
    423    437     1
    423    438     1
    423    429     1
    423    430     1
    424    426     1
    424    428     1
    425    434     1
    425    435     1
    426    444     1
    426    431     1
    426    429     1
    426    430     1
    427    444     1
    427    442     1
    428    444     1
    428    431     1
    428    429     1
    428    430     1
    429    432     1
    429    433     1
    430    432     1
    430    433     1
    433    442     1
    434    444     1
    434    439     1
    434    437     1
    434    438     1
    435    444     1
    435    439     1
    435    437     1
    435    438     1
    436    444     1
    436    443     1
    437    440     1
    437    441     1
    438    440     1
    438    441     1
    440    443     1
    445    451     1
    445    452     1
    446    449     1
    446    448     1
    446    450     1
    447    474     1
    448    453     1
    448    451     1
    448    452     1
    449    464     1
    449    465     1
    449    456     1
    449    458     1
    450    453     1
    450    451     1
    450    452     1
    451    454     1
    451    455     1
    451    474     1
    452    454     1
    452    455     1
    452    474     1
    453    467     1
    453    468     1
    453    459     1
    453    460     1
    454    456     1
    454    458     1
    455    464     1
    455    465     1
    456    461     1
    456    459     1
    456    460     1
    456    474     1
    457    472     1
    457    474     1
    458    461     1
    458    459     1
    458    460     1
    458    474     1
    459    462     1
    459    463     1
    460    462     1
    460    463     1
    463    472     1
    464    469     1
    464    467     1
    464    468     1
    464    474     1
    465    469     1
    465    467     1
    465    468     1
    465    474     1
    466    473     1
    466    474     1
    467    470     1
    467    471     1
    468    470     1
    468    471     1
    470    473     1
    475    481     1
    475    482     1
    476    479     1
    476    478     1
    476    480     1
    477    504     1
    478    483     1
    478    481     1
    478    482     1
    479    494     1
    479    495     1
    479    486     1
    479    488     1
    480    483     1
    480    481     1
    480    482     1
    481    484     1
    481    485     1
    481    504     1
    482    484     1
    482    485     1
    482    504     1
    483    497     1
    483    498     1
    483    489     1
    483    490     1
    484    486     1
    484    488     1
    485    494     1
    485    495     1
    486    504     1
    486    491     1
    486    489     1
    486    490     1
    487    504     1
    487    502     1
    488    504     1
    488    491     1
    488    489     1
    488    490     1
    489    492     1
    489    493     1
    490    492     1
    490    493     1
    493    502     1
    494    504     1
    494    499     1
    494    497     1
    494    498     1
    495    504     1
    495    499     1
    495    497     1
    495    498     1
    496    504     1
    496    503     1
    497    500     1
    497    501     1
    498    500     1
    498    501     1
    500    503     1
    505    511     1
    505    512     1
    506    509     1
    506    508     1
    506    510     1
    507    534     1
    508    513     1
    508    511     1
    508    512     1
    509    524     1
    509    525     1
    509    516     1
    509    518     1
    510    513     1
    510    511     1
    510    512     1
    511    514     1
    511    515     1
    511    534     1
    512    514     1
    512    515     1
    512    534     1
    513    527     1
    513    528     1
    513    519     1
    513    520     1
    514    516     1
    514    518     1
    515    524     1
    515    525     1
    516    521     1
    516    519     1
    516    520     1
    516    534     1
    517    532     1
    517    534     1
    518    521     1
    518    519     1
    518    520     1
    518    534     1
    519    522     1
    519    523     1
    520    522     1
    520    523     1
    523    532     1
    524    529     1
    524    527     1
    524    528     1
    524    534     1
    525    529     1
    525    527     1
    525    528     1
    525    534     1
    526    533     1
    526    534     1
    527    530     1
    527    531     1
    528    530     1
    528    531     1
    530    533     1
    535    541     1
    535    542     1
    536    539     1
    536    538     1
    536    540     1
    537    564     1
    538    543     1
    538    541     1
    538    542     1
    539    554     1
    539    555     1
    539    546     1
    539    548     1
    540    543     1
    540    541     1
    540    542     1
    541    544     1
    541    545     1
    541    564     1
    542    544     1
    542    545     1
    542    564     1
    543    557     1
    543    558     1
    543    549     1
    543    550     1
    544    546     1
    544    548     1
    545    554     1
    545    555     1
    546    564     1
    546    551     1
    546    549     1
    546    550     1
    547    564     1
    547    562     1
    548    564     1
    548    551     1
    548    549     1
    548    550     1
    549    552     1
    549    553     1
    550    552     1
    550    553     1
    553    562     1
    554    564     1
    554    559     1
    554    557     1
    554    558     1
    555    564     1
    555    559     1
    555    557     1
    555    558     1
    556    564     1
    556    563     1
    557    560     1
    557    561     1
    558    560     1
    558    561     1
    560    563     1
    565    571     1
    565    572     1
    566    569     1
    566    568     1
    566    570     1
    567    594     1
    568    573     1
    568    571     1
    568    572     1
    569    584     1
    569    585     1
    569    576     1
    569    578     1
    570    573     1
    570    571     1
    570    572     1
    571    574     1
    571    575     1
    571    594     1
    572    574     1
    572    575     1
    572    594     1
    573    587     1
    573    588     1
    573    579     1
    573    580     1
    574    576     1
    574    578     1
    575    584     1
    575    585     1
    576    581     1
    576    579     1
    576    580     1
    576    594     1
    577    592     1
    577    594     1
    578    581     1
    578    579     1
    578    580     1
    578    594     1
    579    582     1
    579    583     1
    580    582     1
    580    583     1
    583    592     1
    584    589     1
    584    587     1
    584    588     1
    584    594     1
    585    589     1
    585    587     1
    585    588     1
    585    594     1
    586    593     1
    586    594     1
    587    590     1
    587    591     1
    588    590     1
    588    591     1
    590    593     1
    595    601     1
    595    602     1
    596    599     1
    596    598     1
    596    600     1
    597    624     1
    598    603     1
    598    601     1
    598    602     1
    599    614     1
    599    615     1
    599    606     1
    599    608     1
    600    603     1
    600    601     1
    600    602     1
    601    604     1
    601    605     1
    601    624     1
    602    604     1
    602    605     1
    602    624     1
    603    617     1
    603    618     1
    603    609     1
    603    610     1
    604    606     1
    604    608     1
    605    614     1
    605    615     1
    606    624     1
    606    611     1
    606    609     1
    606    610     1
    607    624     1
    607    622     1
    608    624     1
    608    611     1
    608    609     1
    608    610     1
    609    612     1
    609    613     1
    610    612     1
    610    613     1
    613    622     1
    614    624     1
    614    619     1
    614    617     1
    614    618     1
    615    624     1
    615    619     1
    615    617     1
    615    618     1
    616    624     1
    616    623     1
    617    620     1
    617    621     1
    618    620     1
    618    621     1
    620    623     1
    625    631     1
    625    632     1
    626    629     1
    626    628     1
    626    630     1
    627    654     1
    628    633     1
    628    631     1
    628    632     1
    629    644     1
    629    645     1
    629    636     1
    629    638     1
    630    633     1
    630    631     1
    630    632     1
    631    634     1
    631    635     1
    631    654     1
    632    634     1
    632    635     1
    632    654     1
    633    647     1
    633    648     1
    633    639     1
    633    640     1
    634    636     1
    634    638     1
    635    644     1
    635    645     1
    636    641     1
    636    639     1
    636    640     1
    636    654     1
    637    652     1
    637    654     1
    638    641     1
    638    639     1
    638    640     1
    638    654     1
    639    642     1
    639    643     1
    640    642     1
    640    643     1
    643    652     1
    644    649     1
    644    647     1
    644    648     1
    644    654     1
    645    649     1
    645    647     1
    645    648     1
    645    654     1
    646    653     1
    646    654     1
    647    650     1
    647    651     1
    648    650     1
    648    651     1
    650    653     1
    655    661     1
    655    662     1
    656    659     1
    656    658     1
    656    660     1
    657    684     1
    658    663     1
    658    661     1
    658    662     1
    659    674     1
    659    675     1
    659    666     1
    659    668     1
    660    663     1
    660    661     1
    660    662     1
    661    664     1
    661    665     1
    661    684     1
    662    664     1
    662    665     1
    662    684     1
    663    677     1
    663    678     1
    663    669     1
    663    670     1
    664    666     1
    664    668     1
    665    674     1
    665    675     1
    666    684     1
    666    671     1
    666    669     1
    666    670     1
    667    684     1
    667    682     1
    668    684     1
    668    671     1
    668    669     1
    668    670     1
    669    672     1
    669    673     1
    670    672     1
    670    673     1
    673    682     1
    674    684     1
    674    679     1
    674    677     1
    674    678     1
    675    684     1
    675    679     1
    675    677     1
    675    678     1
    676    684     1
    676    683     1
    677    680     1
    677    681     1
    678    680     1
    678    681     1
    680    683     1
    685    691     1
    685    692     1
    686    689     1
    686    688     1
    686    690     1
    687    714     1
    688    693     1
    688    691     1
    688    692     1
    689    704     1
    689    705     1
    689    696     1
    689    698     1
    690    693     1
    690    691     1
    690    692     1
    691    694     1
    691    695     1
    691    714     1
    692    694     1
    692    695     1
    692    714     1
    693    707     1
    693    708     1
    693    699     1
    693    700     1
    694    696     1
    694    698     1
    695    704     1
    695    705     1
    696    701     1
    696    699     1
    696    700     1
    696    714     1
    697    712     1
    697    714     1
    698    701     1
    698    699     1
    698    700     1
    698    714     1
    699    702     1
    699    703     1
    700    702     1
    700    703     1
    703    712     1
    704    709     1
    704    707     1
    704    708     1
    704    714     1
    705    709     1
    705    707     1
    705    708     1
    705    714     1
    706    713     1
    706    714     1
    707    710     1
    707    711     1
    708    710     1
    708    711     1
    710    713     1
    715    721     1
    715    722     1
    716    719     1
    716    718     1
    716    720     1
    717    744     1
    718    723     1
    718    721     1
    718    722     1
    719    734     1
    719    735     1
    719    726     1
    719    728     1
    720    723     1
    720    721     1
    720    722     1
    721    724     1
    721    725     1
    721    744     1
    722    724     1
    722    725     1
    722    744     1
    723    737     1
    723    738     1
    723    729     1
    723    730     1
    724    726     1
    724    728     1
    725    734     1
    725    735     1
    726    744     1
    726    731     1
    726    729     1
    726    730     1
    727    744     1
    727    742     1
    728    744     1
    728    731     1
    728    729     1
    728    730     1
    729    732     1
    729    733     1
    730    732     1
    730    733     1
    733    742     1
    734    744     1
    734    739     1
    734    737     1
    734    738     1
    735    744     1
    735    739     1
    735    737     1
    735    738     1
    736    744     1
    736    743     1
    737    740     1
    737    741     1
    738    740     1
    738    741     1
    740    743     1
    745    751     1
    745    752     1
    746    749     1
    746    748     1
    746    750     1
    747    774     1
    748    753     1
    748    751     1
    748    752     1
    749    764     1
    749    765     1
    749    756     1
    749    758     1
    750    753     1
    750    751     1
    750    752     1
    751    754     1
    751    755     1
    751    774     1
    752    754     1
    752    755     1
    752    774     1
    753    767     1
    753    768     1
    753    759     1
    753    760     1
    754    756     1
    754    758     1
    755    764     1
    755    765     1
    756    761     1
    756    759     1
    756    760     1
    756    774     1
    757    772     1
    757    774     1
    758    761     1
    758    759     1
    758    760     1
    758    774     1
    759    762     1
    759    763     1
    760    762     1
    760    763     1
    763    772     1
    764    769     1
    764    767     1
    764    768     1
    764    774     1
    765    769     1
    765    767     1
    765    768     1
    765    774     1
    766    773     1
    766    774     1
    767    770     1
    767    771     1
    768    770     1
    768    771     1
    770    773     1
    775    781     1
    775    782     1
    776    779     1
    776    778     1
    776    780     1
    777    804     1
    778    783     1
    778    781     1
    778    782     1
    779    794     1
    779    795     1
    779    786     1
    779    788     1
    780    783     1
    780    781     1
    780    782     1
    781    784     1
    781    785     1
    781    804     1
    782    784     1
    782    785     1
    782    804     1
    783    797     1
    783    798     1
    783    789     1
    783    790     1
    784    786     1
    784    788     1
    785    794     1
    785    795     1
    786    804     1
    786    791     1
    786    789     1
    786    790     1
    787    804     1
    787    802     1
    788    804     1
    788    791     1
    788    789     1
    788    790     1
    789    792     1
    789    793     1
    790    792     1
    790    793     1
    793    802     1
    794    804     1
    794    799     1
    794    797     1
    794    798     1
    795    804     1
    795    799     1
    795    797     1
    795    798     1
    796    804     1
    796    803     1
    797    800     1
    797    801     1
    798    800     1
    798    801     1
    800    803     1
    805    811     1
    805    812     1
    806    809     1
    806    808     1
    806    810     1
    807    834     1
    808    813     1
    808    811     1
    808    812     1
    809    824     1
    809    825     1
    809    816     1
    809    818     1
    810    813     1
    810    811     1
    810    812     1
    811    814     1
    811    815     1
    811    834     1
    812    814     1
    812    815     1
    812    834     1
    813    827     1
    813    828     1
    813    819     1
    813    820     1
    814    816     1
    814    818     1
    815    824     1
    815    825     1
    816    821     1
    816    819     1
    816    820     1
    816    834     1
    817    832     1
    817    834     1
    818    821     1
    818    819     1
    818    820     1
    818    834     1
    819    822     1
    819    823     1
    820    822     1
    820    823     1
    823    832     1
    824    829     1
    824    827     1
    824    828     1
    824    834     1
    825    829     1
    825    827     1
    825    828     1
    825    834     1
    826    833     1
    826    834     1
    827    830     1
    827    831     1
    828    830     1
    828    831     1
    830    833     1

[ angles ]
;    ai     aj     ak funct         c0         c1         c2         c3
      1      2      3     1   114.2100488 537.225600
      1      7     13     1   114.2100488 537.225600
      1      8     15     1   114.2100488 537.225600
      2      1      7     1   109.6600471 523.836800
      2      1      8     1   109.6600471 523.836800
      2      3      4     1   114.2100488 537.225600
      3      4      5     1   109.6600471 523.836800
      3      4      6     1   109.6600471 523.836800
      4      5     11     1   114.2100488 537.225600
      4      6      9     1   114.2100488 537.225600
      5      4      6     1   109.6600471 523.836800
      5     11     12     1   111.0400475 529.694400
      6      9     10     1   111.0400475 529.694400
      7      1      8     1   109.6600471 523.836800
      7     13     14     1   111.0400475 529.694400
      8     15     16     1   111.0400475 529.694400
      9     10     18     1   123.2000528 564.003200
      9     10     52     1   115.1800491 558.982400
     10     52     51     1   120.6900519 530.531200
     11     12     17     1   123.2000528 564.003200
     11     12     78     1   115.1800491 558.982400
     12     78     77     1   120.6900519 530.531200
     13     14     20     1   123.2000528 564.003200
     13     14    104     1   115.1800491 558.982400
     14    104    103     1   120.6900519 530.531200
     15     16     19     1   123.2000528 564.003200
     15     16    130     1   115.1800491 558.982400
     16    130    129     1   120.6900519 530.531200
     17     12     78     1   123.0500530 620.905600
     18     10     52     1   123.0500530 620.905600
     19     16    130     1   123.0500530 620.905600
     20     14    104     1   123.0500530 620.905600
     43     44     46     1   114.2100488 537.225600
     43     45     48     1   114.2100488 537.225600
     43     50     51     1   114.2100488 537.225600
     44     43     45     1   109.6600471 523.836800
     44     43     50     1   109.6600471 523.836800
     44     46     47     1   111.0400475 529.694400
     45     43     50     1   109.6600471 523.836800
     45     48     49     1   111.0400475 529.694400
     46     47     53     1   123.2000528 564.003200
     46     47    156     1   115.1800491 558.982400
     47    156    155     1   120.6900519 530.531200
     48     49     54     1   123.2000528 564.003200
     48     49    182     1   115.1800491 558.982400
     49    182    181     1   120.6900519 530.531200
     50     51     52     1   111.6100477 551.451200
     53     47    156     1   123.0500530 620.905600
     54     49    182     1   123.0500530 620.905600
     69     70     72     1   114.2100488 537.225600
     69     71     74     1   114.2100488 537.225600
     69     76     77     1   114.2100488 537.225600
     70     69     71     1   109.6600471 523.836800
     70     69     76     1   109.6600471 523.836800
     70     72     73     1   111.0400475 529.694400
     71     69     76     1   109.6600471 523.836800
     71     74     75     1   111.0400475 529.694400
     72     73     79     1   123.2000528 564.003200
     72     73    208     1   115.1800491 558.982400
     73    208    207     1   120.6900519 530.531200
     74     75     80     1   123.2000528 564.003200
     74     75    234     1   115.1800491 558.982400
     75    234    233     1   120.6900519 530.531200
     76     77     78     1   111.6100477 551.451200
     79     73    208     1   123.0500530 620.905600
     80     75    234     1   123.0500530 620.905600
     95     96     98     1   114.2100488 537.225600
     95     97    100     1   114.2100488 537.225600
     95    102    103     1   114.2100488 537.225600
     96     95     97     1   109.6600471 523.836800
     96     95    102     1   109.6600471 523.836800
     96     98     99     1   111.0400475 529.694400
     97     95    102     1   109.6600471 523.836800
     97    100    101     1   111.0400475 529.694400
     98     99    105     1   123.2000528 564.003200
     98     99    260     1   115.1800491 558.982400
     99    260    259     1   120.6900519 530.531200
    100    101    106     1   123.2000528 564.003200
    100    101    286     1   115.1800491 558.982400
    101    286    285     1   120.6900519 530.531200
    102    103    104     1   111.6100477 551.451200
    105     99    260     1   123.0500530 620.905600
    106    101    286     1   123.0500530 620.905600
    121    122    124     1   114.2100488 537.225600
    121    123    126     1   114.2100488 537.225600
    121    128    129     1   114.2100488 537.225600
    122    121    123     1   109.6600471 523.836800
    122    121    128     1   109.6600471 523.836800
    122    124    125     1   111.0400475 529.694400
    123    121    128     1   109.6600471 523.836800
    123    126    127     1   111.0400475 529.694400
    124    125    131     1   123.2000528 564.003200
    124    125    312     1   115.1800491 558.982400
    125    312    311     1   120.6900519 530.531200
    126    127    132     1   123.2000528 564.003200
    126    127    338     1   115.1800491 558.982400
    127    338    337     1   120.6900519 530.531200
    128    129    130     1   111.6100477 551.451200
    131    125    312     1   123.0500530 620.905600
    132    127    338     1   123.0500530 620.905600
    147    148    150     1   114.2100488 537.225600
    147    149    152     1   114.2100488 537.225600
    147    154    155     1   114.2100488 537.225600
    148    147    149     1   109.6600471 523.836800
    148    147    154     1   109.6600471 523.836800
    148    150    151     1   111.0400475 529.694400
    149    147    154     1   109.6600471 523.836800
    149    152    153     1   111.0400475 529.694400
    150    151    355     1   115.1800491 558.982400
    150    151    157     1   123.2000528 564.003200
    151    355    357     1   120.6900519 530.531200
    152    153    158     1   123.2000528 564.003200
    152    153    385     1   115.1800491 558.982400
    153    385    387     1   120.6900519 530.531200
    154    155    156     1   111.6100477 551.451200
    157    151    355     1   123.0500530 620.905600
    158    153    385     1   123.0500530 620.905600
    173    174    176     1   114.2100488 537.225600
    173    175    178     1   114.2100488 537.225600
    173    180    181     1   114.2100488 537.225600
    174    173    175     1   109.6600471 523.836800
    174    173    180     1   109.6600471 523.836800
    174    176    177     1   111.0400475 529.694400
    175    173    180     1   109.6600471 523.836800
    175    178    179     1   111.0400475 529.694400
    176    177    415     1   115.1800491 558.982400
    176    177    183     1   123.2000528 564.003200
    177    415    417     1   120.6900519 530.531200
    178    179    184     1   123.2000528 564.003200
    178    179    445     1   115.1800491 558.982400
    179    445    447     1   120.6900519 530.531200
    180    181    182     1   111.6100477 551.451200
    183    177    415     1   123.0500530 620.905600
    184    179    445     1   123.0500530 620.905600
    199    200    202     1   114.2100488 537.225600
    199    201    204     1   114.2100488 537.225600
    199    206    207     1   114.2100488 537.225600
    200    199    201     1   109.6600471 523.836800
    200    199    206     1   109.6600471 523.836800
    200    202    203     1   111.0400475 529.694400
    201    199    206     1   109.6600471 523.836800
    201    204    205     1   111.0400475 529.694400
    202    203    475     1   115.1800491 558.982400
    202    203    209     1   123.2000528 564.003200
    203    475    477     1   120.6900519 530.531200
    204    205    210     1   123.2000528 564.003200
    204    205    505     1   115.1800491 558.982400
    205    505    507     1   120.6900519 530.531200
    206    207    208     1   111.6100477 551.451200
    209    203    475     1   123.0500530 620.905600
    210    205    505     1   123.0500530 620.905600
    225    226    228     1   114.2100488 537.225600
    225    227    230     1   114.2100488 537.225600
    225    232    233     1   114.2100488 537.225600
    226    225    227     1   109.6600471 523.836800
    226    225    232     1   109.6600471 523.836800
    226    228    229     1   111.0400475 529.694400
    227    225    232     1   109.6600471 523.836800
    227    230    231     1   111.0400475 529.694400
    228    229    535     1   115.1800491 558.982400
    228    229    235     1   123.2000528 564.003200
    229    535    537     1   120.6900519 530.531200
    230    231    236     1   123.2000528 564.003200
    230    231    565     1   115.1800491 558.982400
    231    565    567     1   120.6900519 530.531200
    232    233    234     1   111.6100477 551.451200
    235    229    535     1   123.0500530 620.905600
    236    231    565     1   123.0500530 620.905600
    251    252    254     1   114.2100488 537.225600
    251    253    256     1   114.2100488 537.225600
    251    258    259     1   114.2100488 537.225600
    252    251    253     1   109.6600471 523.836800
    252    251    258     1   109.6600471 523.836800
    252    254    255     1   111.0400475 529.694400
    253    251    258     1   109.6600471 523.836800
    253    256    257     1   111.0400475 529.694400
    254    255    595     1   115.1800491 558.982400
    254    255    261     1   123.2000528 564.003200
    255    595    597     1   120.6900519 530.531200
    256    257    262     1   123.2000528 564.003200
    256    257    625     1   115.1800491 558.982400
    257    625    627     1   120.6900519 530.531200
    258    259    260     1   111.6100477 551.451200
    261    255    595     1   123.0500530 620.905600
    262    257    625     1   123.0500530 620.905600
    277    278    280     1   114.2100488 537.225600
    277    279    282     1   114.2100488 537.225600
    277    284    285     1   114.2100488 537.225600
    278    277    279     1   109.6600471 523.836800
    278    277    284     1   109.6600471 523.836800
    278    280    281     1   111.0400475 529.694400
    279    277    284     1   109.6600471 523.836800
    279    282    283     1   111.0400475 529.694400
    280    281    655     1   115.1800491 558.982400
    280    281    287     1   123.2000528 564.003200
    281    655    657     1   120.6900519 530.531200
    282    283    288     1   123.2000528 564.003200
    282    283    685     1   115.1800491 558.982400
    283    685    687     1   120.6900519 530.531200
    284    285    286     1   111.6100477 551.451200
    287    281    655     1   123.0500530 620.905600
    288    283    685     1   123.0500530 620.905600
    303    304    306     1   114.2100488 537.225600
    303    305    308     1   114.2100488 537.225600
    303    310    311     1   114.2100488 537.225600
    304    303    305     1   109.6600471 523.836800
    304    303    310     1   109.6600471 523.836800
    304    306    307     1   111.0400475 529.694400
    305    303    310     1   109.6600471 523.836800
    305    308    309     1   111.0400475 529.694400
    306    307    715     1   115.1800491 558.982400
    306    307    313     1   123.2000528 564.003200
    307    715    717     1   120.6900519 530.531200
    308    309    314     1   123.2000528 564.003200
    308    309    745     1   115.1800491 558.982400
    309    745    747     1   120.6900519 530.531200
    310    311    312     1   111.6100477 551.451200
    313    307    715     1   123.0500530 620.905600
    314    309    745     1   123.0500530 620.905600
    329    330    332     1   114.2100488 537.225600
    329    331    334     1   114.2100488 537.225600
    329    336    337     1   114.2100488 537.225600
    330    329    331     1   109.6600471 523.836800
    330    329    336     1   109.6600471 523.836800
    330    332    333     1   111.0400475 529.694400
    331    329    336     1   109.6600471 523.836800
    331    334    335     1   111.0400475 529.694400
    332    333    775     1   115.1800491 558.982400
    332    333    339     1   123.2000528 564.003200
    333    775    777     1   120.6900519 530.531200
    334    335    805     1   115.1800491 558.982400
    334    335    340     1   123.2000528 564.003200
    335    805    807     1   120.6900519 530.531200
    336    337    338     1   111.6100477 551.451200
    339    333    775     1   123.0500530 620.905600
    340    335    805     1   123.0500530 620.905600
    355    357    359     1   111.6100477 551.451200
    357    359    363     1   114.2100488 537.225600
    359    363    364     1   109.6600471 523.836800
    359    363    365     1   109.6600471 523.836800
    363    364    376     1   114.2100488 537.225600
    363    365    367     1   114.2100488 537.225600
    364    363    365     1   109.6600471 523.836800
    364    376    379     1   111.0400475 529.694400
    365    367    371     1   111.0400475 529.694400
    367    371    372     1   112.7300484 572.371200
    367    371    373     1   123.2000528 564.003200
    372    371    373     1   122.1000523 635.131200
    376    379    380     1   123.2000528 564.003200
    376    379    381     1   112.7300484 572.371200
    380    379    381     1   122.1000523 635.131200
    385    387    389     1   111.6100477 551.451200
    387    389    393     1   114.2100488 537.225600
    389    393    394     1   109.6600471 523.836800
    389    393    395     1   109.6600471 523.836800
    393    394    406     1   114.2100488 537.225600
    393    395    397     1   114.2100488 537.225600
    394    406    409     1   111.0400475 529.694400
    394    393    395     1   109.6600471 523.836800
    395    397    401     1   111.0400475 529.694400
    397    401    402     1   112.7300484 572.371200
    397    401    403     1   123.2000528 564.003200
    402    401    403     1   122.1000523 635.131200
    406    409    410     1   123.2000528 564.003200
    406    409    411     1   112.7300484 572.371200
    410    409    411     1   122.1000523 635.131200
    415    417    419     1   111.6100477 551.451200
    417    419    423     1   114.2100488 537.225600
    419    423    424     1   109.6600471 523.836800
    419    423    425     1   109.6600471 523.836800
    423    424    436     1   114.2100488 537.225600
    423    425    427     1   114.2100488 537.225600
    424    423    425     1   109.6600471 523.836800
    424    436    439     1   111.0400475 529.694400
    425    427    431     1   111.0400475 529.694400
    427    431    432     1   112.7300484 572.371200
    427    431    433     1   123.2000528 564.003200
    432    431    433     1   122.1000523 635.131200
    436    439    440     1   123.2000528 564.003200
    436    439    441     1   112.7300484 572.371200
    440    439    441     1   122.1000523 635.131200
    445    447    449     1   111.6100477 551.451200
    447    449    453     1   114.2100488 537.225600
    449    453    454     1   109.6600471 523.836800
    449    453    455     1   109.6600471 523.836800
    453    454    466     1   114.2100488 537.225600
    453    455    457     1   114.2100488 537.225600
    454    466    469     1   111.0400475 529.694400
    454    453    455     1   109.6600471 523.836800
    455    457    461     1   111.0400475 529.694400
    457    461    462     1   112.7300484 572.371200
    457    461    463     1   123.2000528 564.003200
    462    461    463     1   122.1000523 635.131200
    466    469    470     1   123.2000528 564.003200
    466    469    471     1   112.7300484 572.371200
    470    469    471     1   122.1000523 635.131200
    475    477    479     1   111.6100477 551.451200
    477    479    483     1   114.2100488 537.225600
    479    483    484     1   109.6600471 523.836800
    479    483    485     1   109.6600471 523.836800
    483    484    496     1   114.2100488 537.225600
    483    485    487     1   114.2100488 537.225600
    484    483    485     1   109.6600471 523.836800
    484    496    499     1   111.0400475 529.694400
    485    487    491     1   111.0400475 529.694400
    487    491    492     1   112.7300484 572.371200
    487    491    493     1   123.2000528 564.003200
    492    491    493     1   122.1000523 635.131200
    496    499    500     1   123.2000528 564.003200
    496    499    501     1   112.7300484 572.371200
    500    499    501     1   122.1000523 635.131200
    505    507    509     1   111.6100477 551.451200
    507    509    513     1   114.2100488 537.225600
    509    513    514     1   109.6600471 523.836800
    509    513    515     1   109.6600471 523.836800
    513    514    526     1   114.2100488 537.225600
    513    515    517     1   114.2100488 537.225600
    514    526    529     1   111.0400475 529.694400
    514    513    515     1   109.6600471 523.836800
    515    517    521     1   111.0400475 529.694400
    517    521    522     1   112.7300484 572.371200
    517    521    523     1   123.2000528 564.003200
    522    521    523     1   122.1000523 635.131200
    526    529    530     1   123.2000528 564.003200
    526    529    531     1   112.7300484 572.371200
    530    529    531     1   122.1000523 635.131200
    535    537    539     1   111.6100477 551.451200
    537    539    543     1   114.2100488 537.225600
    539    543    544     1   109.6600471 523.836800
    539    543    545     1   109.6600471 523.836800
    543    544    556     1   114.2100488 537.225600
    543    545    547     1   114.2100488 537.225600
    544    543    545     1   109.6600471 523.836800
    544    556    559     1   111.0400475 529.694400
    545    547    551     1   111.0400475 529.694400
    547    551    552     1   112.7300484 572.371200
    547    551    553     1   123.2000528 564.003200
    552    551    553     1   122.1000523 635.131200
    556    559    560     1   123.2000528 564.003200
    556    559    561     1   112.7300484 572.371200
    560    559    561     1   122.1000523 635.131200
    565    567    569     1   111.6100477 551.451200
    567    569    573     1   114.2100488 537.225600
    569    573    574     1   109.6600471 523.836800
    569    573    575     1   109.6600471 523.836800
    573    574    586     1   114.2100488 537.225600
    573    575    577     1   114.2100488 537.225600
    574    586    589     1   111.0400475 529.694400
    574    573    575     1   109.6600471 523.836800
    575    577    581     1   111.0400475 529.694400
    577    581    582     1   112.7300484 572.371200
    577    581    583     1   123.2000528 564.003200
    582    581    583     1   122.1000523 635.131200
    586    589    590     1   123.2000528 564.003200
    586    589    591     1   112.7300484 572.371200
    590    589    591     1   122.1000523 635.131200
    595    597    599     1   111.6100477 551.451200
    597    599    603     1   114.2100488 537.225600
    599    603    604     1   109.6600471 523.836800
    599    603    605     1   109.6600471 523.836800
    603    604    616     1   114.2100488 537.225600
    603    605    607     1   114.2100488 537.225600
    604    603    605     1   109.6600471 523.836800
    604    616    619     1   111.0400475 529.694400
    605    607    611     1   111.0400475 529.694400
    607    611    612     1   112.7300484 572.371200
    607    611    613     1   123.2000528 564.003200
    612    611    613     1   122.1000523 635.131200
    616    619    620     1   123.2000528 564.003200
    616    619    621     1   112.7300484 572.371200
    620    619    621     1   122.1000523 635.131200
    625    627    629     1   111.6100477 551.451200
    627    629    633     1   114.2100488 537.225600
    629    633    634     1   109.6600471 523.836800
    629    633    635     1   109.6600471 523.836800
    633    634    646     1   114.2100488 537.225600
    633    635    637     1   114.2100488 537.225600
    634    646    649     1   111.0400475 529.694400
    634    633    635     1   109.6600471 523.836800
    635    637    641     1   111.0400475 529.694400
    637    641    642     1   112.7300484 572.371200
    637    641    643     1   123.2000528 564.003200
    642    641    643     1   122.1000523 635.131200
    646    649    650     1   123.2000528 564.003200
    646    649    651     1   112.7300484 572.371200
    650    649    651     1   122.1000523 635.131200
    655    657    659     1   111.6100477 551.451200
    657    659    663     1   114.2100488 537.225600
    659    663    664     1   109.6600471 523.836800
    659    663    665     1   109.6600471 523.836800
    663    664    676     1   114.2100488 537.225600
    663    665    667     1   114.2100488 537.225600
    664    663    665     1   109.6600471 523.836800
    664    676    679     1   111.0400475 529.694400
    665    667    671     1   111.0400475 529.694400
    667    671    672     1   112.7300484 572.371200
    667    671    673     1   123.2000528 564.003200
    672    671    673     1   122.1000523 635.131200
    676    679    680     1   123.2000528 564.003200
    676    679    681     1   112.7300484 572.371200
    680    679    681     1   122.1000523 635.131200
    685    687    689     1   111.6100477 551.451200
    687    689    693     1   114.2100488 537.225600
    689    693    694     1   109.6600471 523.836800
    689    693    695     1   109.6600471 523.836800
    693    694    706     1   114.2100488 537.225600
    693    695    697     1   114.2100488 537.225600
    694    706    709     1   111.0400475 529.694400
    694    693    695     1   109.6600471 523.836800
    695    697    701     1   111.0400475 529.694400
    697    701    702     1   112.7300484 572.371200
    697    701    703     1   123.2000528 564.003200
    702    701    703     1   122.1000523 635.131200
    706    709    710     1   123.2000528 564.003200
    706    709    711     1   112.7300484 572.371200
    710    709    711     1   122.1000523 635.131200
    715    717    719     1   111.6100477 551.451200
    717    719    723     1   114.2100488 537.225600
    719    723    724     1   109.6600471 523.836800
    719    723    725     1   109.6600471 523.836800
    723    724    736     1   114.2100488 537.225600
    723    725    727     1   114.2100488 537.225600
    724    723    725     1   109.6600471 523.836800
    724    736    739     1   111.0400475 529.694400
    725    727    731     1   111.0400475 529.694400
    727    731    732     1   112.7300484 572.371200
    727    731    733     1   123.2000528 564.003200
    732    731    733     1   122.1000523 635.131200
    736    739    740     1   123.2000528 564.003200
    736    739    741     1   112.7300484 572.371200
    740    739    741     1   122.1000523 635.131200
    745    747    749     1   111.6100477 551.451200
    747    749    753     1   114.2100488 537.225600
    749    753    754     1   109.6600471 523.836800
    749    753    755     1   109.6600471 523.836800
    753    754    766     1   114.2100488 537.225600
    753    755    757     1   114.2100488 537.225600
    754    766    769     1   111.0400475 529.694400
    754    753    755     1   109.6600471 523.836800
    755    757    761     1   111.0400475 529.694400
    757    761    762     1   112.7300484 572.371200
    757    761    763     1   123.2000528 564.003200
    762    761    763     1   122.1000523 635.131200
    766    769    770     1   123.2000528 564.003200
    766    769    771     1   112.7300484 572.371200
    770    769    771     1   122.1000523 635.131200
    775    777    779     1   111.6100477 551.451200
    777    779    783     1   114.2100488 537.225600
    779    783    784     1   109.6600471 523.836800
    779    783    785     1   109.6600471 523.836800
    783    784    796     1   114.2100488 537.225600
    783    785    787     1   114.2100488 537.225600
    784    783    785     1   109.6600471 523.836800
    784    796    799     1   111.0400475 529.694400
    785    787    791     1   111.0400475 529.694400
    787    791    792     1   112.7300484 572.371200
    787    791    793     1   123.2000528 564.003200
    792    791    793     1   122.1000523 635.131200
    796    799    800     1   123.2000528 564.003200
    796    799    801     1   112.7300484 572.371200
    800    799    801     1   122.1000523 635.131200
    805    807    809     1   111.6100477 551.451200
    807    809    813     1   114.2100488 537.225600
    809    813    814     1   109.6600471 523.836800
    809    813    815     1   109.6600471 523.836800
    813    814    826     1   114.2100488 537.225600
    813    815    817     1   114.2100488 537.225600
    814    826    829     1   111.0400475 529.694400
    814    813    815     1   109.6600471 523.836800
    815    817    821     1   111.0400475 529.694400
    817    821    822     1   112.7300484 572.371200
    817    821    823     1   123.2000528 564.003200
    822    821    823     1   122.1000523 635.131200
    826    829    830     1   123.2000528 564.003200
    826    829    831     1   112.7300484 572.371200
    830    829    831     1   122.1000523 635.131200
      1      2     21     1   108.0100461 406.684800
      1      2     22     1   108.0100461 406.684800
      1      7     29     1   108.0100461 406.684800
      1      7     30     1   108.0100461 406.684800
      1      8     31     1   108.0100461 406.684800
      1      8     32     1   108.0100461 406.684800
      2      1     41     1   110.1100470 384.091200
      2      3     23     1   110.5600475 386.601600
      2      3     24     1   110.5600475 386.601600
      3      2     21     1   110.5600475 386.601600
      3      2     22     1   110.5600475 386.601600
      3      4     42     1   110.1100470 384.091200
      4      3     23     1   108.0100461 406.684800
      4      3     24     1   108.0100461 406.684800
      4      5     25     1   108.0100461 406.684800
      4      5     26     1   108.0100461 406.684800
      4      6     27     1   108.0100461 406.684800
      4      6     28     1   108.0100461 406.684800
      5      4     42     1   110.1100470 384.091200
      5     11     35     1   109.8000471 387.438400
      5     11     36     1   109.8000471 387.438400
      6      4     42     1   110.1100470 384.091200
      6      9     33     1   109.8000471 387.438400
      6      9     34     1   109.8000471 387.438400
      7      1     41     1   110.1100470 384.091200
      7     13     37     1   109.8000471 387.438400
      7     13     38     1   109.8000471 387.438400
      8      1     41     1   110.1100470 384.091200
      8     15     39     1   109.8000471 387.438400
      8     15     40     1   109.8000471 387.438400
      9      6     27     1   110.5600475 386.601600
      9      6     28     1   110.5600475 386.601600
     10      9     33     1   108.7700466 392.459200
     10      9     34     1   108.7700466 392.459200
     10     52     67     1   117.5500507 404.174400
     11      5     25     1   110.5600475 386.601600
     11      5     26     1   110.5600475 386.601600
     12     11     35     1   108.7700466 392.459200
     12     11     36     1   108.7700466 392.459200
     12     78     93     1   117.5500507 404.174400
     13      7     29     1   110.5600475 386.601600
     13      7     30     1   110.5600475 386.601600
     14     13     37     1   108.7700466 392.459200
     14     13     38     1   108.7700466 392.459200
     14    104    119     1   117.5500507 404.174400
     15      8     31     1   110.5600475 386.601600
     15      8     32     1   110.5600475 386.601600
     16     15     39     1   108.7700466 392.459200
     16     15     40     1   108.7700466 392.459200
     16    130    145     1   117.5500507 404.174400
     21      2     22     1   109.7500473 328.025600
     23      3     24     1   109.7500473 328.025600
     25      5     26     1   109.7500473 328.025600
     27      6     28     1   109.7500473 328.025600
     29      7     30     1   109.7500473 328.025600
     31      8     32     1   109.7500473 328.025600
     33      9     34     1   107.5800459 329.699200
     35     11     36     1   107.5800459 329.699200
     37     13     38     1   107.5800459 329.699200
     39     15     40     1   107.5800459 329.699200
     43     44     55     1   108.0100461 406.684800
     43     44     56     1   108.0100461 406.684800
     43     45     57     1   108.0100461 406.684800
     43     45     58     1   108.0100461 406.684800
     43     50     63     1   108.0100461 406.684800
     43     50     64     1   108.0100461 406.684800
     44     43     68     1   110.1100470 384.091200
     44     46     59     1   109.8000471 387.438400
     44     46     60     1   109.8000471 387.438400
     45     43     68     1   110.1100470 384.091200
     45     48     61     1   109.8000471 387.438400
     45     48     62     1   109.8000471 387.438400
     46     44     55     1   110.5600475 386.601600
     46     44     56     1   110.5600475 386.601600
     47     46     59     1   108.7700466 392.459200
     47     46     60     1   108.7700466 392.459200
     47    156    171     1   117.5500507 404.174400
     48     45     57     1   110.5600475 386.601600
     48     45     58     1   110.5600475 386.601600
     49     48     61     1   108.7700466 392.459200
     49     48     62     1   108.7700466 392.459200
     49    182    197     1   117.5500507 404.174400
     50     43     68     1   110.1100470 384.091200
     50     51     65     1   109.5600471 388.275200
     50     51     66     1   109.5600471 388.275200
     51     50     63     1   110.5600475 386.601600
     51     50     64     1   110.5600475 386.601600
     51     52     67     1   117.6800502 383.254400
     52     51     65     1   108.8800464 416.726400
     52     51     66     1   108.8800464 416.726400
     55     44     56     1   109.7500473 328.025600
     57     45     58     1   109.7500473 328.025600
     59     46     60     1   107.5800459 329.699200
     61     48     62     1   107.5800459 329.699200
     63     50     64     1   109.7500473 328.025600
     65     51     66     1   108.4600466 328.025600
     69     70     81     1   108.0100461 406.684800
     69     70     82     1   108.0100461 406.684800
     69     71     83     1   108.0100461 406.684800
     69     71     84     1   108.0100461 406.684800
     69     76     89     1   108.0100461 406.684800
     69     76     90     1   108.0100461 406.684800
     70     69     94     1   110.1100470 384.091200
     70     72     85     1   109.8000471 387.438400
     70     72     86     1   109.8000471 387.438400
     71     69     94     1   110.1100470 384.091200
     71     74     87     1   109.8000471 387.438400
     71     74     88     1   109.8000471 387.438400
     72     70     81     1   110.5600475 386.601600
     72     70     82     1   110.5600475 386.601600
     73     72     85     1   108.7700466 392.459200
     73     72     86     1   108.7700466 392.459200
     73    208    223     1   117.5500507 404.174400
     74     71     83     1   110.5600475 386.601600
     74     71     84     1   110.5600475 386.601600
     75     74     87     1   108.7700466 392.459200
     75     74     88     1   108.7700466 392.459200
     75    234    249     1   117.5500507 404.174400
     76     69     94     1   110.1100470 384.091200
     76     77     91     1   109.5600471 388.275200
     76     77     92     1   109.5600471 388.275200
     77     76     89     1   110.5600475 386.601600
     77     76     90     1   110.5600475 386.601600
     77     78     93     1   117.6800502 383.254400
     78     77     91     1   108.8800464 416.726400
     78     77     92     1   108.8800464 416.726400
     81     70     82     1   109.7500473 328.025600
     83     71     84     1   109.7500473 328.025600
     85     72     86     1   107.5800459 329.699200
     87     74     88     1   107.5800459 329.699200
     89     76     90     1   109.7500473 328.025600
     91     77     92     1   108.4600466 328.025600
     95     96    107     1   108.0100461 406.684800
     95     96    108     1   108.0100461 406.684800
     95     97    109     1   108.0100461 406.684800
     95     97    110     1   108.0100461 406.684800
     95    102    115     1   108.0100461 406.684800
     95    102    116     1   108.0100461 406.684800
     96     95    120     1   110.1100470 384.091200
     96     98    111     1   109.8000471 387.438400
     96     98    112     1   109.8000471 387.438400
     97     95    120     1   110.1100470 384.091200
     97    100    113     1   109.8000471 387.438400
     97    100    114     1   109.8000471 387.438400
     98     96    107     1   110.5600475 386.601600
     98     96    108     1   110.5600475 386.601600
     99     98    111     1   108.7700466 392.459200
     99     98    112     1   108.7700466 392.459200
     99    260    275     1   117.5500507 404.174400
    100     97    109     1   110.5600475 386.601600
    100     97    110     1   110.5600475 386.601600
    101    100    113     1   108.7700466 392.459200
    101    100    114     1   108.7700466 392.459200
    101    286    301     1   117.5500507 404.174400
    102     95    120     1   110.1100470 384.091200
    102    103    117     1   109.5600471 388.275200
    102    103    118     1   109.5600471 388.275200
    103    102    115     1   110.5600475 386.601600
    103    102    116     1   110.5600475 386.601600
    103    104    119     1   117.6800502 383.254400
    104    103    117     1   108.8800464 416.726400
    104    103    118     1   108.8800464 416.726400
    107     96    108     1   109.7500473 328.025600
    109     97    110     1   109.7500473 328.025600
    111     98    112     1   107.5800459 329.699200
    113    100    114     1   107.5800459 329.699200
    115    102    116     1   109.7500473 328.025600
    117    103    118     1   108.4600466 328.025600
    121    122    133     1   108.0100461 406.684800
    121    122    134     1   108.0100461 406.684800
    121    123    135     1   108.0100461 406.684800
    121    123    136     1   108.0100461 406.684800
    121    128    141     1   108.0100461 406.684800
    121    128    142     1   108.0100461 406.684800
    122    121    146     1   110.1100470 384.091200
    122    124    137     1   109.8000471 387.438400
    122    124    138     1   109.8000471 387.438400
    123    121    146     1   110.1100470 384.091200
    123    126    139     1   109.8000471 387.438400
    123    126    140     1   109.8000471 387.438400
    124    122    133     1   110.5600475 386.601600
    124    122    134     1   110.5600475 386.601600
    125    124    137     1   108.7700466 392.459200
    125    124    138     1   108.7700466 392.459200
    125    312    327     1   117.5500507 404.174400
    126    123    135     1   110.5600475 386.601600
    126    123    136     1   110.5600475 386.601600
    127    126    139     1   108.7700466 392.459200
    127    126    140     1   108.7700466 392.459200
    127    338    353     1   117.5500507 404.174400
    128    121    146     1   110.1100470 384.091200
    128    129    143     1   109.5600471 388.275200
    128    129    144     1   109.5600471 388.275200
    129    128    141     1   110.5600475 386.601600
    129    128    142     1   110.5600475 386.601600
    129    130    145     1   117.6800502 383.254400
    130    129    143     1   108.8800464 416.726400
    130    129    144     1   108.8800464 416.726400
    133    122    134     1   109.7500473 328.025600
    135    123    136     1   109.7500473 328.025600
    137    124    138     1   107.5800459 329.699200
    139    126    140     1   107.5800459 329.699200
    141    128    142     1   109.7500473 328.025600
    143    129    144     1   108.4600466 328.025600
    147    148    159     1   108.0100461 406.684800
    147    148    160     1   108.0100461 406.684800
    147    149    161     1   108.0100461 406.684800
    147    149    162     1   108.0100461 406.684800
    147    154    167     1   108.0100461 406.684800
    147    154    168     1   108.0100461 406.684800
    148    147    172     1   110.1100470 384.091200
    148    150    163     1   109.8000471 387.438400
    148    150    164     1   109.8000471 387.438400
    149    147    172     1   110.1100470 384.091200
    149    152    165     1   109.8000471 387.438400
    149    152    166     1   109.8000471 387.438400
    150    148    159     1   110.5600475 386.601600
    150    148    160     1   110.5600475 386.601600
    151    150    163     1   108.7700466 392.459200
    151    150    164     1   108.7700466 392.459200
    151    355    356     1   117.5500507 404.174400
    152    149    161     1   110.5600475 386.601600
    152    149    162     1   110.5600475 386.601600
    153    152    165     1   108.7700466 392.459200
    153    152    166     1   108.7700466 392.459200
    153    385    386     1   117.5500507 404.174400
    154    147    172     1   110.1100470 384.091200
    154    155    169     1   109.5600471 388.275200
    154    155    170     1   109.5600471 388.275200
    155    154    167     1   110.5600475 386.601600
    155    154    168     1   110.5600475 386.601600
    155    156    171     1   117.6800502 383.254400
    156    155    169     1   108.8800464 416.726400
    156    155    170     1   108.8800464 416.726400
    159    148    160     1   109.7500473 328.025600
    161    149    162     1   109.7500473 328.025600
    163    150    164     1   107.5800459 329.699200
    165    152    166     1   107.5800459 329.699200
    167    154    168     1   109.7500473 328.025600
    169    155    170     1   108.4600466 328.025600
    173    174    185     1   108.0100461 406.684800
    173    174    186     1   108.0100461 406.684800
    173    175    187     1   108.0100461 406.684800
    173    175    188     1   108.0100461 406.684800
    173    180    193     1   108.0100461 406.684800
    173    180    194     1   108.0100461 406.684800
    174    173    198     1   110.1100470 384.091200
    174    176    189     1   109.8000471 387.438400
    174    176    190     1   109.8000471 387.438400
    175    173    198     1   110.1100470 384.091200
    175    178    191     1   109.8000471 387.438400
    175    178    192     1   109.8000471 387.438400
    176    174    185     1   110.5600475 386.601600
    176    174    186     1   110.5600475 386.601600
    177    176    189     1   108.7700466 392.459200
    177    176    190     1   108.7700466 392.459200
    177    415    416     1   117.5500507 404.174400
    178    175    187     1   110.5600475 386.601600
    178    175    188     1   110.5600475 386.601600
    179    178    191     1   108.7700466 392.459200
    179    178    192     1   108.7700466 392.459200
    179    445    446     1   117.5500507 404.174400
    180    173    198     1   110.1100470 384.091200
    180    181    195     1   109.5600471 388.275200
    180    181    196     1   109.5600471 388.275200
    181    180    193     1   110.5600475 386.601600
    181    180    194     1   110.5600475 386.601600
    181    182    197     1   117.6800502 383.254400
    182    181    195     1   108.8800464 416.726400
    182    181    196     1   108.8800464 416.726400
    185    174    186     1   109.7500473 328.025600
    187    175    188     1   109.7500473 328.025600
    189    176    190     1   107.5800459 329.699200
    191    178    192     1   107.5800459 329.699200
    193    180    194     1   109.7500473 328.025600
    195    181    196     1   108.4600466 328.025600
    199    200    211     1   108.0100461 406.684800
    199    200    212     1   108.0100461 406.684800
    199    201    213     1   108.0100461 406.684800
    199    201    214     1   108.0100461 406.684800
    199    206    219     1   108.0100461 406.684800
    199    206    220     1   108.0100461 406.684800
    200    199    224     1   110.1100470 384.091200
    200    202    215     1   109.8000471 387.438400
    200    202    216     1   109.8000471 387.438400
    201    199    224     1   110.1100470 384.091200
    201    204    217     1   109.8000471 387.438400
    201    204    218     1   109.8000471 387.438400
    202    200    211     1   110.5600475 386.601600
    202    200    212     1   110.5600475 386.601600
    203    202    215     1   108.7700466 392.459200
    203    202    216     1   108.7700466 392.459200
    203    475    476     1   117.5500507 404.174400
    204    201    213     1   110.5600475 386.601600
    204    201    214     1   110.5600475 386.601600
    205    204    217     1   108.7700466 392.459200
    205    204    218     1   108.7700466 392.459200
    205    505    506     1   117.5500507 404.174400
    206    199    224     1   110.1100470 384.091200
    206    207    221     1   109.5600471 388.275200
    206    207    222     1   109.5600471 388.275200
    207    206    219     1   110.5600475 386.601600
    207    206    220     1   110.5600475 386.601600
    207    208    223     1   117.6800502 383.254400
    208    207    221     1   108.8800464 416.726400
    208    207    222     1   108.8800464 416.726400
    211    200    212     1   109.7500473 328.025600
    213    201    214     1   109.7500473 328.025600
    215    202    216     1   107.5800459 329.699200
    217    204    218     1   107.5800459 329.699200
    219    206    220     1   109.7500473 328.025600
    221    207    222     1   108.4600466 328.025600
    225    226    237     1   108.0100461 406.684800
    225    226    238     1   108.0100461 406.684800
    225    227    239     1   108.0100461 406.684800
    225    227    240     1   108.0100461 406.684800
    225    232    245     1   108.0100461 406.684800
    225    232    246     1   108.0100461 406.684800
    226    225    250     1   110.1100470 384.091200
    226    228    241     1   109.8000471 387.438400
    226    228    242     1   109.8000471 387.438400
    227    225    250     1   110.1100470 384.091200
    227    230    243     1   109.8000471 387.438400
    227    230    244     1   109.8000471 387.438400
    228    226    237     1   110.5600475 386.601600
    228    226    238     1   110.5600475 386.601600
    229    228    241     1   108.7700466 392.459200
    229    228    242     1   108.7700466 392.459200
    229    535    536     1   117.5500507 404.174400
    230    227    239     1   110.5600475 386.601600
    230    227    240     1   110.5600475 386.601600
    231    230    243     1   108.7700466 392.459200
    231    230    244     1   108.7700466 392.459200
    231    565    566     1   117.5500507 404.174400
    232    225    250     1   110.1100470 384.091200
    232    233    247     1   109.5600471 388.275200
    232    233    248     1   109.5600471 388.275200
    233    232    245     1   110.5600475 386.601600
    233    232    246     1   110.5600475 386.601600
    233    234    249     1   117.6800502 383.254400
    234    233    247     1   108.8800464 416.726400
    234    233    248     1   108.8800464 416.726400
    237    226    238     1   109.7500473 328.025600
    239    227    240     1   109.7500473 328.025600
    241    228    242     1   107.5800459 329.699200
    243    230    244     1   107.5800459 329.699200
    245    232    246     1   109.7500473 328.025600
    247    233    248     1   108.4600466 328.025600
    251    252    263     1   108.0100461 406.684800
    251    252    264     1   108.0100461 406.684800
    251    253    265     1   108.0100461 406.684800
    251    253    266     1   108.0100461 406.684800
    251    258    271     1   108.0100461 406.684800
    251    258    272     1   108.0100461 406.684800
    252    251    276     1   110.1100470 384.091200
    252    254    267     1   109.8000471 387.438400
    252    254    268     1   109.8000471 387.438400
    253    251    276     1   110.1100470 384.091200
    253    256    269     1   109.8000471 387.438400
    253    256    270     1   109.8000471 387.438400
    254    252    263     1   110.5600475 386.601600
    254    252    264     1   110.5600475 386.601600
    255    254    267     1   108.7700466 392.459200
    255    254    268     1   108.7700466 392.459200
    255    595    596     1   117.5500507 404.174400
    256    253    265     1   110.5600475 386.601600
    256    253    266     1   110.5600475 386.601600
    257    256    269     1   108.7700466 392.459200
    257    256    270     1   108.7700466 392.459200
    257    625    626     1   117.5500507 404.174400
    258    251    276     1   110.1100470 384.091200
    258    259    273     1   109.5600471 388.275200
    258    259    274     1   109.5600471 388.275200
    259    258    271     1   110.5600475 386.601600
    259    258    272     1   110.5600475 386.601600
    259    260    275     1   117.6800502 383.254400
    260    259    273     1   108.8800464 416.726400
    260    259    274     1   108.8800464 416.726400
    263    252    264     1   109.7500473 328.025600
    265    253    266     1   109.7500473 328.025600
    267    254    268     1   107.5800459 329.699200
    269    256    270     1   107.5800459 329.699200
    271    258    272     1   109.7500473 328.025600
    273    259    274     1   108.4600466 328.025600
    277    278    289     1   108.0100461 406.684800
    277    278    290     1   108.0100461 406.684800
    277    279    291     1   108.0100461 406.684800
    277    279    292     1   108.0100461 406.684800
    277    284    297     1   108.0100461 406.684800
    277    284    298     1   108.0100461 406.684800
    278    277    302     1   110.1100470 384.091200
    278    280    293     1   109.8000471 387.438400
    278    280    294     1   109.8000471 387.438400
    279    277    302     1   110.1100470 384.091200
    279    282    295     1   109.8000471 387.438400
    279    282    296     1   109.8000471 387.438400
    280    278    289     1   110.5600475 386.601600
    280    278    290     1   110.5600475 386.601600
    281    280    293     1   108.7700466 392.459200
    281    280    294     1   108.7700466 392.459200
    281    655    656     1   117.5500507 404.174400
    282    279    291     1   110.5600475 386.601600
    282    279    292     1   110.5600475 386.601600
    283    282    295     1   108.7700466 392.459200
    283    282    296     1   108.7700466 392.459200
    283    685    686     1   117.5500507 404.174400
    284    277    302     1   110.1100470 384.091200
    284    285    299     1   109.5600471 388.275200
    284    285    300     1   109.5600471 388.275200
    285    284    297     1   110.5600475 386.601600
    285    284    298     1   110.5600475 386.601600
    285    286    301     1   117.6800502 383.254400
    286    285    299     1   108.8800464 416.726400
    286    285    300     1   108.8800464 416.726400
    289    278    290     1   109.7500473 328.025600
    291    279    292     1   109.7500473 328.025600
    293    280    294     1   107.5800459 329.699200
    295    282    296     1   107.5800459 329.699200
    297    284    298     1   109.7500473 328.025600
    299    285    300     1   108.4600466 328.025600
    303    304    315     1   108.0100461 406.684800
    303    304    316     1   108.0100461 406.684800
    303    305    317     1   108.0100461 406.684800
    303    305    318     1   108.0100461 406.684800
    303    310    323     1   108.0100461 406.684800
    303    310    324     1   108.0100461 406.684800
    304    303    328     1   110.1100470 384.091200
    304    306    319     1   109.8000471 387.438400
    304    306    320     1   109.8000471 387.438400
    305    303    328     1   110.1100470 384.091200
    305    308    321     1   109.8000471 387.438400
    305    308    322     1   109.8000471 387.438400
    306    304    315     1   110.5600475 386.601600
    306    304    316     1   110.5600475 386.601600
    307    306    319     1   108.7700466 392.459200
    307    306    320     1   108.7700466 392.459200
    307    715    716     1   117.5500507 404.174400
    308    305    317     1   110.5600475 386.601600
    308    305    318     1   110.5600475 386.601600
    309    308    321     1   108.7700466 392.459200
    309    308    322     1   108.7700466 392.459200
    309    745    746     1   117.5500507 404.174400
    310    303    328     1   110.1100470 384.091200
    310    311    325     1   109.5600471 388.275200
    310    311    326     1   109.5600471 388.275200
    311    310    323     1   110.5600475 386.601600
    311    310    324     1   110.5600475 386.601600
    311    312    327     1   117.6800502 383.254400
    312    311    325     1   108.8800464 416.726400
    312    311    326     1   108.8800464 416.726400
    315    304    316     1   109.7500473 328.025600
    317    305    318     1   109.7500473 328.025600
    319    306    320     1   107.5800459 329.699200
    321    308    322     1   107.5800459 329.699200
    323    310    324     1   109.7500473 328.025600
    325    311    326     1   108.4600466 328.025600
    329    330    341     1   108.0100461 406.684800
    329    330    342     1   108.0100461 406.684800
    329    331    343     1   108.0100461 406.684800
    329    331    344     1   108.0100461 406.684800
    329    336    349     1   108.0100461 406.684800
    329    336    350     1   108.0100461 406.684800
    330    329    354     1   110.1100470 384.091200
    330    332    345     1   109.8000471 387.438400
    330    332    346     1   109.8000471 387.438400
    331    329    354     1   110.1100470 384.091200
    331    334    347     1   109.8000471 387.438400
    331    334    348     1   109.8000471 387.438400
    332    330    341     1   110.5600475 386.601600
    332    330    342     1   110.5600475 386.601600
    333    332    345     1   108.7700466 392.459200
    333    332    346     1   108.7700466 392.459200
    333    775    776     1   117.5500507 404.174400
    334    331    343     1   110.5600475 386.601600
    334    331    344     1   110.5600475 386.601600
    335    334    347     1   108.7700466 392.459200
    335    334    348     1   108.7700466 392.459200
    335    805    806     1   117.5500507 404.174400
    336    329    354     1   110.1100470 384.091200
    336    337    351     1   109.5600471 388.275200
    336    337    352     1   109.5600471 388.275200
    337    336    349     1   110.5600475 386.601600
    337    336    350     1   110.5600475 386.601600
    337    338    353     1   117.6800502 383.254400
    338    337    351     1   108.8800464 416.726400
    338    337    352     1   108.8800464 416.726400
    341    330    342     1   109.7500473 328.025600
    343    331    344     1   109.7500473 328.025600
    345    332    346     1   107.5800459 329.699200
    347    334    348     1   107.5800459 329.699200
    349    336    350     1   109.7500473 328.025600
    351    337    352     1   108.4600466 328.025600
    355    357    358     1   108.8800464 416.726400
    355    357    360     1   108.8800464 416.726400
    356    355    357     1   117.6800502 383.254400
    357    359    361     1   110.5600475 386.601600
    357    359    362     1   110.5600475 386.601600
    358    357    359     1   109.5600471 388.275200
    358    357    360     1   108.4600466 328.025600
    359    357    360     1   109.5600471 388.275200
    359    363    384     1   110.1100470 384.091200
    361    359    363     1   108.0100461 406.684800
    361    359    362     1   109.7500473 328.025600
    362    359    363     1   108.0100461 406.684800
    363    364    374     1   108.0100461 406.684800
    363    364    375     1   108.0100461 406.684800
    363    365    366     1   108.0100461 406.684800
    363    365    368     1   108.0100461 406.684800
    364    363    384     1   110.1100470 384.091200
    364    376    377     1   109.8000471 387.438400
    364    376    378     1   109.8000471 387.438400
    365    363    384     1   110.1100470 384.091200
    365    367    369     1   109.8000471 387.438400
    365    367    370     1   109.8000471 387.438400
    366    365    367     1   110.5600475 386.601600
    366    365    368     1   109.7500473 328.025600
    367    365    368     1   110.5600475 386.601600
    369    367    371     1   108.7700466 392.459200
    369    367    370     1   107.5800459 329.699200
    370    367    371     1   108.7700466 392.459200
    371    372    382     1   106.5500460 417.563200
    374    364    376     1   110.5600475 386.601600
    374    364    375     1   109.7500473 328.025600
    375    364    376     1   110.5600475 386.601600
    377    376    379     1   108.7700466 392.459200
    377    376    378     1   107.5800459 329.699200
    378    376    379     1   108.7700466 392.459200
    379    381    383     1   106.5500460 417.563200
    385    387    388     1   108.8800464 416.726400
    385    387    390     1   108.8800464 416.726400
    386    385    387     1   117.6800502 383.254400
    387    389    391     1   110.5600475 386.601600
    387    389    392     1   110.5600475 386.601600
    388    387    389     1   109.5600471 388.275200
    388    387    390     1   108.4600466 328.025600
    389    393    414     1   110.1100470 384.091200
    389    387    390     1   109.5600471 388.275200
    391    389    393     1   108.0100461 406.684800
    391    389    392     1   109.7500473 328.025600
    392    389    393     1   108.0100461 406.684800
    393    394    404     1   108.0100461 406.684800
    393    394    405     1   108.0100461 406.684800
    393    395    396     1   108.0100461 406.684800
    393    395    398     1   108.0100461 406.684800
    394    406    407     1   109.8000471 387.438400
    394    406    408     1   109.8000471 387.438400
    394    393    414     1   110.1100470 384.091200
    395    397    399     1   109.8000471 387.438400
    395    397    400     1   109.8000471 387.438400
    395    393    414     1   110.1100470 384.091200
    396    395    397     1   110.5600475 386.601600
    396    395    398     1   109.7500473 328.025600
    397    395    398     1   110.5600475 386.601600
    399    397    401     1   108.7700466 392.459200
    399    397    400     1   107.5800459 329.699200
    400    397    401     1   108.7700466 392.459200
    401    402    412     1   106.5500460 417.563200
    404    394    406     1   110.5600475 386.601600
    404    394    405     1   109.7500473 328.025600
    405    394    406     1   110.5600475 386.601600
    407    406    409     1   108.7700466 392.459200
    407    406    408     1   107.5800459 329.699200
    408    406    409     1   108.7700466 392.459200
    409    411    413     1   106.5500460 417.563200
    415    417    418     1   108.8800464 416.726400
    415    417    420     1   108.8800464 416.726400
    416    415    417     1   117.6800502 383.254400
    417    419    421     1   110.5600475 386.601600
    417    419    422     1   110.5600475 386.601600
    418    417    419     1   109.5600471 388.275200
    418    417    420     1   108.4600466 328.025600
    419    417    420     1   109.5600471 388.275200
    419    423    444     1   110.1100470 384.091200
    421    419    423     1   108.0100461 406.684800
    421    419    422     1   109.7500473 328.025600
    422    419    423     1   108.0100461 406.684800
    423    424    434     1   108.0100461 406.684800
    423    424    435     1   108.0100461 406.684800
    423    425    426     1   108.0100461 406.684800
    423    425    428     1   108.0100461 406.684800
    424    423    444     1   110.1100470 384.091200
    424    436    437     1   109.8000471 387.438400
    424    436    438     1   109.8000471 387.438400
    425    423    444     1   110.1100470 384.091200
    425    427    429     1   109.8000471 387.438400
    425    427    430     1   109.8000471 387.438400
    426    425    427     1   110.5600475 386.601600
    426    425    428     1   109.7500473 328.025600
    427    425    428     1   110.5600475 386.601600
    429    427    431     1   108.7700466 392.459200
    429    427    430     1   107.5800459 329.699200
    430    427    431     1   108.7700466 392.459200
    431    432    442     1   106.5500460 417.563200
    434    424    436     1   110.5600475 386.601600
    434    424    435     1   109.7500473 328.025600
    435    424    436     1   110.5600475 386.601600
    437    436    439     1   108.7700466 392.459200
    437    436    438     1   107.5800459 329.699200
    438    436    439     1   108.7700466 392.459200
    439    441    443     1   106.5500460 417.563200
    445    447    448     1   108.8800464 416.726400
    445    447    450     1   108.8800464 416.726400
    446    445    447     1   117.6800502 383.254400
    447    449    451     1   110.5600475 386.601600
    447    449    452     1   110.5600475 386.601600
    448    447    449     1   109.5600471 388.275200
    448    447    450     1   108.4600466 328.025600
    449    453    474     1   110.1100470 384.091200
    449    447    450     1   109.5600471 388.275200
    451    449    453     1   108.0100461 406.684800
    451    449    452     1   109.7500473 328.025600
    452    449    453     1   108.0100461 406.684800
    453    454    464     1   108.0100461 406.684800
    453    454    465     1   108.0100461 406.684800
    453    455    456     1   108.0100461 406.684800
    453    455    458     1   108.0100461 406.684800
    454    466    467     1   109.8000471 387.438400
    454    466    468     1   109.8000471 387.438400
    454    453    474     1   110.1100470 384.091200
    455    457    459     1   109.8000471 387.438400
    455    457    460     1   109.8000471 387.438400
    455    453    474     1   110.1100470 384.091200
    456    455    457     1   110.5600475 386.601600
    456    455    458     1   109.7500473 328.025600
    457    455    458     1   110.5600475 386.601600
    459    457    461     1   108.7700466 392.459200
    459    457    460     1   107.5800459 329.699200
    460    457    461     1   108.7700466 392.459200
    461    462    472     1   106.5500460 417.563200
    464    454    466     1   110.5600475 386.601600
    464    454    465     1   109.7500473 328.025600
    465    454    466     1   110.5600475 386.601600
    467    466    469     1   108.7700466 392.459200
    467    466    468     1   107.5800459 329.699200
    468    466    469     1   108.7700466 392.459200
    469    471    473     1   106.5500460 417.563200
    475    477    478     1   108.8800464 416.726400
    475    477    480     1   108.8800464 416.726400
    476    475    477     1   117.6800502 383.254400
    477    479    481     1   110.5600475 386.601600
    477    479    482     1   110.5600475 386.601600
    478    477    479     1   109.5600471 388.275200
    478    477    480     1   108.4600466 328.025600
    479    477    480     1   109.5600471 388.275200
    479    483    504     1   110.1100470 384.091200
    481    479    483     1   108.0100461 406.684800
    481    479    482     1   109.7500473 328.025600
    482    479    483     1   108.0100461 406.684800
    483    484    494     1   108.0100461 406.684800
    483    484    495     1   108.0100461 406.684800
    483    485    486     1   108.0100461 406.684800
    483    485    488     1   108.0100461 406.684800
    484    483    504     1   110.1100470 384.091200
    484    496    497     1   109.8000471 387.438400
    484    496    498     1   109.8000471 387.438400
    485    483    504     1   110.1100470 384.091200
    485    487    489     1   109.8000471 387.438400
    485    487    490     1   109.8000471 387.438400
    486    485    487     1   110.5600475 386.601600
    486    485    488     1   109.7500473 328.025600
    487    485    488     1   110.5600475 386.601600
    489    487    491     1   108.7700466 392.459200
    489    487    490     1   107.5800459 329.699200
    490    487    491     1   108.7700466 392.459200
    491    492    502     1   106.5500460 417.563200
    494    484    496     1   110.5600475 386.601600
    494    484    495     1   109.7500473 328.025600
    495    484    496     1   110.5600475 386.601600
    497    496    499     1   108.7700466 392.459200
    497    496    498     1   107.5800459 329.699200
    498    496    499     1   108.7700466 392.459200
    499    501    503     1   106.5500460 417.563200
    505    507    508     1   108.8800464 416.726400
    505    507    510     1   108.8800464 416.726400
    506    505    507     1   117.6800502 383.254400
    507    509    511     1   110.5600475 386.601600
    507    509    512     1   110.5600475 386.601600
    508    507    509     1   109.5600471 388.275200
    508    507    510     1   108.4600466 328.025600
    509    513    534     1   110.1100470 384.091200
    509    507    510     1   109.5600471 388.275200
    511    509    513     1   108.0100461 406.684800
    511    509    512     1   109.7500473 328.025600
    512    509    513     1   108.0100461 406.684800
    513    514    524     1   108.0100461 406.684800
    513    514    525     1   108.0100461 406.684800
    513    515    516     1   108.0100461 406.684800
    513    515    518     1   108.0100461 406.684800
    514    526    527     1   109.8000471 387.438400
    514    526    528     1   109.8000471 387.438400
    514    513    534     1   110.1100470 384.091200
    515    517    519     1   109.8000471 387.438400
    515    517    520     1   109.8000471 387.438400
    515    513    534     1   110.1100470 384.091200
    516    515    517     1   110.5600475 386.601600
    516    515    518     1   109.7500473 328.025600
    517    515    518     1   110.5600475 386.601600
    519    517    521     1   108.7700466 392.459200
    519    517    520     1   107.5800459 329.699200
    520    517    521     1   108.7700466 392.459200
    521    522    532     1   106.5500460 417.563200
    524    514    526     1   110.5600475 386.601600
    524    514    525     1   109.7500473 328.025600
    525    514    526     1   110.5600475 386.601600
    527    526    529     1   108.7700466 392.459200
    527    526    528     1   107.5800459 329.699200
    528    526    529     1   108.7700466 392.459200
    529    531    533     1   106.5500460 417.563200
    535    537    538     1   108.8800464 416.726400
    535    537    540     1   108.8800464 416.726400
    536    535    537     1   117.6800502 383.254400
    537    539    541     1   110.5600475 386.601600
    537    539    542     1   110.5600475 386.601600
    538    537    539     1   109.5600471 388.275200
    538    537    540     1   108.4600466 328.025600
    539    537    540     1   109.5600471 388.275200
    539    543    564     1   110.1100470 384.091200
    541    539    543     1   108.0100461 406.684800
    541    539    542     1   109.7500473 328.025600
    542    539    543     1   108.0100461 406.684800
    543    544    554     1   108.0100461 406.684800
    543    544    555     1   108.0100461 406.684800
    543    545    546     1   108.0100461 406.684800
    543    545    548     1   108.0100461 406.684800
    544    543    564     1   110.1100470 384.091200
    544    556    557     1   109.8000471 387.438400
    544    556    558     1   109.8000471 387.438400
    545    543    564     1   110.1100470 384.091200
    545    547    549     1   109.8000471 387.438400
    545    547    550     1   109.8000471 387.438400
    546    545    547     1   110.5600475 386.601600
    546    545    548     1   109.7500473 328.025600
    547    545    548     1   110.5600475 386.601600
    549    547    551     1   108.7700466 392.459200
    549    547    550     1   107.5800459 329.699200
    550    547    551     1   108.7700466 392.459200
    551    552    562     1   106.5500460 417.563200
    554    544    556     1   110.5600475 386.601600
    554    544    555     1   109.7500473 328.025600
    555    544    556     1   110.5600475 386.601600
    557    556    559     1   108.7700466 392.459200
    557    556    558     1   107.5800459 329.699200
    558    556    559     1   108.7700466 392.459200
    559    561    563     1   106.5500460 417.563200
    565    567    568     1   108.8800464 416.726400
    565    567    570     1   108.8800464 416.726400
    566    565    567     1   117.6800502 383.254400
    567    569    571     1   110.5600475 386.601600
    567    569    572     1   110.5600475 386.601600
    568    567    569     1   109.5600471 388.275200
    568    567    570     1   108.4600466 328.025600
    569    573    594     1   110.1100470 384.091200
    569    567    570     1   109.5600471 388.275200
    571    569    573     1   108.0100461 406.684800
    571    569    572     1   109.7500473 328.025600
    572    569    573     1   108.0100461 406.684800
    573    574    584     1   108.0100461 406.684800
    573    574    585     1   108.0100461 406.684800
    573    575    576     1   108.0100461 406.684800
    573    575    578     1   108.0100461 406.684800
    574    586    587     1   109.8000471 387.438400
    574    586    588     1   109.8000471 387.438400
    574    573    594     1   110.1100470 384.091200
    575    577    579     1   109.8000471 387.438400
    575    577    580     1   109.8000471 387.438400
    575    573    594     1   110.1100470 384.091200
    576    575    577     1   110.5600475 386.601600
    576    575    578     1   109.7500473 328.025600
    577    575    578     1   110.5600475 386.601600
    579    577    581     1   108.7700466 392.459200
    579    577    580     1   107.5800459 329.699200
    580    577    581     1   108.7700466 392.459200
    581    582    592     1   106.5500460 417.563200
    584    574    586     1   110.5600475 386.601600
    584    574    585     1   109.7500473 328.025600
    585    574    586     1   110.5600475 386.601600
    587    586    589     1   108.7700466 392.459200
    587    586    588     1   107.5800459 329.699200
    588    586    589     1   108.7700466 392.459200
    589    591    593     1   106.5500460 417.563200
    595    597    598     1   108.8800464 416.726400
    595    597    600     1   108.8800464 416.726400
    596    595    597     1   117.6800502 383.254400
    597    599    601     1   110.5600475 386.601600
    597    599    602     1   110.5600475 386.601600
    598    597    599     1   109.5600471 388.275200
    598    597    600     1   108.4600466 328.025600
    599    597    600     1   109.5600471 388.275200
    599    603    624     1   110.1100470 384.091200
    601    599    603     1   108.0100461 406.684800
    601    599    602     1   109.7500473 328.025600
    602    599    603     1   108.0100461 406.684800
    603    604    614     1   108.0100461 406.684800
    603    604    615     1   108.0100461 406.684800
    603    605    606     1   108.0100461 406.684800
    603    605    608     1   108.0100461 406.684800
    604    603    624     1   110.1100470 384.091200
    604    616    617     1   109.8000471 387.438400
    604    616    618     1   109.8000471 387.438400
    605    603    624     1   110.1100470 384.091200
    605    607    609     1   109.8000471 387.438400
    605    607    610     1   109.8000471 387.438400
    606    605    607     1   110.5600475 386.601600
    606    605    608     1   109.7500473 328.025600
    607    605    608     1   110.5600475 386.601600
    609    607    611     1   108.7700466 392.459200
    609    607    610     1   107.5800459 329.699200
    610    607    611     1   108.7700466 392.459200
    611    612    622     1   106.5500460 417.563200
    614    604    616     1   110.5600475 386.601600
    614    604    615     1   109.7500473 328.025600
    615    604    616     1   110.5600475 386.601600
    617    616    619     1   108.7700466 392.459200
    617    616    618     1   107.5800459 329.699200
    618    616    619     1   108.7700466 392.459200
    619    621    623     1   106.5500460 417.563200
    625    627    628     1   108.8800464 416.726400
    625    627    630     1   108.8800464 416.726400
    626    625    627     1   117.6800502 383.254400
    627    629    631     1   110.5600475 386.601600
    627    629    632     1   110.5600475 386.601600
    628    627    629     1   109.5600471 388.275200
    628    627    630     1   108.4600466 328.025600
    629    633    654     1   110.1100470 384.091200
    629    627    630     1   109.5600471 388.275200
    631    629    633     1   108.0100461 406.684800
    631    629    632     1   109.7500473 328.025600
    632    629    633     1   108.0100461 406.684800
    633    634    644     1   108.0100461 406.684800
    633    634    645     1   108.0100461 406.684800
    633    635    636     1   108.0100461 406.684800
    633    635    638     1   108.0100461 406.684800
    634    646    647     1   109.8000471 387.438400
    634    646    648     1   109.8000471 387.438400
    634    633    654     1   110.1100470 384.091200
    635    637    639     1   109.8000471 387.438400
    635    637    640     1   109.8000471 387.438400
    635    633    654     1   110.1100470 384.091200
    636    635    637     1   110.5600475 386.601600
    636    635    638     1   109.7500473 328.025600
    637    635    638     1   110.5600475 386.601600
    639    637    641     1   108.7700466 392.459200
    639    637    640     1   107.5800459 329.699200
    640    637    641     1   108.7700466 392.459200
    641    642    652     1   106.5500460 417.563200
    644    634    646     1   110.5600475 386.601600
    644    634    645     1   109.7500473 328.025600
    645    634    646     1   110.5600475 386.601600
    647    646    649     1   108.7700466 392.459200
    647    646    648     1   107.5800459 329.699200
    648    646    649     1   108.7700466 392.459200
    649    651    653     1   106.5500460 417.563200
    655    657    658     1   108.8800464 416.726400
    655    657    660     1   108.8800464 416.726400
    656    655    657     1   117.6800502 383.254400
    657    659    661     1   110.5600475 386.601600
    657    659    662     1   110.5600475 386.601600
    658    657    659     1   109.5600471 388.275200
    658    657    660     1   108.4600466 328.025600
    659    657    660     1   109.5600471 388.275200
    659    663    684     1   110.1100470 384.091200
    661    659    663     1   108.0100461 406.684800
    661    659    662     1   109.7500473 328.025600
    662    659    663     1   108.0100461 406.684800
    663    664    674     1   108.0100461 406.684800
    663    664    675     1   108.0100461 406.684800
    663    665    666     1   108.0100461 406.684800
    663    665    668     1   108.0100461 406.684800
    664    663    684     1   110.1100470 384.091200
    664    676    677     1   109.8000471 387.438400
    664    676    678     1   109.8000471 387.438400
    665    663    684     1   110.1100470 384.091200
    665    667    669     1   109.8000471 387.438400
    665    667    670     1   109.8000471 387.438400
    666    665    667     1   110.5600475 386.601600
    666    665    668     1   109.7500473 328.025600
    667    665    668     1   110.5600475 386.601600
    669    667    671     1   108.7700466 392.459200
    669    667    670     1   107.5800459 329.699200
    670    667    671     1   108.7700466 392.459200
    671    672    682     1   106.5500460 417.563200
    674    664    676     1   110.5600475 386.601600
    674    664    675     1   109.7500473 328.025600
    675    664    676     1   110.5600475 386.601600
    677    676    679     1   108.7700466 392.459200
    677    676    678     1   107.5800459 329.699200
    678    676    679     1   108.7700466 392.459200
    679    681    683     1   106.5500460 417.563200
    685    687    688     1   108.8800464 416.726400
    685    687    690     1   108.8800464 416.726400
    686    685    687     1   117.6800502 383.254400
    687    689    691     1   110.5600475 386.601600
    687    689    692     1   110.5600475 386.601600
    688    687    689     1   109.5600471 388.275200
    688    687    690     1   108.4600466 328.025600
    689    693    714     1   110.1100470 384.091200
    689    687    690     1   109.5600471 388.275200
    691    689    693     1   108.0100461 406.684800
    691    689    692     1   109.7500473 328.025600
    692    689    693     1   108.0100461 406.684800
    693    694    704     1   108.0100461 406.684800
    693    694    705     1   108.0100461 406.684800
    693    695    696     1   108.0100461 406.684800
    693    695    698     1   108.0100461 406.684800
    694    706    707     1   109.8000471 387.438400
    694    706    708     1   109.8000471 387.438400
    694    693    714     1   110.1100470 384.091200
    695    697    699     1   109.8000471 387.438400
    695    697    700     1   109.8000471 387.438400
    695    693    714     1   110.1100470 384.091200
    696    695    697     1   110.5600475 386.601600
    696    695    698     1   109.7500473 328.025600
    697    695    698     1   110.5600475 386.601600
    699    697    701     1   108.7700466 392.459200
    699    697    700     1   107.5800459 329.699200
    700    697    701     1   108.7700466 392.459200
    701    702    712     1   106.5500460 417.563200
    704    694    706     1   110.5600475 386.601600
    704    694    705     1   109.7500473 328.025600
    705    694    706     1   110.5600475 386.601600
    707    706    709     1   108.7700466 392.459200
    707    706    708     1   107.5800459 329.699200
    708    706    709     1   108.7700466 392.459200
    709    711    713     1   106.5500460 417.563200
    715    717    718     1   108.8800464 416.726400
    715    717    720     1   108.8800464 416.726400
    716    715    717     1   117.6800502 383.254400
    717    719    721     1   110.5600475 386.601600
    717    719    722     1   110.5600475 386.601600
    718    717    719     1   109.5600471 388.275200
    718    717    720     1   108.4600466 328.025600
    719    717    720     1   109.5600471 388.275200
    719    723    744     1   110.1100470 384.091200
    721    719    723     1   108.0100461 406.684800
    721    719    722     1   109.7500473 328.025600
    722    719    723     1   108.0100461 406.684800
    723    724    734     1   108.0100461 406.684800
    723    724    735     1   108.0100461 406.684800
    723    725    726     1   108.0100461 406.684800
    723    725    728     1   108.0100461 406.684800
    724    723    744     1   110.1100470 384.091200
    724    736    737     1   109.8000471 387.438400
    724    736    738     1   109.8000471 387.438400
    725    723    744     1   110.1100470 384.091200
    725    727    729     1   109.8000471 387.438400
    725    727    730     1   109.8000471 387.438400
    726    725    727     1   110.5600475 386.601600
    726    725    728     1   109.7500473 328.025600
    727    725    728     1   110.5600475 386.601600
    729    727    731     1   108.7700466 392.459200
    729    727    730     1   107.5800459 329.699200
    730    727    731     1   108.7700466 392.459200
    731    732    742     1   106.5500460 417.563200
    734    724    736     1   110.5600475 386.601600
    734    724    735     1   109.7500473 328.025600
    735    724    736     1   110.5600475 386.601600
    737    736    739     1   108.7700466 392.459200
    737    736    738     1   107.5800459 329.699200
    738    736    739     1   108.7700466 392.459200
    739    741    743     1   106.5500460 417.563200
    745    747    748     1   108.8800464 416.726400
    745    747    750     1   108.8800464 416.726400
    746    745    747     1   117.6800502 383.254400
    747    749    751     1   110.5600475 386.601600
    747    749    752     1   110.5600475 386.601600
    748    747    749     1   109.5600471 388.275200
    748    747    750     1   108.4600466 328.025600
    749    753    774     1   110.1100470 384.091200
    749    747    750     1   109.5600471 388.275200
    751    749    753     1   108.0100461 406.684800
    751    749    752     1   109.7500473 328.025600
    752    749    753     1   108.0100461 406.684800
    753    754    764     1   108.0100461 406.684800
    753    754    765     1   108.0100461 406.684800
    753    755    756     1   108.0100461 406.684800
    753    755    758     1   108.0100461 406.684800
    754    766    767     1   109.8000471 387.438400
    754    766    768     1   109.8000471 387.438400
    754    753    774     1   110.1100470 384.091200
    755    757    759     1   109.8000471 387.438400
    755    757    760     1   109.8000471 387.438400
    755    753    774     1   110.1100470 384.091200
    756    755    757     1   110.5600475 386.601600
    756    755    758     1   109.7500473 328.025600
    757    755    758     1   110.5600475 386.601600
    759    757    761     1   108.7700466 392.459200
    759    757    760     1   107.5800459 329.699200
    760    757    761     1   108.7700466 392.459200
    761    762    772     1   106.5500460 417.563200
    764    754    766     1   110.5600475 386.601600
    764    754    765     1   109.7500473 328.025600
    765    754    766     1   110.5600475 386.601600
    767    766    769     1   108.7700466 392.459200
    767    766    768     1   107.5800459 329.699200
    768    766    769     1   108.7700466 392.459200
    769    771    773     1   106.5500460 417.563200
    775    777    778     1   108.8800464 416.726400
    775    777    780     1   108.8800464 416.726400
    776    775    777     1   117.6800502 383.254400
    777    779    781     1   110.5600475 386.601600
    777    779    782     1   110.5600475 386.601600
    778    777    779     1   109.5600471 388.275200
    778    777    780     1   108.4600466 328.025600
    779    777    780     1   109.5600471 388.275200
    779    783    804     1   110.1100470 384.091200
    781    779    783     1   108.0100461 406.684800
    781    779    782     1   109.7500473 328.025600
    782    779    783     1   108.0100461 406.684800
    783    784    794     1   108.0100461 406.684800
    783    784    795     1   108.0100461 406.684800
    783    785    786     1   108.0100461 406.684800
    783    785    788     1   108.0100461 406.684800
    784    783    804     1   110.1100470 384.091200
    784    796    797     1   109.8000471 387.438400
    784    796    798     1   109.8000471 387.438400
    785    783    804     1   110.1100470 384.091200
    785    787    789     1   109.8000471 387.438400
    785    787    790     1   109.8000471 387.438400
    786    785    787     1   110.5600475 386.601600
    786    785    788     1   109.7500473 328.025600
    787    785    788     1   110.5600475 386.601600
    789    787    791     1   108.7700466 392.459200
    789    787    790     1   107.5800459 329.699200
    790    787    791     1   108.7700466 392.459200
    791    792    802     1   106.5500460 417.563200
    794    784    796     1   110.5600475 386.601600
    794    784    795     1   109.7500473 328.025600
    795    784    796     1   110.5600475 386.601600
    797    796    799     1   108.7700466 392.459200
    797    796    798     1   107.5800459 329.699200
    798    796    799     1   108.7700466 392.459200
    799    801    803     1   106.5500460 417.563200
    805    807    808     1   108.8800464 416.726400
    805    807    810     1   108.8800464 416.726400
    806    805    807     1   117.6800502 383.254400
    807    809    811     1   110.5600475 386.601600
    807    809    812     1   110.5600475 386.601600
    808    807    809     1   109.5600471 388.275200
    808    807    810     1   108.4600466 328.025600
    809    813    834     1   110.1100470 384.091200
    809    807    810     1   109.5600471 388.275200
    811    809    813     1   108.0100461 406.684800
    811    809    812     1   109.7500473 328.025600
    812    809    813     1   108.0100461 406.684800
    813    814    824     1   108.0100461 406.684800
    813    814    825     1   108.0100461 406.684800
    813    815    816     1   108.0100461 406.684800
    813    815    818     1   108.0100461 406.684800
    814    826    827     1   109.8000471 387.438400
    814    826    828     1   109.8000471 387.438400
    814    813    834     1   110.1100470 384.091200
    815    817    819     1   109.8000471 387.438400
    815    817    820     1   109.8000471 387.438400
    815    813    834     1   110.1100470 384.091200
    816    815    817     1   110.5600475 386.601600
    816    815    818     1   109.7500473 328.025600
    817    815    818     1   110.5600475 386.601600
    819    817    821     1   108.7700466 392.459200
    819    817    820     1   107.5800459 329.699200
    820    817    821     1   108.7700466 392.459200
    821    822    832     1   106.5500460 417.563200
    824    814    826     1   110.5600475 386.601600
    824    814    825     1   109.7500473 328.025600
    825    814    826     1   110.5600475 386.601600
    827    826    829     1   108.7700466 392.459200
    827    826    828     1   107.5800459 329.699200
    828    826    829     1   108.7700466 392.459200
    829    831    833     1   106.5500460 417.563200

[ dihedrals ]
;    ai     aj     ak     al funct         c0         c1         c2         c3         c4         c5
      1      2      3      4     1  0.0000000  0.6508444  3
      1      7     13     14     1  0.0000000  0.6508444  3
      1      8     15     16     1  0.0000000  0.6508444  3
      2      1      7     13     1  0.0000000  0.6508444  3
      2      1      8     15     1  0.0000000  0.6508444  3
      2      3      4      5     1  0.0000000  0.6508444  3
      2      3      4      6     1  0.0000000  0.6508444  3
      7      1      2      3     1  0.0000000  0.6508444  3
      8      1      2      3     1  0.0000000  0.6508444  3
      3      4      5     11     1  0.0000000  0.6508444  3
      3      4      6      9     1  0.0000000  0.6508444  3
      4      5     11     12     1  0.0000000  0.6508444  3
      4      6      9     10     1  0.0000000  0.6508444  3
      5      4      6      9     1  0.0000000  0.6508444  3
      5     11     12     17     1  180.0000771  0.0000000  2
      5     11     12     78     1  0.0000000  0.2928800  2
      5     11     12     78     1  0.0000000  0.4184000  4
      6      4      5     11     1  0.0000000  0.6508444  3
      6      9     10     18     1  180.0000771  0.0000000  2
      6      9     10     52     1  0.0000000  0.2928800  2
      6      9     10     52     1  0.0000000  0.4184000  4
      7      1      8     15     1  0.0000000  0.6508444  3
      7     13     14     20     1  180.0000771  0.0000000  2
      7     13     14    104     1  0.0000000  0.2928800  2
      7     13     14    104     1  0.0000000  0.4184000  4
      8      1      7     13     1  0.0000000  0.6508444  3
      8     15     16     19     1  180.0000771  0.0000000  2
      8     15     16    130     1  0.0000000  0.2928800  2
      8     15     16    130     1  0.0000000  0.4184000  4
      9     10     52     51     1  180.0000771  6.2760000  1
      9     10     52     51     1  0.0000000  0.0000000  2
     10     52     51     50     1  0.0000000  2.2175200  1
     10     52     51     50     1  0.0000000  0.0000000  2
     10     52     51     50     1  180.0000771  0.6276000  3
     10     52     51     50     1  180.0000771  2.0920000  4
     11     12     78     77     1  180.0000771  6.2760000  1
     11     12     78     77     1  0.0000000  0.0000000  2
     12     78     77     76     1  0.0000000  2.2175200  1
     12     78     77     76     1  0.0000000  0.0000000  2
     12     78     77     76     1  180.0000771  0.6276000  3
     12     78     77     76     1  180.0000771  2.0920000  4
     13     14    104    103     1  180.0000771  6.2760000  1
     13     14    104    103     1  0.0000000  0.0000000  2
     14    104    103    102     1  0.0000000  2.2175200  1
     14    104    103    102     1  0.0000000  0.0000000  2
     14    104    103    102     1  180.0000771  0.6276000  3
     14    104    103    102     1  180.0000771  2.0920000  4
     15     16    130    129     1  180.0000771  6.2760000  1
     15     16    130    129     1  0.0000000  0.0000000  2
     16    130    129    128     1  0.0000000  2.2175200  1
     16    130    129    128     1  0.0000000  0.0000000  2
     16    130    129    128     1  180.0000771  0.6276000  3
     16    130    129    128     1  180.0000771  2.0920000  4
     17     12     78     77     1  180.0000771  10.4600000  2
     18     10     52     51     1  180.0000771  10.4600000  2
     19     16    130    129     1  180.0000771  10.4600000  2
     20     14    104    103     1  180.0000771  10.4600000  2
     43     44     46     47     1  0.0000000  0.6508444  3
     43     45     48     49     1  0.0000000  0.6508444  3
     43     50     51     52     1  0.0000000  0.6508444  3
     44     43     45     48     1  0.0000000  0.6508444  3
     44     43     50     51     1  0.0000000  0.6508444  3
     44     46     47     53     1  180.0000771  0.0000000  2
     44     46     47    156     1  0.0000000  0.2928800  2
     44     46     47    156     1  0.0000000  0.4184000  4
     45     43     44     46     1  0.0000000  0.6508444  3
     45     43     50     51     1  0.0000000  0.6508444  3
     45     48     49     54     1  180.0000771  0.0000000  2
     45     48     49    182     1  0.0000000  0.2928800  2
     45     48     49    182     1  0.0000000  0.4184000  4
     46     44     43     50     1  0.0000000  0.6508444  3
     46     47    156    155     1  180.0000771  6.2760000  1
     46     47    156    155     1  0.0000000  0.0000000  2
     47    156    155    154     1  0.0000000  2.2175200  1
     47    156    155    154     1  0.0000000  0.0000000  2
     47    156    155    154     1  180.0000771  0.6276000  3
     47    156    155    154     1  180.0000771  2.0920000  4
     48     45     43     50     1  0.0000000  0.6508444  3
     48     49    182    181     1  180.0000771  6.2760000  1
     48     49    182    181     1  0.0000000  0.0000000  2
     49    182    181    180     1  0.0000000  2.2175200  1
     49    182    181    180     1  0.0000000  0.0000000  2
     49    182    181    180     1  180.0000771  0.6276000  3
     49    182    181    180     1  180.0000771  2.0920000  4
     53     47    156    155     1  180.0000771  10.4600000  2
     54     49    182    181     1  180.0000771  10.4600000  2
     69     70     72     73     1  0.0000000  0.6508444  3
     69     71     74     75     1  0.0000000  0.6508444  3
     69     76     77     78     1  0.0000000  0.6508444  3
     70     69     71     74     1  0.0000000  0.6508444  3
     70     69     76     77     1  0.0000000  0.6508444  3
     70     72     73     79     1  180.0000771  0.0000000  2
     70     72     73    208     1  0.0000000  0.2928800  2
     70     72     73    208     1  0.0000000  0.4184000  4
     71     69     70     72     1  0.0000000  0.6508444  3
     71     69     76     77     1  0.0000000  0.6508444  3
     71     74     75     80     1  180.0000771  0.0000000  2
     71     74     75    234     1  0.0000000  0.2928800  2
     71     74     75    234     1  0.0000000  0.4184000  4
     72     70     69     76     1  0.0000000  0.6508444  3
     72     73    208    207     1  180.0000771  6.2760000  1
     72     73    208    207     1  0.0000000  0.0000000  2
     73    208    207    206     1  0.0000000  2.2175200  1
     73    208    207    206     1  0.0000000  0.0000000  2
     73    208    207    206     1  180.0000771  0.6276000  3
     73    208    207    206     1  180.0000771  2.0920000  4
     74     71     69     76     1  0.0000000  0.6508444  3
     74     75    234    233     1  180.0000771  6.2760000  1
     74     75    234    233     1  0.0000000  0.0000000  2
     75    234    233    232     1  0.0000000  2.2175200  1
     75    234    233    232     1  0.0000000  0.0000000  2
     75    234    233    232     1  180.0000771  0.6276000  3
     75    234    233    232     1  180.0000771  2.0920000  4
     79     73    208    207     1  180.0000771  10.4600000  2
     80     75    234    233     1  180.0000771  10.4600000  2
     95     96     98     99     1  0.0000000  0.6508444  3
     95     97    100    101     1  0.0000000  0.6508444  3
     95    102    103    104     1  0.0000000  0.6508444  3
     96     95     97    100     1  0.0000000  0.6508444  3
     96     95    102    103     1  0.0000000  0.6508444  3
     96     98     99    105     1  180.0000771  0.0000000  2
     96     98     99    260     1  0.0000000  0.2928800  2
     96     98     99    260     1  0.0000000  0.4184000  4
     97     95     96     98     1  0.0000000  0.6508444  3
     97     95    102    103     1  0.0000000  0.6508444  3
     97    100    101    106     1  180.0000771  0.0000000  2
     97    100    101    286     1  0.0000000  0.2928800  2
     97    100    101    286     1  0.0000000  0.4184000  4
     98     96     95    102     1  0.0000000  0.6508444  3
     98     99    260    259     1  180.0000771  6.2760000  1
     98     99    260    259     1  0.0000000  0.0000000  2
     99    260    259    258     1  0.0000000  2.2175200  1
     99    260    259    258     1  0.0000000  0.0000000  2
     99    260    259    258     1  180.0000771  0.6276000  3
     99    260    259    258     1  180.0000771  2.0920000  4
    100     97     95    102     1  0.0000000  0.6508444  3
    100    101    286    285     1  180.0000771  6.2760000  1
    100    101    286    285     1  0.0000000  0.0000000  2
    101    286    285    284     1  0.0000000  2.2175200  1
    101    286    285    284     1  0.0000000  0.0000000  2
    101    286    285    284     1  180.0000771  0.6276000  3
    101    286    285    284     1  180.0000771  2.0920000  4
    105     99    260    259     1  180.0000771  10.4600000  2
    106    101    286    285     1  180.0000771  10.4600000  2
    121    122    124    125     1  0.0000000  0.6508444  3
    121    123    126    127     1  0.0000000  0.6508444  3
    121    128    129    130     1  0.0000000  0.6508444  3
    122    121    123    126     1  0.0000000  0.6508444  3
    122    121    128    129     1  0.0000000  0.6508444  3
    122    124    125    131     1  180.0000771  0.0000000  2
    122    124    125    312     1  0.0000000  0.2928800  2
    122    124    125    312     1  0.0000000  0.4184000  4
    123    121    122    124     1  0.0000000  0.6508444  3
    123    121    128    129     1  0.0000000  0.6508444  3
    123    126    127    132     1  180.0000771  0.0000000  2
    123    126    127    338     1  0.0000000  0.2928800  2
    123    126    127    338     1  0.0000000  0.4184000  4
    124    122    121    128     1  0.0000000  0.6508444  3
    124    125    312    311     1  180.0000771  6.2760000  1
    124    125    312    311     1  0.0000000  0.0000000  2
    125    312    311    310     1  0.0000000  2.2175200  1
    125    312    311    310     1  0.0000000  0.0000000  2
    125    312    311    310     1  180.0000771  0.6276000  3
    125    312    311    310     1  180.0000771  2.0920000  4
    126    123    121    128     1  0.0000000  0.6508444  3
    126    127    338    337     1  180.0000771  6.2760000  1
    126    127    338    337     1  0.0000000  0.0000000  2
    127    338    337    336     1  0.0000000  2.2175200  1
    127    338    337    336     1  0.0000000  0.0000000  2
    127    338    337    336     1  180.0000771  0.6276000  3
    127    338    337    336     1  180.0000771  2.0920000  4
    131    125    312    311     1  180.0000771  10.4600000  2
    132    127    338    337     1  180.0000771  10.4600000  2
    147    148    150    151     1  0.0000000  0.6508444  3
    147    149    152    153     1  0.0000000  0.6508444  3
    147    154    155    156     1  0.0000000  0.6508444  3
    148    147    149    152     1  0.0000000  0.6508444  3
    148    147    154    155     1  0.0000000  0.6508444  3
    148    150    151    355     1  0.0000000  0.2928800  2
    148    150    151    355     1  0.0000000  0.4184000  4
    148    150    151    157     1  180.0000771  0.0000000  2
    149    147    148    150     1  0.0000000  0.6508444  3
    149    147    154    155     1  0.0000000  0.6508444  3
    149    152    153    158     1  180.0000771  0.0000000  2
    149    152    153    385     1  0.0000000  0.2928800  2
    149    152    153    385     1  0.0000000  0.4184000  4
    150    148    147    154     1  0.0000000  0.6508444  3
    150    151    355    357     1  180.0000771  6.2760000  1
    150    151    355    357     1  0.0000000  0.0000000  2
    151    355    357    359     1  0.0000000  2.2175200  1
    151    355    357    359     1  0.0000000  0.0000000  2
    151    355    357    359     1  180.0000771  0.6276000  3
    151    355    357    359     1  180.0000771  2.0920000  4
    152    149    147    154     1  0.0000000  0.6508444  3
    152    153    385    387     1  180.0000771  6.2760000  1
    152    153    385    387     1  0.0000000  0.0000000  2
    153    385    387    389     1  0.0000000  2.2175200  1
    153    385    387    389     1  0.0000000  0.0000000  2
    153    385    387    389     1  180.0000771  0.6276000  3
    153    385    387    389     1  180.0000771  2.0920000  4
    157    151    355    357     1  180.0000771  10.4600000  2
    158    153    385    387     1  180.0000771  10.4600000  2
    173    174    176    177     1  0.0000000  0.6508444  3
    173    175    178    179     1  0.0000000  0.6508444  3
    173    180    181    182     1  0.0000000  0.6508444  3
    174    173    175    178     1  0.0000000  0.6508444  3
    174    173    180    181     1  0.0000000  0.6508444  3
    174    176    177    415     1  0.0000000  0.2928800  2
    174    176    177    415     1  0.0000000  0.4184000  4
    174    176    177    183     1  180.0000771  0.0000000  2
    175    173    174    176     1  0.0000000  0.6508444  3
    175    173    180    181     1  0.0000000  0.6508444  3
    175    178    179    184     1  180.0000771  0.0000000  2
    175    178    179    445     1  0.0000000  0.2928800  2
    175    178    179    445     1  0.0000000  0.4184000  4
    176    174    173    180     1  0.0000000  0.6508444  3
    176    177    415    417     1  180.0000771  6.2760000  1
    176    177    415    417     1  0.0000000  0.0000000  2
    177    415    417    419     1  0.0000000  2.2175200  1
    177    415    417    419     1  0.0000000  0.0000000  2
    177    415    417    419     1  180.0000771  0.6276000  3
    177    415    417    419     1  180.0000771  2.0920000  4
    178    175    173    180     1  0.0000000  0.6508444  3
    178    179    445    447     1  180.0000771  6.2760000  1
    178    179    445    447     1  0.0000000  0.0000000  2
    179    445    447    449     1  0.0000000  2.2175200  1
    179    445    447    449     1  0.0000000  0.0000000  2
    179    445    447    449     1  180.0000771  0.6276000  3
    179    445    447    449     1  180.0000771  2.0920000  4
    183    177    415    417     1  180.0000771  10.4600000  2
    184    179    445    447     1  180.0000771  10.4600000  2
    199    200    202    203     1  0.0000000  0.6508444  3
    199    201    204    205     1  0.0000000  0.6508444  3
    199    206    207    208     1  0.0000000  0.6508444  3
    200    199    201    204     1  0.0000000  0.6508444  3
    200    199    206    207     1  0.0000000  0.6508444  3
    200    202    203    475     1  0.0000000  0.2928800  2
    200    202    203    475     1  0.0000000  0.4184000  4
    200    202    203    209     1  180.0000771  0.0000000  2
    201    199    200    202     1  0.0000000  0.6508444  3
    201    199    206    207     1  0.0000000  0.6508444  3
    201    204    205    210     1  180.0000771  0.0000000  2
    201    204    205    505     1  0.0000000  0.2928800  2
    201    204    205    505     1  0.0000000  0.4184000  4
    202    200    199    206     1  0.0000000  0.6508444  3
    202    203    475    477     1  180.0000771  6.2760000  1
    202    203    475    477     1  0.0000000  0.0000000  2
    203    475    477    479     1  0.0000000  2.2175200  1
    203    475    477    479     1  0.0000000  0.0000000  2
    203    475    477    479     1  180.0000771  0.6276000  3
    203    475    477    479     1  180.0000771  2.0920000  4
    204    201    199    206     1  0.0000000  0.6508444  3
    204    205    505    507     1  180.0000771  6.2760000  1
    204    205    505    507     1  0.0000000  0.0000000  2
    205    505    507    509     1  0.0000000  2.2175200  1
    205    505    507    509     1  0.0000000  0.0000000  2
    205    505    507    509     1  180.0000771  0.6276000  3
    205    505    507    509     1  180.0000771  2.0920000  4
    209    203    475    477     1  180.0000771  10.4600000  2
    210    205    505    507     1  180.0000771  10.4600000  2
    225    226    228    229     1  0.0000000  0.6508444  3
    225    227    230    231     1  0.0000000  0.6508444  3
    225    232    233    234     1  0.0000000  0.6508444  3
    226    225    227    230     1  0.0000000  0.6508444  3
    226    225    232    233     1  0.0000000  0.6508444  3
    226    228    229    535     1  0.0000000  0.2928800  2
    226    228    229    535     1  0.0000000  0.4184000  4
    226    228    229    235     1  180.0000771  0.0000000  2
    227    225    226    228     1  0.0000000  0.6508444  3
    227    225    232    233     1  0.0000000  0.6508444  3
    227    230    231    236     1  180.0000771  0.0000000  2
    227    230    231    565     1  0.0000000  0.2928800  2
    227    230    231    565     1  0.0000000  0.4184000  4
    228    226    225    232     1  0.0000000  0.6508444  3
    228    229    535    537     1  180.0000771  6.2760000  1
    228    229    535    537     1  0.0000000  0.0000000  2
    229    535    537    539     1  0.0000000  2.2175200  1
    229    535    537    539     1  0.0000000  0.0000000  2
    229    535    537    539     1  180.0000771  0.6276000  3
    229    535    537    539     1  180.0000771  2.0920000  4
    230    227    225    232     1  0.0000000  0.6508444  3
    230    231    565    567     1  180.0000771  6.2760000  1
    230    231    565    567     1  0.0000000  0.0000000  2
    231    565    567    569     1  0.0000000  2.2175200  1
    231    565    567    569     1  0.0000000  0.0000000  2
    231    565    567    569     1  180.0000771  0.6276000  3
    231    565    567    569     1  180.0000771  2.0920000  4
    235    229    535    537     1  180.0000771  10.4600000  2
    236    231    565    567     1  180.0000771  10.4600000  2
    251    252    254    255     1  0.0000000  0.6508444  3
    251    253    256    257     1  0.0000000  0.6508444  3
    251    258    259    260     1  0.0000000  0.6508444  3
    252    251    253    256     1  0.0000000  0.6508444  3
    252    251    258    259     1  0.0000000  0.6508444  3
    252    254    255    595     1  0.0000000  0.2928800  2
    252    254    255    595     1  0.0000000  0.4184000  4
    252    254    255    261     1  180.0000771  0.0000000  2
    253    251    252    254     1  0.0000000  0.6508444  3
    253    251    258    259     1  0.0000000  0.6508444  3
    253    256    257    262     1  180.0000771  0.0000000  2
    253    256    257    625     1  0.0000000  0.2928800  2
    253    256    257    625     1  0.0000000  0.4184000  4
    254    252    251    258     1  0.0000000  0.6508444  3
    254    255    595    597     1  180.0000771  6.2760000  1
    254    255    595    597     1  0.0000000  0.0000000  2
    255    595    597    599     1  0.0000000  2.2175200  1
    255    595    597    599     1  0.0000000  0.0000000  2
    255    595    597    599     1  180.0000771  0.6276000  3
    255    595    597    599     1  180.0000771  2.0920000  4
    256    253    251    258     1  0.0000000  0.6508444  3
    256    257    625    627     1  180.0000771  6.2760000  1
    256    257    625    627     1  0.0000000  0.0000000  2
    257    625    627    629     1  0.0000000  2.2175200  1
    257    625    627    629     1  0.0000000  0.0000000  2
    257    625    627    629     1  180.0000771  0.6276000  3
    257    625    627    629     1  180.0000771  2.0920000  4
    261    255    595    597     1  180.0000771  10.4600000  2
    262    257    625    627     1  180.0000771  10.4600000  2
    277    278    280    281     1  0.0000000  0.6508444  3
    277    279    282    283     1  0.0000000  0.6508444  3
    277    284    285    286     1  0.0000000  0.6508444  3
    278    277    279    282     1  0.0000000  0.6508444  3
    278    277    284    285     1  0.0000000  0.6508444  3
    278    280    281    655     1  0.0000000  0.2928800  2
    278    280    281    655     1  0.0000000  0.4184000  4
    278    280    281    287     1  180.0000771  0.0000000  2
    279    277    278    280     1  0.0000000  0.6508444  3
    279    277    284    285     1  0.0000000  0.6508444  3
    279    282    283    288     1  180.0000771  0.0000000  2
    279    282    283    685     1  0.0000000  0.2928800  2
    279    282    283    685     1  0.0000000  0.4184000  4
    280    278    277    284     1  0.0000000  0.6508444  3
    280    281    655    657     1  180.0000771  6.2760000  1
    280    281    655    657     1  0.0000000  0.0000000  2
    281    655    657    659     1  0.0000000  2.2175200  1
    281    655    657    659     1  0.0000000  0.0000000  2
    281    655    657    659     1  180.0000771  0.6276000  3
    281    655    657    659     1  180.0000771  2.0920000  4
    282    279    277    284     1  0.0000000  0.6508444  3
    282    283    685    687     1  180.0000771  6.2760000  1
    282    283    685    687     1  0.0000000  0.0000000  2
    283    685    687    689     1  0.0000000  2.2175200  1
    283    685    687    689     1  0.0000000  0.0000000  2
    283    685    687    689     1  180.0000771  0.6276000  3
    283    685    687    689     1  180.0000771  2.0920000  4
    287    281    655    657     1  180.0000771  10.4600000  2
    288    283    685    687     1  180.0000771  10.4600000  2
    303    304    306    307     1  0.0000000  0.6508444  3
    303    305    308    309     1  0.0000000  0.6508444  3
    303    310    311    312     1  0.0000000  0.6508444  3
    304    303    305    308     1  0.0000000  0.6508444  3
    304    303    310    311     1  0.0000000  0.6508444  3
    304    306    307    715     1  0.0000000  0.2928800  2
    304    306    307    715     1  0.0000000  0.4184000  4
    304    306    307    313     1  180.0000771  0.0000000  2
    305    303    304    306     1  0.0000000  0.6508444  3
    305    303    310    311     1  0.0000000  0.6508444  3
    305    308    309    314     1  180.0000771  0.0000000  2
    305    308    309    745     1  0.0000000  0.2928800  2
    305    308    309    745     1  0.0000000  0.4184000  4
    306    304    303    310     1  0.0000000  0.6508444  3
    306    307    715    717     1  180.0000771  6.2760000  1
    306    307    715    717     1  0.0000000  0.0000000  2
    307    715    717    719     1  0.0000000  2.2175200  1
    307    715    717    719     1  0.0000000  0.0000000  2
    307    715    717    719     1  180.0000771  0.6276000  3
    307    715    717    719     1  180.0000771  2.0920000  4
    308    305    303    310     1  0.0000000  0.6508444  3
    308    309    745    747     1  180.0000771  6.2760000  1
    308    309    745    747     1  0.0000000  0.0000000  2
    309    745    747    749     1  0.0000000  2.2175200  1
    309    745    747    749     1  0.0000000  0.0000000  2
    309    745    747    749     1  180.0000771  0.6276000  3
    309    745    747    749     1  180.0000771  2.0920000  4
    313    307    715    717     1  180.0000771  10.4600000  2
    314    309    745    747     1  180.0000771  10.4600000  2
    329    330    332    333     1  0.0000000  0.6508444  3
    329    331    334    335     1  0.0000000  0.6508444  3
    329    336    337    338     1  0.0000000  0.6508444  3
    330    329    331    334     1  0.0000000  0.6508444  3
    330    329    336    337     1  0.0000000  0.6508444  3
    330    332    333    775     1  0.0000000  0.2928800  2
    330    332    333    775     1  0.0000000  0.4184000  4
    330    332    333    339     1  180.0000771  0.0000000  2
    331    329    330    332     1  0.0000000  0.6508444  3
    331    329    336    337     1  0.0000000  0.6508444  3
    331    334    335    805     1  0.0000000  0.2928800  2
    331    334    335    805     1  0.0000000  0.4184000  4
    331    334    335    340     1  180.0000771  0.0000000  2
    332    330    329    336     1  0.0000000  0.6508444  3
    332    333    775    777     1  180.0000771  6.2760000  1
    332    333    775    777     1  0.0000000  0.0000000  2
    333    775    777    779     1  0.0000000  2.2175200  1
    333    775    777    779     1  0.0000000  0.0000000  2
    333    775    777    779     1  180.0000771  0.6276000  3
    333    775    777    779     1  180.0000771  2.0920000  4
    334    331    329    336     1  0.0000000  0.6508444  3
    334    335    805    807     1  180.0000771  6.2760000  1
    334    335    805    807     1  0.0000000  0.0000000  2
    335    805    807    809     1  0.0000000  2.2175200  1
    335    805    807    809     1  0.0000000  0.0000000  2
    335    805    807    809     1  180.0000771  0.6276000  3
    335    805    807    809     1  180.0000771  2.0920000  4
    339    333    775    777     1  180.0000771  10.4600000  2
    340    335    805    807     1  180.0000771  10.4600000  2
    355    357    359    363     1  0.0000000  0.6508444  3
    357    359    363    364     1  0.0000000  0.6508444  3
    357    359    363    365     1  0.0000000  0.6508444  3
    359    363    364    376     1  0.0000000  0.6508444  3
    359    363    365    367     1  0.0000000  0.6508444  3
    363    364    376    379     1  0.0000000  0.6508444  3
    363    365    367    371     1  0.0000000  0.6508444  3
    364    363    365    367     1  0.0000000  0.6508444  3
    364    376    379    380     1  180.0000771  0.0000000  2
    364    376    379    381     1  180.0000771  0.0000000  2
    365    363    364    376     1  0.0000000  0.6508444  3
    365    367    371    372     1  180.0000771  0.0000000  2
    365    367    371    373     1  180.0000771  0.0000000  2
    385    387    389    393     1  0.0000000  0.6508444  3
    387    389    393    394     1  0.0000000  0.6508444  3
    387    389    393    395     1  0.0000000  0.6508444  3
    389    393    394    406     1  0.0000000  0.6508444  3
    389    393    395    397     1  0.0000000  0.6508444  3
    393    394    406    409     1  0.0000000  0.6508444  3
    393    395    397    401     1  0.0000000  0.6508444  3
    394    406    409    410     1  180.0000771  0.0000000  2
    394    406    409    411     1  180.0000771  0.0000000  2
    394    393    395    397     1  0.0000000  0.6508444  3
    395    397    401    402     1  180.0000771  0.0000000  2
    395    397    401    403     1  180.0000771  0.0000000  2
    395    393    394    406     1  0.0000000  0.6508444  3
    415    417    419    423     1  0.0000000  0.6508444  3
    417    419    423    424     1  0.0000000  0.6508444  3
    417    419    423    425     1  0.0000000  0.6508444  3
    419    423    424    436     1  0.0000000  0.6508444  3
    419    423    425    427     1  0.0000000  0.6508444  3
    423    424    436    439     1  0.0000000  0.6508444  3
    423    425    427    431     1  0.0000000  0.6508444  3
    424    423    425    427     1  0.0000000  0.6508444  3
    424    436    439    440     1  180.0000771  0.0000000  2
    424    436    439    441     1  180.0000771  0.0000000  2
    425    423    424    436     1  0.0000000  0.6508444  3
    425    427    431    432     1  180.0000771  0.0000000  2
    425    427    431    433     1  180.0000771  0.0000000  2
    445    447    449    453     1  0.0000000  0.6508444  3
    447    449    453    454     1  0.0000000  0.6508444  3
    447    449    453    455     1  0.0000000  0.6508444  3
    449    453    454    466     1  0.0000000  0.6508444  3
    449    453    455    457     1  0.0000000  0.6508444  3
    453    454    466    469     1  0.0000000  0.6508444  3
    453    455    457    461     1  0.0000000  0.6508444  3
    454    466    469    470     1  180.0000771  0.0000000  2
    454    466    469    471     1  180.0000771  0.0000000  2
    454    453    455    457     1  0.0000000  0.6508444  3
    455    457    461    462     1  180.0000771  0.0000000  2
    455    457    461    463     1  180.0000771  0.0000000  2
    455    453    454    466     1  0.0000000  0.6508444  3
    475    477    479    483     1  0.0000000  0.6508444  3
    477    479    483    484     1  0.0000000  0.6508444  3
    477    479    483    485     1  0.0000000  0.6508444  3
    479    483    484    496     1  0.0000000  0.6508444  3
    479    483    485    487     1  0.0000000  0.6508444  3
    483    484    496    499     1  0.0000000  0.6508444  3
    483    485    487    491     1  0.0000000  0.6508444  3
    484    483    485    487     1  0.0000000  0.6508444  3
    484    496    499    500     1  180.0000771  0.0000000  2
    484    496    499    501     1  180.0000771  0.0000000  2
    485    483    484    496     1  0.0000000  0.6508444  3
    485    487    491    492     1  180.0000771  0.0000000  2
    485    487    491    493     1  180.0000771  0.0000000  2
    505    507    509    513     1  0.0000000  0.6508444  3
    507    509    513    514     1  0.0000000  0.6508444  3
    507    509    513    515     1  0.0000000  0.6508444  3
    509    513    514    526     1  0.0000000  0.6508444  3
    509    513    515    517     1  0.0000000  0.6508444  3
    513    514    526    529     1  0.0000000  0.6508444  3
    513    515    517    521     1  0.0000000  0.6508444  3
    514    526    529    530     1  180.0000771  0.0000000  2
    514    526    529    531     1  180.0000771  0.0000000  2
    514    513    515    517     1  0.0000000  0.6508444  3
    515    517    521    522     1  180.0000771  0.0000000  2
    515    517    521    523     1  180.0000771  0.0000000  2
    515    513    514    526     1  0.0000000  0.6508444  3
    535    537    539    543     1  0.0000000  0.6508444  3
    537    539    543    544     1  0.0000000  0.6508444  3
    537    539    543    545     1  0.0000000  0.6508444  3
    539    543    544    556     1  0.0000000  0.6508444  3
    539    543    545    547     1  0.0000000  0.6508444  3
    543    544    556    559     1  0.0000000  0.6508444  3
    543    545    547    551     1  0.0000000  0.6508444  3
    544    543    545    547     1  0.0000000  0.6508444  3
    544    556    559    560     1  180.0000771  0.0000000  2
    544    556    559    561     1  180.0000771  0.0000000  2
    545    543    544    556     1  0.0000000  0.6508444  3
    545    547    551    552     1  180.0000771  0.0000000  2
    545    547    551    553     1  180.0000771  0.0000000  2
    565    567    569    573     1  0.0000000  0.6508444  3
    567    569    573    574     1  0.0000000  0.6508444  3
    567    569    573    575     1  0.0000000  0.6508444  3
    569    573    574    586     1  0.0000000  0.6508444  3
    569    573    575    577     1  0.0000000  0.6508444  3
    573    574    586    589     1  0.0000000  0.6508444  3
    573    575    577    581     1  0.0000000  0.6508444  3
    574    586    589    590     1  180.0000771  0.0000000  2
    574    586    589    591     1  180.0000771  0.0000000  2
    574    573    575    577     1  0.0000000  0.6508444  3
    575    577    581    582     1  180.0000771  0.0000000  2
    575    577    581    583     1  180.0000771  0.0000000  2
    575    573    574    586     1  0.0000000  0.6508444  3
    595    597    599    603     1  0.0000000  0.6508444  3
    597    599    603    604     1  0.0000000  0.6508444  3
    597    599    603    605     1  0.0000000  0.6508444  3
    599    603    604    616     1  0.0000000  0.6508444  3
    599    603    605    607     1  0.0000000  0.6508444  3
    603    604    616    619     1  0.0000000  0.6508444  3
    603    605    607    611     1  0.0000000  0.6508444  3
    604    603    605    607     1  0.0000000  0.6508444  3
    604    616    619    620     1  180.0000771  0.0000000  2
    604    616    619    621     1  180.0000771  0.0000000  2
    605    603    604    616     1  0.0000000  0.6508444  3
    605    607    611    612     1  180.0000771  0.0000000  2
    605    607    611    613     1  180.0000771  0.0000000  2
    625    627    629    633     1  0.0000000  0.6508444  3
    627    629    633    634     1  0.0000000  0.6508444  3
    627    629    633    635     1  0.0000000  0.6508444  3
    629    633    634    646     1  0.0000000  0.6508444  3
    629    633    635    637     1  0.0000000  0.6508444  3
    633    634    646    649     1  0.0000000  0.6508444  3
    633    635    637    641     1  0.0000000  0.6508444  3
    634    646    649    650     1  180.0000771  0.0000000  2
    634    646    649    651     1  180.0000771  0.0000000  2
    634    633    635    637     1  0.0000000  0.6508444  3
    635    637    641    642     1  180.0000771  0.0000000  2
    635    637    641    643     1  180.0000771  0.0000000  2
    635    633    634    646     1  0.0000000  0.6508444  3
    655    657    659    663     1  0.0000000  0.6508444  3
    657    659    663    664     1  0.0000000  0.6508444  3
    657    659    663    665     1  0.0000000  0.6508444  3
    659    663    664    676     1  0.0000000  0.6508444  3
    659    663    665    667     1  0.0000000  0.6508444  3
    663    664    676    679     1  0.0000000  0.6508444  3
    663    665    667    671     1  0.0000000  0.6508444  3
    664    663    665    667     1  0.0000000  0.6508444  3
    664    676    679    680     1  180.0000771  0.0000000  2
    664    676    679    681     1  180.0000771  0.0000000  2
    665    663    664    676     1  0.0000000  0.6508444  3
    665    667    671    672     1  180.0000771  0.0000000  2
    665    667    671    673     1  180.0000771  0.0000000  2
    685    687    689    693     1  0.0000000  0.6508444  3
    687    689    693    694     1  0.0000000  0.6508444  3
    687    689    693    695     1  0.0000000  0.6508444  3
    689    693    694    706     1  0.0000000  0.6508444  3
    689    693    695    697     1  0.0000000  0.6508444  3
    693    694    706    709     1  0.0000000  0.6508444  3
    693    695    697    701     1  0.0000000  0.6508444  3
    694    706    709    710     1  180.0000771  0.0000000  2
    694    706    709    711     1  180.0000771  0.0000000  2
    694    693    695    697     1  0.0000000  0.6508444  3
    695    697    701    702     1  180.0000771  0.0000000  2
    695    697    701    703     1  180.0000771  0.0000000  2
    695    693    694    706     1  0.0000000  0.6508444  3
    715    717    719    723     1  0.0000000  0.6508444  3
    717    719    723    724     1  0.0000000  0.6508444  3
    717    719    723    725     1  0.0000000  0.6508444  3
    719    723    724    736     1  0.0000000  0.6508444  3
    719    723    725    727     1  0.0000000  0.6508444  3
    723    724    736    739     1  0.0000000  0.6508444  3
    723    725    727    731     1  0.0000000  0.6508444  3
    724    723    725    727     1  0.0000000  0.6508444  3
    724    736    739    740     1  180.0000771  0.0000000  2
    724    736    739    741     1  180.0000771  0.0000000  2
    725    723    724    736     1  0.0000000  0.6508444  3
    725    727    731    732     1  180.0000771  0.0000000  2
    725    727    731    733     1  180.0000771  0.0000000  2
    745    747    749    753     1  0.0000000  0.6508444  3
    747    749    753    754     1  0.0000000  0.6508444  3
    747    749    753    755     1  0.0000000  0.6508444  3
    749    753    754    766     1  0.0000000  0.6508444  3
    749    753    755    757     1  0.0000000  0.6508444  3
    753    754    766    769     1  0.0000000  0.6508444  3
    753    755    757    761     1  0.0000000  0.6508444  3
    754    766    769    770     1  180.0000771  0.0000000  2
    754    766    769    771     1  180.0000771  0.0000000  2
    754    753    755    757     1  0.0000000  0.6508444  3
    755    757    761    762     1  180.0000771  0.0000000  2
    755    757    761    763     1  180.0000771  0.0000000  2
    755    753    754    766     1  0.0000000  0.6508444  3
    775    777    779    783     1  0.0000000  0.6508444  3
    777    779    783    784     1  0.0000000  0.6508444  3
    777    779    783    785     1  0.0000000  0.6508444  3
    779    783    784    796     1  0.0000000  0.6508444  3
    779    783    785    787     1  0.0000000  0.6508444  3
    783    784    796    799     1  0.0000000  0.6508444  3
    783    785    787    791     1  0.0000000  0.6508444  3
    784    783    785    787     1  0.0000000  0.6508444  3
    784    796    799    800     1  180.0000771  0.0000000  2
    784    796    799    801     1  180.0000771  0.0000000  2
    785    783    784    796     1  0.0000000  0.6508444  3
    785    787    791    792     1  180.0000771  0.0000000  2
    785    787    791    793     1  180.0000771  0.0000000  2
    805    807    809    813     1  0.0000000  0.6508444  3
    807    809    813    814     1  0.0000000  0.6508444  3
    807    809    813    815     1  0.0000000  0.6508444  3
    809    813    814    826     1  0.0000000  0.6508444  3
    809    813    815    817     1  0.0000000  0.6508444  3
    813    814    826    829     1  0.0000000  0.6508444  3
    813    815    817    821     1  0.0000000  0.6508444  3
    814    826    829    830     1  180.0000771  0.0000000  2
    814    826    829    831     1  180.0000771  0.0000000  2
    814    813    815    817     1  0.0000000  0.6508444  3
    815    817    821    822     1  180.0000771  0.0000000  2
    815    817    821    823     1  180.0000771  0.0000000  2
    815    813    814    826     1  0.0000000  0.6508444  3
      9     52     10     18     4  180.0000771  43.9320000  2
     11     78     12     17     4  180.0000771  43.9320000  2
     13    104     14     20     4  180.0000771  43.9320000  2
     15    130     16     19     4  180.0000771  43.9320000  2
     46    156     47     53     4  180.0000771  43.9320000  2
     48    182     49     54     4  180.0000771  43.9320000  2
     72    208     73     79     4  180.0000771  43.9320000  2
     74    234     75     80     4  180.0000771  43.9320000  2
     98    260     99    105     4  180.0000771  43.9320000  2
    100    286    101    106     4  180.0000771  43.9320000  2
    124    312    125    131     4  180.0000771  43.9320000  2
    126    338    127    132     4  180.0000771  43.9320000  2
    150    355    151    157     4  180.0000771  43.9320000  2
    152    385    153    158     4  180.0000771  43.9320000  2
    176    415    177    183     4  180.0000771  43.9320000  2
    178    445    179    184     4  180.0000771  43.9320000  2
    202    475    203    209     4  180.0000771  43.9320000  2
    204    505    205    210     4  180.0000771  43.9320000  2
    228    535    229    235     4  180.0000771  43.9320000  2
    230    565    231    236     4  180.0000771  43.9320000  2
    254    595    255    261     4  180.0000771  43.9320000  2
    256    625    257    262     4  180.0000771  43.9320000  2
    280    655    281    287     4  180.0000771  43.9320000  2
    282    685    283    288     4  180.0000771  43.9320000  2
    306    715    307    313     4  180.0000771  43.9320000  2
    308    745    309    314     4  180.0000771  43.9320000  2
    332    775    333    339     4  180.0000771  43.9320000  2
    334    805    335    340     4  180.0000771  43.9320000  2
    367    373    371    372     4  180.0000771  4.6024000  2
    376    380    379    381     4  180.0000771  4.6024000  2
    397    403    401    402     4  180.0000771  4.6024000  2
    406    410    409    411     4  180.0000771  4.6024000  2
    427    433    431    432     4  180.0000771  4.6024000  2
    436    440    439    441     4  180.0000771  4.6024000  2
    457    463    461    462     4  180.0000771  4.6024000  2
    466    470    469    471     4  180.0000771  4.6024000  2
    487    493    491    492     4  180.0000771  4.6024000  2
    496    500    499    501     4  180.0000771  4.6024000  2
    517    523    521    522     4  180.0000771  4.6024000  2
    526    530    529    531     4  180.0000771  4.6024000  2
    547    553    551    552     4  180.0000771  4.6024000  2
    556    560    559    561     4  180.0000771  4.6024000  2
    577    583    581    582     4  180.0000771  4.6024000  2
    586    590    589    591     4  180.0000771  4.6024000  2
    607    613    611    612     4  180.0000771  4.6024000  2
    616    620    619    621     4  180.0000771  4.6024000  2
    637    643    641    642     4  180.0000771  4.6024000  2
    646    650    649    651     4  180.0000771  4.6024000  2
    667    673    671    672     4  180.0000771  4.6024000  2
    676    680    679    681     4  180.0000771  4.6024000  2
    697    703    701    702     4  180.0000771  4.6024000  2
    706    710    709    711     4  180.0000771  4.6024000  2
    727    733    731    732     4  180.0000771  4.6024000  2
    736    740    739    741     4  180.0000771  4.6024000  2
    757    763    761    762     4  180.0000771  4.6024000  2
    766    770    769    771     4  180.0000771  4.6024000  2
    787    793    791    792     4  180.0000771  4.6024000  2
    796    800    799    801     4  180.0000771  4.6024000  2
    817    823    821    822     4  180.0000771  4.6024000  2
    826    830    829    831     4  180.0000771  4.6024000  2
      1      2      3     23     1  0.0000000  0.6508444  3
      1      2      3     24     1  0.0000000  0.6508444  3
      1      7     13     37     1  0.0000000  0.6508444  3
      1      7     13     38     1  0.0000000  0.6508444  3
      1      8     15     39     1  0.0000000  0.6508444  3
      1      8     15     40     1  0.0000000  0.6508444  3
      2      1      7     29     1  0.0000000  0.6508444  3
      2      1      7     30     1  0.0000000  0.6508444  3
      2      1      8     31     1  0.0000000  0.6508444  3
      2      1      8     32     1  0.0000000  0.6508444  3
      2      3      4     42     1  0.0000000  0.6508444  3
     41      1      2      3     1  0.0000000  0.6508444  3
      3      4      5     25     1  0.0000000  0.6508444  3
      3      4      5     26     1  0.0000000  0.6508444  3
      3      4      6     27     1  0.0000000  0.6508444  3
      3      4      6     28     1  0.0000000  0.6508444  3
      4      3      2     21     1  0.0000000  0.6508444  3
      4      3      2     22     1  0.0000000  0.6508444  3
      4      5     11     35     1  0.0000000  0.6508444  3
      4      5     11     36     1  0.0000000  0.6508444  3
      4      6      9     33     1  0.0000000  0.6508444  3
      4      6      9     34     1  0.0000000  0.6508444  3
      5      4      3     23     1  0.0000000  0.6508444  3
      5      4      3     24     1  0.0000000  0.6508444  3
      5      4      6     27     1  0.0000000  0.6508444  3
      5      4      6     28     1  0.0000000  0.6508444  3
      6      4      3     23     1  0.0000000  0.6508444  3
      6      4      3     24     1  0.0000000  0.6508444  3
      6      4      5     25     1  0.0000000  0.6508444  3
      6      4      5     26     1  0.0000000  0.6508444  3
      7      1      2     21     1  0.0000000  0.6508444  3
      7      1      2     22     1  0.0000000  0.6508444  3
      7      1      8     31     1  0.0000000  0.6508444  3
      7      1      8     32     1  0.0000000  0.6508444  3
      8      1      2     21     1  0.0000000  0.6508444  3
      8      1      2     22     1  0.0000000  0.6508444  3
      8      1      7     29     1  0.0000000  0.6508444  3
      8      1      7     30     1  0.0000000  0.6508444  3
      9      6      4     42     1  0.0000000  0.6508444  3
      9     10     52     67     1  180.0000771  10.4600000  2
     10      9      6     27     1  0.0000000  0.6508444  3
     10      9      6     28     1  0.0000000  0.6508444  3
     10     52     51     65     1  0.0000000  0.0000000  2
     10     52     51     66     1  0.0000000  0.0000000  2
     11      5      4     42     1  0.0000000  0.6508444  3
     11     12     78     93     1  180.0000771  10.4600000  2
     12     11      5     25     1  0.0000000  0.6508444  3
     12     11      5     26     1  0.0000000  0.6508444  3
     12     78     77     91     1  0.0000000  0.0000000  2
     12     78     77     92     1  0.0000000  0.0000000  2
     41      1      7     13     1  0.0000000  0.6508444  3
     13     14    104    119     1  180.0000771  10.4600000  2
     14     13      7     29     1  0.0000000  0.6508444  3
     14     13      7     30     1  0.0000000  0.6508444  3
     14    104    103    117     1  0.0000000  0.0000000  2
     14    104    103    118     1  0.0000000  0.0000000  2
     41      1      8     15     1  0.0000000  0.6508444  3
     15     16    130    145     1  180.0000771  10.4600000  2
     16     15      8     31     1  0.0000000  0.6508444  3
     16     15      8     32     1  0.0000000  0.6508444  3
     16    130    129    143     1  0.0000000  0.0000000  2
     16    130    129    144     1  0.0000000  0.0000000  2
     17     12     11     35     1  0.0000000  3.3472000  1
     17     12     11     35     1  0.0000000  0.0000000  2
     17     12     11     35     1  180.0000771  0.3347200  3
     17     12     11     36     1  0.0000000  3.3472000  1
     17     12     11     36     1  0.0000000  0.0000000  2
     17     12     11     36     1  180.0000771  0.3347200  3
     17     12     78     93     1  0.0000000  8.3680000  1
     17     12     78     93     1  180.0000771  10.4600000  2
     18     10      9     33     1  0.0000000  3.3472000  1
     18     10      9     33     1  0.0000000  0.0000000  2
     18     10      9     33     1  180.0000771  0.3347200  3
     18     10      9     34     1  0.0000000  3.3472000  1
     18     10      9     34     1  0.0000000  0.0000000  2
     18     10      9     34     1  180.0000771  0.3347200  3
     18     10     52     67     1  0.0000000  8.3680000  1
     18     10     52     67     1  180.0000771  10.4600000  2
     19     16     15     39     1  0.0000000  3.3472000  1
     19     16     15     39     1  0.0000000  0.0000000  2
     19     16     15     39     1  180.0000771  0.3347200  3
     19     16     15     40     1  0.0000000  3.3472000  1
     19     16     15     40     1  0.0000000  0.0000000  2
     19     16     15     40     1  180.0000771  0.3347200  3
     19     16    130    145     1  0.0000000  8.3680000  1
     19     16    130    145     1  180.0000771  10.4600000  2
     20     14     13     37     1  0.0000000  3.3472000  1
     20     14     13     37     1  0.0000000  0.0000000  2
     20     14     13     37     1  180.0000771  0.3347200  3
     20     14     13     38     1  0.0000000  3.3472000  1
     20     14     13     38     1  0.0000000  0.0000000  2
     20     14     13     38     1  180.0000771  0.3347200  3
     20     14    104    119     1  0.0000000  8.3680000  1
     20     14    104    119     1  180.0000771  10.4600000  2
     41      1      2     21     1  0.0000000  0.6508444  3
     21      2      3     23     1  0.0000000  0.6508444  3
     21      2      3     24     1  0.0000000  0.6508444  3
     41      1      2     22     1  0.0000000  0.6508444  3
     22      2      3     23     1  0.0000000  0.6508444  3
     22      2      3     24     1  0.0000000  0.6508444  3
     23      3      4     42     1  0.0000000  0.6508444  3
     24      3      4     42     1  0.0000000  0.6508444  3
     25      5      4     42     1  0.0000000  0.6508444  3
     25      5     11     35     1  0.0000000  0.6508444  3
     25      5     11     36     1  0.0000000  0.6508444  3
     26      5      4     42     1  0.0000000  0.6508444  3
     26      5     11     35     1  0.0000000  0.6508444  3
     26      5     11     36     1  0.0000000  0.6508444  3
     27      6      4     42     1  0.0000000  0.6508444  3
     27      6      9     33     1  0.0000000  0.6508444  3
     27      6      9     34     1  0.0000000  0.6508444  3
     28      6      4     42     1  0.0000000  0.6508444  3
     28      6      9     33     1  0.0000000  0.6508444  3
     28      6      9     34     1  0.0000000  0.6508444  3
     41      1      7     29     1  0.0000000  0.6508444  3
     29      7     13     37     1  0.0000000  0.6508444  3
     29      7     13     38     1  0.0000000  0.6508444  3
     41      1      7     30     1  0.0000000  0.6508444  3
     30      7     13     37     1  0.0000000  0.6508444  3
     30      7     13     38     1  0.0000000  0.6508444  3
     41      1      8     31     1  0.0000000  0.6508444  3
     31      8     15     39     1  0.0000000  0.6508444  3
     31      8     15     40     1  0.0000000  0.6508444  3
     41      1      8     32     1  0.0000000  0.6508444  3
     32      8     15     39     1  0.0000000  0.6508444  3
     32      8     15     40     1  0.0000000  0.6508444  3
     33      9     10     52     1  180.0000771  0.0000000  2
     34      9     10     52     1  180.0000771  0.0000000  2
     35     11     12     78     1  180.0000771  0.0000000  2
     36     11     12     78     1  180.0000771  0.0000000  2
     37     13     14    104     1  180.0000771  0.0000000  2
     38     13     14    104     1  180.0000771  0.0000000  2
     39     15     16    130     1  180.0000771  0.0000000  2
     40     15     16    130     1  180.0000771  0.0000000  2
     43     44     46     59     1  0.0000000  0.6508444  3
     43     44     46     60     1  0.0000000  0.6508444  3
     43     45     48     61     1  0.0000000  0.6508444  3
     43     45     48     62     1  0.0000000  0.6508444  3
     43     50     51     65     1  0.0000000  0.6508444  3
     43     50     51     66     1  0.0000000  0.6508444  3
     44     43     45     57     1  0.0000000  0.6508444  3
     44     43     45     58     1  0.0000000  0.6508444  3
     44     43     50     63     1  0.0000000  0.6508444  3
     44     43     50     64     1  0.0000000  0.6508444  3
     45     43     44     55     1  0.0000000  0.6508444  3
     45     43     44     56     1  0.0000000  0.6508444  3
     45     43     50     63     1  0.0000000  0.6508444  3
     45     43     50     64     1  0.0000000  0.6508444  3
     46     44     43     68     1  0.0000000  0.6508444  3
     46     47    156    171     1  180.0000771  10.4600000  2
     47     46     44     55     1  0.0000000  0.6508444  3
     47     46     44     56     1  0.0000000  0.6508444  3
     47    156    155    169     1  0.0000000  0.0000000  2
     47    156    155    170     1  0.0000000  0.0000000  2
     48     45     43     68     1  0.0000000  0.6508444  3
     48     49    182    197     1  180.0000771  10.4600000  2
     49     48     45     57     1  0.0000000  0.6508444  3
     49     48     45     58     1  0.0000000  0.6508444  3
     49    182    181    195     1  0.0000000  0.0000000  2
     49    182    181    196     1  0.0000000  0.0000000  2
     50     43     44     55     1  0.0000000  0.6508444  3
     50     43     44     56     1  0.0000000  0.6508444  3
     50     43     45     57     1  0.0000000  0.6508444  3
     50     43     45     58     1  0.0000000  0.6508444  3
     50     51     52     67     1  0.0000000  0.0000000  2
     51     50     43     68     1  0.0000000  0.6508444  3
     52     51     50     63     1  0.0000000  0.6508444  3
     52     51     50     64     1  0.0000000  0.6508444  3
     53     47     46     59     1  0.0000000  3.3472000  1
     53     47     46     59     1  0.0000000  0.0000000  2
     53     47     46     59     1  180.0000771  0.3347200  3
     53     47     46     60     1  0.0000000  3.3472000  1
     53     47     46     60     1  0.0000000  0.0000000  2
     53     47     46     60     1  180.0000771  0.3347200  3
     53     47    156    171     1  0.0000000  8.3680000  1
     53     47    156    171     1  180.0000771  10.4600000  2
     54     49     48     61     1  0.0000000  3.3472000  1
     54     49     48     61     1  0.0000000  0.0000000  2
     54     49     48     61     1  180.0000771  0.3347200  3
     54     49     48     62     1  0.0000000  3.3472000  1
     54     49     48     62     1  0.0000000  0.0000000  2
     54     49     48     62     1  180.0000771  0.3347200  3
     54     49    182    197     1  0.0000000  8.3680000  1
     54     49    182    197     1  180.0000771  10.4600000  2
     55     44     43     68     1  0.0000000  0.6508444  3
     55     44     46     59     1  0.0000000  0.6508444  3
     55     44     46     60     1  0.0000000  0.6508444  3
     56     44     43     68     1  0.0000000  0.6508444  3
     56     44     46     59     1  0.0000000  0.6508444  3
     56     44     46     60     1  0.0000000  0.6508444  3
     57     45     43     68     1  0.0000000  0.6508444  3
     57     45     48     61     1  0.0000000  0.6508444  3
     57     45     48     62     1  0.0000000  0.6508444  3
     58     45     43     68     1  0.0000000  0.6508444  3
     58     45     48     61     1  0.0000000  0.6508444  3
     58     45     48     62     1  0.0000000  0.6508444  3
     59     46     47    156     1  180.0000771  0.0000000  2
     60     46     47    156     1  180.0000771  0.0000000  2
     61     48     49    182     1  180.0000771  0.0000000  2
     62     48     49    182     1  180.0000771  0.0000000  2
     63     50     43     68     1  0.0000000  0.6508444  3
     63     50     51     65     1  0.0000000  0.6508444  3
     63     50     51     66     1  0.0000000  0.6508444  3
     64     50     43     68     1  0.0000000  0.6508444  3
     64     50     51     65     1  0.0000000  0.6508444  3
     64     50     51     66     1  0.0000000  0.6508444  3
     65     51     52     67     1  0.0000000  0.0000000  2
     66     51     52     67     1  0.0000000  0.0000000  2
     69     70     72     85     1  0.0000000  0.6508444  3
     69     70     72     86     1  0.0000000  0.6508444  3
     69     71     74     87     1  0.0000000  0.6508444  3
     69     71     74     88     1  0.0000000  0.6508444  3
     69     76     77     91     1  0.0000000  0.6508444  3
     69     76     77     92     1  0.0000000  0.6508444  3
     70     69     71     83     1  0.0000000  0.6508444  3
     70     69     71     84     1  0.0000000  0.6508444  3
     70     69     76     89     1  0.0000000  0.6508444  3
     70     69     76     90     1  0.0000000  0.6508444  3
     71     69     70     81     1  0.0000000  0.6508444  3
     71     69     70     82     1  0.0000000  0.6508444  3
     71     69     76     89     1  0.0000000  0.6508444  3
     71     69     76     90     1  0.0000000  0.6508444  3
     72     70     69     94     1  0.0000000  0.6508444  3
     72     73    208    223     1  180.0000771  10.4600000  2
     73     72     70     81     1  0.0000000  0.6508444  3
     73     72     70     82     1  0.0000000  0.6508444  3
     73    208    207    221     1  0.0000000  0.0000000  2
     73    208    207    222     1  0.0000000  0.0000000  2
     74     71     69     94     1  0.0000000  0.6508444  3
     74     75    234    249     1  180.0000771  10.4600000  2
     75     74     71     83     1  0.0000000  0.6508444  3
     75     74     71     84     1  0.0000000  0.6508444  3
     75    234    233    247     1  0.0000000  0.0000000  2
     75    234    233    248     1  0.0000000  0.0000000  2
     76     69     70     81     1  0.0000000  0.6508444  3
     76     69     70     82     1  0.0000000  0.6508444  3
     76     69     71     83     1  0.0000000  0.6508444  3
     76     69     71     84     1  0.0000000  0.6508444  3
     76     77     78     93     1  0.0000000  0.0000000  2
     77     76     69     94     1  0.0000000  0.6508444  3
     78     77     76     89     1  0.0000000  0.6508444  3
     78     77     76     90     1  0.0000000  0.6508444  3
     79     73     72     85     1  0.0000000  3.3472000  1
     79     73     72     85     1  0.0000000  0.0000000  2
     79     73     72     85     1  180.0000771  0.3347200  3
     79     73     72     86     1  0.0000000  3.3472000  1
     79     73     72     86     1  0.0000000  0.0000000  2
     79     73     72     86     1  180.0000771  0.3347200  3
     79     73    208    223     1  0.0000000  8.3680000  1
     79     73    208    223     1  180.0000771  10.4600000  2
     80     75     74     87     1  0.0000000  3.3472000  1
     80     75     74     87     1  0.0000000  0.0000000  2
     80     75     74     87     1  180.0000771  0.3347200  3
     80     75     74     88     1  0.0000000  3.3472000  1
     80     75     74     88     1  0.0000000  0.0000000  2
     80     75     74     88     1  180.0000771  0.3347200  3
     80     75    234    249     1  0.0000000  8.3680000  1
     80     75    234    249     1  180.0000771  10.4600000  2
     81     70     69     94     1  0.0000000  0.6508444  3
     81     70     72     85     1  0.0000000  0.6508444  3
     81     70     72     86     1  0.0000000  0.6508444  3
     82     70     69     94     1  0.0000000  0.6508444  3
     82     70     72     85     1  0.0000000  0.6508444  3
     82     70     72     86     1  0.0000000  0.6508444  3
     83     71     69     94     1  0.0000000  0.6508444  3
     83     71     74     87     1  0.0000000  0.6508444  3
     83     71     74     88     1  0.0000000  0.6508444  3
     84     71     69     94     1  0.0000000  0.6508444  3
     84     71     74     87     1  0.0000000  0.6508444  3
     84     71     74     88     1  0.0000000  0.6508444  3
     85     72     73    208     1  180.0000771  0.0000000  2
     86     72     73    208     1  180.0000771  0.0000000  2
     87     74     75    234     1  180.0000771  0.0000000  2
     88     74     75    234     1  180.0000771  0.0000000  2
     89     76     69     94     1  0.0000000  0.6508444  3
     89     76     77     91     1  0.0000000  0.6508444  3
     89     76     77     92     1  0.0000000  0.6508444  3
     90     76     69     94     1  0.0000000  0.6508444  3
     90     76     77     91     1  0.0000000  0.6508444  3
     90     76     77     92     1  0.0000000  0.6508444  3
     91     77     78     93     1  0.0000000  0.0000000  2
     92     77     78     93     1  0.0000000  0.0000000  2
     95     96     98    111     1  0.0000000  0.6508444  3
     95     96     98    112     1  0.0000000  0.6508444  3
     95     97    100    113     1  0.0000000  0.6508444  3
     95     97    100    114     1  0.0000000  0.6508444  3
     95    102    103    117     1  0.0000000  0.6508444  3
     95    102    103    118     1  0.0000000  0.6508444  3
     96     95     97    109     1  0.0000000  0.6508444  3
     96     95     97    110     1  0.0000000  0.6508444  3
     96     95    102    115     1  0.0000000  0.6508444  3
     96     95    102    116     1  0.0000000  0.6508444  3
     97     95     96    107     1  0.0000000  0.6508444  3
     97     95     96    108     1  0.0000000  0.6508444  3
     97     95    102    115     1  0.0000000  0.6508444  3
     97     95    102    116     1  0.0000000  0.6508444  3
     98     96     95    120     1  0.0000000  0.6508444  3
     98     99    260    275     1  180.0000771  10.4600000  2
     99     98     96    107     1  0.0000000  0.6508444  3
     99     98     96    108     1  0.0000000  0.6508444  3
     99    260    259    273     1  0.0000000  0.0000000  2
     99    260    259    274     1  0.0000000  0.0000000  2
    100     97     95    120     1  0.0000000  0.6508444  3
    100    101    286    301     1  180.0000771  10.4600000  2
    101    100     97    109     1  0.0000000  0.6508444  3
    101    100     97    110     1  0.0000000  0.6508444  3
    101    286    285    299     1  0.0000000  0.0000000  2
    101    286    285    300     1  0.0000000  0.0000000  2
    102     95     96    107     1  0.0000000  0.6508444  3
    102     95     96    108     1  0.0000000  0.6508444  3
    102     95     97    109     1  0.0000000  0.6508444  3
    102     95     97    110     1  0.0000000  0.6508444  3
    102    103    104    119     1  0.0000000  0.0000000  2
    103    102     95    120     1  0.0000000  0.6508444  3
    104    103    102    115     1  0.0000000  0.6508444  3
    104    103    102    116     1  0.0000000  0.6508444  3
    105     99     98    111     1  0.0000000  3.3472000  1
    105     99     98    111     1  0.0000000  0.0000000  2
    105     99     98    111     1  180.0000771  0.3347200  3
    105     99     98    112     1  0.0000000  3.3472000  1
    105     99     98    112     1  0.0000000  0.0000000  2
    105     99     98    112     1  180.0000771  0.3347200  3
    105     99    260    275     1  0.0000000  8.3680000  1
    105     99    260    275     1  180.0000771  10.4600000  2
    106    101    100    113     1  0.0000000  3.3472000  1
    106    101    100    113     1  0.0000000  0.0000000  2
    106    101    100    113     1  180.0000771  0.3347200  3
    106    101    100    114     1  0.0000000  3.3472000  1
    106    101    100    114     1  0.0000000  0.0000000  2
    106    101    100    114     1  180.0000771  0.3347200  3
    106    101    286    301     1  0.0000000  8.3680000  1
    106    101    286    301     1  180.0000771  10.4600000  2
    107     96     95    120     1  0.0000000  0.6508444  3
    107     96     98    111     1  0.0000000  0.6508444  3
    107     96     98    112     1  0.0000000  0.6508444  3
    108     96     95    120     1  0.0000000  0.6508444  3
    108     96     98    111     1  0.0000000  0.6508444  3
    108     96     98    112     1  0.0000000  0.6508444  3
    109     97     95    120     1  0.0000000  0.6508444  3
    109     97    100    113     1  0.0000000  0.6508444  3
    109     97    100    114     1  0.0000000  0.6508444  3
    110     97     95    120     1  0.0000000  0.6508444  3
    110     97    100    113     1  0.0000000  0.6508444  3
    110     97    100    114     1  0.0000000  0.6508444  3
    111     98     99    260     1  180.0000771  0.0000000  2
    112     98     99    260     1  180.0000771  0.0000000  2
    113    100    101    286     1  180.0000771  0.0000000  2
    114    100    101    286     1  180.0000771  0.0000000  2
    115    102     95    120     1  0.0000000  0.6508444  3
    115    102    103    117     1  0.0000000  0.6508444  3
    115    102    103    118     1  0.0000000  0.6508444  3
    116    102     95    120     1  0.0000000  0.6508444  3
    116    102    103    117     1  0.0000000  0.6508444  3
    116    102    103    118     1  0.0000000  0.6508444  3
    117    103    104    119     1  0.0000000  0.0000000  2
    118    103    104    119     1  0.0000000  0.0000000  2
    121    122    124    137     1  0.0000000  0.6508444  3
    121    122    124    138     1  0.0000000  0.6508444  3
    121    123    126    139     1  0.0000000  0.6508444  3
    121    123    126    140     1  0.0000000  0.6508444  3
    121    128    129    143     1  0.0000000  0.6508444  3
    121    128    129    144     1  0.0000000  0.6508444  3
    122    121    123    135     1  0.0000000  0.6508444  3
    122    121    123    136     1  0.0000000  0.6508444  3
    122    121    128    141     1  0.0000000  0.6508444  3
    122    121    128    142     1  0.0000000  0.6508444  3
    123    121    122    133     1  0.0000000  0.6508444  3
    123    121    122    134     1  0.0000000  0.6508444  3
    123    121    128    141     1  0.0000000  0.6508444  3
    123    121    128    142     1  0.0000000  0.6508444  3
    124    122    121    146     1  0.0000000  0.6508444  3
    124    125    312    327     1  180.0000771  10.4600000  2
    125    124    122    133     1  0.0000000  0.6508444  3
    125    124    122    134     1  0.0000000  0.6508444  3
    125    312    311    325     1  0.0000000  0.0000000  2
    125    312    311    326     1  0.0000000  0.0000000  2
    126    123    121    146     1  0.0000000  0.6508444  3
    126    127    338    353     1  180.0000771  10.4600000  2
    127    126    123    135     1  0.0000000  0.6508444  3
    127    126    123    136     1  0.0000000  0.6508444  3
    127    338    337    351     1  0.0000000  0.0000000  2
    127    338    337    352     1  0.0000000  0.0000000  2
    128    121    122    133     1  0.0000000  0.6508444  3
    128    121    122    134     1  0.0000000  0.6508444  3
    128    121    123    135     1  0.0000000  0.6508444  3
    128    121    123    136     1  0.0000000  0.6508444  3
    128    129    130    145     1  0.0000000  0.0000000  2
    129    128    121    146     1  0.0000000  0.6508444  3
    130    129    128    141     1  0.0000000  0.6508444  3
    130    129    128    142     1  0.0000000  0.6508444  3
    131    125    124    137     1  0.0000000  3.3472000  1
    131    125    124    137     1  0.0000000  0.0000000  2
    131    125    124    137     1  180.0000771  0.3347200  3
    131    125    124    138     1  0.0000000  3.3472000  1
    131    125    124    138     1  0.0000000  0.0000000  2
    131    125    124    138     1  180.0000771  0.3347200  3
    131    125    312    327     1  0.0000000  8.3680000  1
    131    125    312    327     1  180.0000771  10.4600000  2
    132    127    126    139     1  0.0000000  3.3472000  1
    132    127    126    139     1  0.0000000  0.0000000  2
    132    127    126    139     1  180.0000771  0.3347200  3
    132    127    126    140     1  0.0000000  3.3472000  1
    132    127    126    140     1  0.0000000  0.0000000  2
    132    127    126    140     1  180.0000771  0.3347200  3
    132    127    338    353     1  0.0000000  8.3680000  1
    132    127    338    353     1  180.0000771  10.4600000  2
    133    122    121    146     1  0.0000000  0.6508444  3
    133    122    124    137     1  0.0000000  0.6508444  3
    133    122    124    138     1  0.0000000  0.6508444  3
    134    122    121    146     1  0.0000000  0.6508444  3
    134    122    124    137     1  0.0000000  0.6508444  3
    134    122    124    138     1  0.0000000  0.6508444  3
    135    123    121    146     1  0.0000000  0.6508444  3
    135    123    126    139     1  0.0000000  0.6508444  3
    135    123    126    140     1  0.0000000  0.6508444  3
    136    123    121    146     1  0.0000000  0.6508444  3
    136    123    126    139     1  0.0000000  0.6508444  3
    136    123    126    140     1  0.0000000  0.6508444  3
    137    124    125    312     1  180.0000771  0.0000000  2
    138    124    125    312     1  180.0000771  0.0000000  2
    139    126    127    338     1  180.0000771  0.0000000  2
    140    126    127    338     1  180.0000771  0.0000000  2
    141    128    121    146     1  0.0000000  0.6508444  3
    141    128    129    143     1  0.0000000  0.6508444  3
    141    128    129    144     1  0.0000000  0.6508444  3
    142    128    121    146     1  0.0000000  0.6508444  3
    142    128    129    143     1  0.0000000  0.6508444  3
    142    128    129    144     1  0.0000000  0.6508444  3
    143    129    130    145     1  0.0000000  0.0000000  2
    144    129    130    145     1  0.0000000  0.0000000  2
    147    148    150    163     1  0.0000000  0.6508444  3
    147    148    150    164     1  0.0000000  0.6508444  3
    147    149    152    165     1  0.0000000  0.6508444  3
    147    149    152    166     1  0.0000000  0.6508444  3
    147    154    155    169     1  0.0000000  0.6508444  3
    147    154    155    170     1  0.0000000  0.6508444  3
    148    147    149    161     1  0.0000000  0.6508444  3
    148    147    149    162     1  0.0000000  0.6508444  3
    148    147    154    167     1  0.0000000  0.6508444  3
    148    147    154    168     1  0.0000000  0.6508444  3
    149    147    148    159     1  0.0000000  0.6508444  3
    149    147    148    160     1  0.0000000  0.6508444  3
    149    147    154    167     1  0.0000000  0.6508444  3
    149    147    154    168     1  0.0000000  0.6508444  3
    150    148    147    172     1  0.0000000  0.6508444  3
    150    151    355    356     1  180.0000771  10.4600000  2
    151    150    148    159     1  0.0000000  0.6508444  3
    151    150    148    160     1  0.0000000  0.6508444  3
    151    355    357    358     1  0.0000000  0.0000000  2
    151    355    357    360     1  0.0000000  0.0000000  2
    152    149    147    172     1  0.0000000  0.6508444  3
    152    153    385    386     1  180.0000771  10.4600000  2
    153    152    149    161     1  0.0000000  0.6508444  3
    153    152    149    162     1  0.0000000  0.6508444  3
    153    385    387    388     1  0.0000000  0.0000000  2
    153    385    387    390     1  0.0000000  0.0000000  2
    154    147    148    159     1  0.0000000  0.6508444  3
    154    147    148    160     1  0.0000000  0.6508444  3
    154    147    149    161     1  0.0000000  0.6508444  3
    154    147    149    162     1  0.0000000  0.6508444  3
    154    155    156    171     1  0.0000000  0.0000000  2
    155    154    147    172     1  0.0000000  0.6508444  3
    156    155    154    167     1  0.0000000  0.6508444  3
    156    155    154    168     1  0.0000000  0.6508444  3
    157    151    150    163     1  0.0000000  3.3472000  1
    157    151    150    163     1  0.0000000  0.0000000  2
    157    151    150    163     1  180.0000771  0.3347200  3
    157    151    150    164     1  0.0000000  3.3472000  1
    157    151    150    164     1  0.0000000  0.0000000  2
    157    151    150    164     1  180.0000771  0.3347200  3
    157    151    355    356     1  0.0000000  8.3680000  1
    157    151    355    356     1  180.0000771  10.4600000  2
    158    153    152    165     1  0.0000000  3.3472000  1
    158    153    152    165     1  0.0000000  0.0000000  2
    158    153    152    165     1  180.0000771  0.3347200  3
    158    153    152    166     1  0.0000000  3.3472000  1
    158    153    152    166     1  0.0000000  0.0000000  2
    158    153    152    166     1  180.0000771  0.3347200  3
    158    153    385    386     1  0.0000000  8.3680000  1
    158    153    385    386     1  180.0000771  10.4600000  2
    159    148    147    172     1  0.0000000  0.6508444  3
    159    148    150    163     1  0.0000000  0.6508444  3
    159    148    150    164     1  0.0000000  0.6508444  3
    160    148    147    172     1  0.0000000  0.6508444  3
    160    148    150    163     1  0.0000000  0.6508444  3
    160    148    150    164     1  0.0000000  0.6508444  3
    161    149    147    172     1  0.0000000  0.6508444  3
    161    149    152    165     1  0.0000000  0.6508444  3
    161    149    152    166     1  0.0000000  0.6508444  3
    162    149    147    172     1  0.0000000  0.6508444  3
    162    149    152    165     1  0.0000000  0.6508444  3
    162    149    152    166     1  0.0000000  0.6508444  3
    163    150    151    355     1  180.0000771  0.0000000  2
    164    150    151    355     1  180.0000771  0.0000000  2
    165    152    153    385     1  180.0000771  0.0000000  2
    166    152    153    385     1  180.0000771  0.0000000  2
    167    154    147    172     1  0.0000000  0.6508444  3
    167    154    155    169     1  0.0000000  0.6508444  3
    167    154    155    170     1  0.0000000  0.6508444  3
    168    154    147    172     1  0.0000000  0.6508444  3
    168    154    155    169     1  0.0000000  0.6508444  3
    168    154    155    170     1  0.0000000  0.6508444  3
    169    155    156    171     1  0.0000000  0.0000000  2
    170    155    156    171     1  0.0000000  0.0000000  2
    173    174    176    189     1  0.0000000  0.6508444  3
    173    174    176    190     1  0.0000000  0.6508444  3
    173    175    178    191     1  0.0000000  0.6508444  3
    173    175    178    192     1  0.0000000  0.6508444  3
    173    180    181    195     1  0.0000000  0.6508444  3
    173    180    181    196     1  0.0000000  0.6508444  3
    174    173    175    187     1  0.0000000  0.6508444  3
    174    173    175    188     1  0.0000000  0.6508444  3
    174    173    180    193     1  0.0000000  0.6508444  3
    174    173    180    194     1  0.0000000  0.6508444  3
    175    173    174    185     1  0.0000000  0.6508444  3
    175    173    174    186     1  0.0000000  0.6508444  3
    175    173    180    193     1  0.0000000  0.6508444  3
    175    173    180    194     1  0.0000000  0.6508444  3
    176    174    173    198     1  0.0000000  0.6508444  3
    176    177    415    416     1  180.0000771  10.4600000  2
    177    176    174    185     1  0.0000000  0.6508444  3
    177    176    174    186     1  0.0000000  0.6508444  3
    177    415    417    418     1  0.0000000  0.0000000  2
    177    415    417    420     1  0.0000000  0.0000000  2
    178    175    173    198     1  0.0000000  0.6508444  3
    178    179    445    446     1  180.0000771  10.4600000  2
    179    178    175    187     1  0.0000000  0.6508444  3
    179    178    175    188     1  0.0000000  0.6508444  3
    179    445    447    448     1  0.0000000  0.0000000  2
    179    445    447    450     1  0.0000000  0.0000000  2
    180    173    174    185     1  0.0000000  0.6508444  3
    180    173    174    186     1  0.0000000  0.6508444  3
    180    173    175    187     1  0.0000000  0.6508444  3
    180    173    175    188     1  0.0000000  0.6508444  3
    180    181    182    197     1  0.0000000  0.0000000  2
    181    180    173    198     1  0.0000000  0.6508444  3
    182    181    180    193     1  0.0000000  0.6508444  3
    182    181    180    194     1  0.0000000  0.6508444  3
    183    177    176    189     1  0.0000000  3.3472000  1
    183    177    176    189     1  0.0000000  0.0000000  2
    183    177    176    189     1  180.0000771  0.3347200  3
    183    177    176    190     1  0.0000000  3.3472000  1
    183    177    176    190     1  0.0000000  0.0000000  2
    183    177    176    190     1  180.0000771  0.3347200  3
    183    177    415    416     1  0.0000000  8.3680000  1
    183    177    415    416     1  180.0000771  10.4600000  2
    184    179    178    191     1  0.0000000  3.3472000  1
    184    179    178    191     1  0.0000000  0.0000000  2
    184    179    178    191     1  180.0000771  0.3347200  3
    184    179    178    192     1  0.0000000  3.3472000  1
    184    179    178    192     1  0.0000000  0.0000000  2
    184    179    178    192     1  180.0000771  0.3347200  3
    184    179    445    446     1  0.0000000  8.3680000  1
    184    179    445    446     1  180.0000771  10.4600000  2
    185    174    173    198     1  0.0000000  0.6508444  3
    185    174    176    189     1  0.0000000  0.6508444  3
    185    174    176    190     1  0.0000000  0.6508444  3
    186    174    173    198     1  0.0000000  0.6508444  3
    186    174    176    189     1  0.0000000  0.6508444  3
    186    174    176    190     1  0.0000000  0.6508444  3
    187    175    173    198     1  0.0000000  0.6508444  3
    187    175    178    191     1  0.0000000  0.6508444  3
    187    175    178    192     1  0.0000000  0.6508444  3
    188    175    173    198     1  0.0000000  0.6508444  3
    188    175    178    191     1  0.0000000  0.6508444  3
    188    175    178    192     1  0.0000000  0.6508444  3
    189    176    177    415     1  180.0000771  0.0000000  2
    190    176    177    415     1  180.0000771  0.0000000  2
    191    178    179    445     1  180.0000771  0.0000000  2
    192    178    179    445     1  180.0000771  0.0000000  2
    193    180    173    198     1  0.0000000  0.6508444  3
    193    180    181    195     1  0.0000000  0.6508444  3
    193    180    181    196     1  0.0000000  0.6508444  3
    194    180    173    198     1  0.0000000  0.6508444  3
    194    180    181    195     1  0.0000000  0.6508444  3
    194    180    181    196     1  0.0000000  0.6508444  3
    195    181    182    197     1  0.0000000  0.0000000  2
    196    181    182    197     1  0.0000000  0.0000000  2
    199    200    202    215     1  0.0000000  0.6508444  3
    199    200    202    216     1  0.0000000  0.6508444  3
    199    201    204    217     1  0.0000000  0.6508444  3
    199    201    204    218     1  0.0000000  0.6508444  3
    199    206    207    221     1  0.0000000  0.6508444  3
    199    206    207    222     1  0.0000000  0.6508444  3
    200    199    201    213     1  0.0000000  0.6508444  3
    200    199    201    214     1  0.0000000  0.6508444  3
    200    199    206    219     1  0.0000000  0.6508444  3
    200    199    206    220     1  0.0000000  0.6508444  3
    201    199    200    211     1  0.0000000  0.6508444  3
    201    199    200    212     1  0.0000000  0.6508444  3
    201    199    206    219     1  0.0000000  0.6508444  3
    201    199    206    220     1  0.0000000  0.6508444  3
    202    200    199    224     1  0.0000000  0.6508444  3
    202    203    475    476     1  180.0000771  10.4600000  2
    203    202    200    211     1  0.0000000  0.6508444  3
    203    202    200    212     1  0.0000000  0.6508444  3
    203    475    477    478     1  0.0000000  0.0000000  2
    203    475    477    480     1  0.0000000  0.0000000  2
    204    201    199    224     1  0.0000000  0.6508444  3
    204    205    505    506     1  180.0000771  10.4600000  2
    205    204    201    213     1  0.0000000  0.6508444  3
    205    204    201    214     1  0.0000000  0.6508444  3
    205    505    507    508     1  0.0000000  0.0000000  2
    205    505    507    510     1  0.0000000  0.0000000  2
    206    199    200    211     1  0.0000000  0.6508444  3
    206    199    200    212     1  0.0000000  0.6508444  3
    206    199    201    213     1  0.0000000  0.6508444  3
    206    199    201    214     1  0.0000000  0.6508444  3
    206    207    208    223     1  0.0000000  0.0000000  2
    207    206    199    224     1  0.0000000  0.6508444  3
    208    207    206    219     1  0.0000000  0.6508444  3
    208    207    206    220     1  0.0000000  0.6508444  3
    209    203    202    215     1  0.0000000  3.3472000  1
    209    203    202    215     1  0.0000000  0.0000000  2
    209    203    202    215     1  180.0000771  0.3347200  3
    209    203    202    216     1  0.0000000  3.3472000  1
    209    203    202    216     1  0.0000000  0.0000000  2
    209    203    202    216     1  180.0000771  0.3347200  3
    209    203    475    476     1  0.0000000  8.3680000  1
    209    203    475    476     1  180.0000771  10.4600000  2
    210    205    204    217     1  0.0000000  3.3472000  1
    210    205    204    217     1  0.0000000  0.0000000  2
    210    205    204    217     1  180.0000771  0.3347200  3
    210    205    204    218     1  0.0000000  3.3472000  1
    210    205    204    218     1  0.0000000  0.0000000  2
    210    205    204    218     1  180.0000771  0.3347200  3
    210    205    505    506     1  0.0000000  8.3680000  1
    210    205    505    506     1  180.0000771  10.4600000  2
    211    200    199    224     1  0.0000000  0.6508444  3
    211    200    202    215     1  0.0000000  0.6508444  3
    211    200    202    216     1  0.0000000  0.6508444  3
    212    200    199    224     1  0.0000000  0.6508444  3
    212    200    202    215     1  0.0000000  0.6508444  3
    212    200    202    216     1  0.0000000  0.6508444  3
    213    201    199    224     1  0.0000000  0.6508444  3
    213    201    204    217     1  0.0000000  0.6508444  3
    213    201    204    218     1  0.0000000  0.6508444  3
    214    201    199    224     1  0.0000000  0.6508444  3
    214    201    204    217     1  0.0000000  0.6508444  3
    214    201    204    218     1  0.0000000  0.6508444  3
    215    202    203    475     1  180.0000771  0.0000000  2
    216    202    203    475     1  180.0000771  0.0000000  2
    217    204    205    505     1  180.0000771  0.0000000  2
    218    204    205    505     1  180.0000771  0.0000000  2
    219    206    199    224     1  0.0000000  0.6508444  3
    219    206    207    221     1  0.0000000  0.6508444  3
    219    206    207    222     1  0.0000000  0.6508444  3
    220    206    199    224     1  0.0000000  0.6508444  3
    220    206    207    221     1  0.0000000  0.6508444  3
    220    206    207    222     1  0.0000000  0.6508444  3
    221    207    208    223     1  0.0000000  0.0000000  2
    222    207    208    223     1  0.0000000  0.0000000  2
    225    226    228    241     1  0.0000000  0.6508444  3
    225    226    228    242     1  0.0000000  0.6508444  3
    225    227    230    243     1  0.0000000  0.6508444  3
    225    227    230    244     1  0.0000000  0.6508444  3
    225    232    233    247     1  0.0000000  0.6508444  3
    225    232    233    248     1  0.0000000  0.6508444  3
    226    225    227    239     1  0.0000000  0.6508444  3
    226    225    227    240     1  0.0000000  0.6508444  3
    226    225    232    245     1  0.0000000  0.6508444  3
    226    225    232    246     1  0.0000000  0.6508444  3
    227    225    226    237     1  0.0000000  0.6508444  3
    227    225    226    238     1  0.0000000  0.6508444  3
    227    225    232    245     1  0.0000000  0.6508444  3
    227    225    232    246     1  0.0000000  0.6508444  3
    228    226    225    250     1  0.0000000  0.6508444  3
    228    229    535    536     1  180.0000771  10.4600000  2
    229    228    226    237     1  0.0000000  0.6508444  3
    229    228    226    238     1  0.0000000  0.6508444  3
    229    535    537    538     1  0.0000000  0.0000000  2
    229    535    537    540     1  0.0000000  0.0000000  2
    230    227    225    250     1  0.0000000  0.6508444  3
    230    231    565    566     1  180.0000771  10.4600000  2
    231    230    227    239     1  0.0000000  0.6508444  3
    231    230    227    240     1  0.0000000  0.6508444  3
    231    565    567    568     1  0.0000000  0.0000000  2
    231    565    567    570     1  0.0000000  0.0000000  2
    232    225    226    237     1  0.0000000  0.6508444  3
    232    225    226    238     1  0.0000000  0.6508444  3
    232    225    227    239     1  0.0000000  0.6508444  3
    232    225    227    240     1  0.0000000  0.6508444  3
    232    233    234    249     1  0.0000000  0.0000000  2
    233    232    225    250     1  0.0000000  0.6508444  3
    234    233    232    245     1  0.0000000  0.6508444  3
    234    233    232    246     1  0.0000000  0.6508444  3
    235    229    228    241     1  0.0000000  3.3472000  1
    235    229    228    241     1  0.0000000  0.0000000  2
    235    229    228    241     1  180.0000771  0.3347200  3
    235    229    228    242     1  0.0000000  3.3472000  1
    235    229    228    242     1  0.0000000  0.0000000  2
    235    229    228    242     1  180.0000771  0.3347200  3
    235    229    535    536     1  0.0000000  8.3680000  1
    235    229    535    536     1  180.0000771  10.4600000  2
    236    231    230    243     1  0.0000000  3.3472000  1
    236    231    230    243     1  0.0000000  0.0000000  2
    236    231    230    243     1  180.0000771  0.3347200  3
    236    231    230    244     1  0.0000000  3.3472000  1
    236    231    230    244     1  0.0000000  0.0000000  2
    236    231    230    244     1  180.0000771  0.3347200  3
    236    231    565    566     1  0.0000000  8.3680000  1
    236    231    565    566     1  180.0000771  10.4600000  2
    237    226    225    250     1  0.0000000  0.6508444  3
    237    226    228    241     1  0.0000000  0.6508444  3
    237    226    228    242     1  0.0000000  0.6508444  3
    238    226    225    250     1  0.0000000  0.6508444  3
    238    226    228    241     1  0.0000000  0.6508444  3
    238    226    228    242     1  0.0000000  0.6508444  3
    239    227    225    250     1  0.0000000  0.6508444  3
    239    227    230    243     1  0.0000000  0.6508444  3
    239    227    230    244     1  0.0000000  0.6508444  3
    240    227    225    250     1  0.0000000  0.6508444  3
    240    227    230    243     1  0.0000000  0.6508444  3
    240    227    230    244     1  0.0000000  0.6508444  3
    241    228    229    535     1  180.0000771  0.0000000  2
    242    228    229    535     1  180.0000771  0.0000000  2
    243    230    231    565     1  180.0000771  0.0000000  2
    244    230    231    565     1  180.0000771  0.0000000  2
    245    232    225    250     1  0.0000000  0.6508444  3
    245    232    233    247     1  0.0000000  0.6508444  3
    245    232    233    248     1  0.0000000  0.6508444  3
    246    232    225    250     1  0.0000000  0.6508444  3
    246    232    233    247     1  0.0000000  0.6508444  3
    246    232    233    248     1  0.0000000  0.6508444  3
    247    233    234    249     1  0.0000000  0.0000000  2
    248    233    234    249     1  0.0000000  0.0000000  2
    251    252    254    267     1  0.0000000  0.6508444  3
    251    252    254    268     1  0.0000000  0.6508444  3
    251    253    256    269     1  0.0000000  0.6508444  3
    251    253    256    270     1  0.0000000  0.6508444  3
    251    258    259    273     1  0.0000000  0.6508444  3
    251    258    259    274     1  0.0000000  0.6508444  3
    252    251    253    265     1  0.0000000  0.6508444  3
    252    251    253    266     1  0.0000000  0.6508444  3
    252    251    258    271     1  0.0000000  0.6508444  3
    252    251    258    272     1  0.0000000  0.6508444  3
    253    251    252    263     1  0.0000000  0.6508444  3
    253    251    252    264     1  0.0000000  0.6508444  3
    253    251    258    271     1  0.0000000  0.6508444  3
    253    251    258    272     1  0.0000000  0.6508444  3
    254    252    251    276     1  0.0000000  0.6508444  3
    254    255    595    596     1  180.0000771  10.4600000  2
    255    254    252    263     1  0.0000000  0.6508444  3
    255    254    252    264     1  0.0000000  0.6508444  3
    255    595    597    598     1  0.0000000  0.0000000  2
    255    595    597    600     1  0.0000000  0.0000000  2
    256    253    251    276     1  0.0000000  0.6508444  3
    256    257    625    626     1  180.0000771  10.4600000  2
    257    256    253    265     1  0.0000000  0.6508444  3
    257    256    253    266     1  0.0000000  0.6508444  3
    257    625    627    628     1  0.0000000  0.0000000  2
    257    625    627    630     1  0.0000000  0.0000000  2
    258    251    252    263     1  0.0000000  0.6508444  3
    258    251    252    264     1  0.0000000  0.6508444  3
    258    251    253    265     1  0.0000000  0.6508444  3
    258    251    253    266     1  0.0000000  0.6508444  3
    258    259    260    275     1  0.0000000  0.0000000  2
    259    258    251    276     1  0.0000000  0.6508444  3
    260    259    258    271     1  0.0000000  0.6508444  3
    260    259    258    272     1  0.0000000  0.6508444  3
    261    255    254    267     1  0.0000000  3.3472000  1
    261    255    254    267     1  0.0000000  0.0000000  2
    261    255    254    267     1  180.0000771  0.3347200  3
    261    255    254    268     1  0.0000000  3.3472000  1
    261    255    254    268     1  0.0000000  0.0000000  2
    261    255    254    268     1  180.0000771  0.3347200  3
    261    255    595    596     1  0.0000000  8.3680000  1
    261    255    595    596     1  180.0000771  10.4600000  2
    262    257    256    269     1  0.0000000  3.3472000  1
    262    257    256    269     1  0.0000000  0.0000000  2
    262    257    256    269     1  180.0000771  0.3347200  3
    262    257    256    270     1  0.0000000  3.3472000  1
    262    257    256    270     1  0.0000000  0.0000000  2
    262    257    256    270     1  180.0000771  0.3347200  3
    262    257    625    626     1  0.0000000  8.3680000  1
    262    257    625    626     1  180.0000771  10.4600000  2
    263    252    251    276     1  0.0000000  0.6508444  3
    263    252    254    267     1  0.0000000  0.6508444  3
    263    252    254    268     1  0.0000000  0.6508444  3
    264    252    251    276     1  0.0000000  0.6508444  3
    264    252    254    267     1  0.0000000  0.6508444  3
    264    252    254    268     1  0.0000000  0.6508444  3
    265    253    251    276     1  0.0000000  0.6508444  3
    265    253    256    269     1  0.0000000  0.6508444  3
    265    253    256    270     1  0.0000000  0.6508444  3
    266    253    251    276     1  0.0000000  0.6508444  3
    266    253    256    269     1  0.0000000  0.6508444  3
    266    253    256    270     1  0.0000000  0.6508444  3
    267    254    255    595     1  180.0000771  0.0000000  2
    268    254    255    595     1  180.0000771  0.0000000  2
    269    256    257    625     1  180.0000771  0.0000000  2
    270    256    257    625     1  180.0000771  0.0000000  2
    271    258    251    276     1  0.0000000  0.6508444  3
    271    258    259    273     1  0.0000000  0.6508444  3
    271    258    259    274     1  0.0000000  0.6508444  3
    272    258    251    276     1  0.0000000  0.6508444  3
    272    258    259    273     1  0.0000000  0.6508444  3
    272    258    259    274     1  0.0000000  0.6508444  3
    273    259    260    275     1  0.0000000  0.0000000  2
    274    259    260    275     1  0.0000000  0.0000000  2
    277    278    280    293     1  0.0000000  0.6508444  3
    277    278    280    294     1  0.0000000  0.6508444  3
    277    279    282    295     1  0.0000000  0.6508444  3
    277    279    282    296     1  0.0000000  0.6508444  3
    277    284    285    299     1  0.0000000  0.6508444  3
    277    284    285    300     1  0.0000000  0.6508444  3
    278    277    279    291     1  0.0000000  0.6508444  3
    278    277    279    292     1  0.0000000  0.6508444  3
    278    277    284    297     1  0.0000000  0.6508444  3
    278    277    284    298     1  0.0000000  0.6508444  3
    279    277    278    289     1  0.0000000  0.6508444  3
    279    277    278    290     1  0.0000000  0.6508444  3
    279    277    284    297     1  0.0000000  0.6508444  3
    279    277    284    298     1  0.0000000  0.6508444  3
    280    278    277    302     1  0.0000000  0.6508444  3
    280    281    655    656     1  180.0000771  10.4600000  2
    281    280    278    289     1  0.0000000  0.6508444  3
    281    280    278    290     1  0.0000000  0.6508444  3
    281    655    657    658     1  0.0000000  0.0000000  2
    281    655    657    660     1  0.0000000  0.0000000  2
    282    279    277    302     1  0.0000000  0.6508444  3
    282    283    685    686     1  180.0000771  10.4600000  2
    283    282    279    291     1  0.0000000  0.6508444  3
    283    282    279    292     1  0.0000000  0.6508444  3
    283    685    687    688     1  0.0000000  0.0000000  2
    283    685    687    690     1  0.0000000  0.0000000  2
    284    277    278    289     1  0.0000000  0.6508444  3
    284    277    278    290     1  0.0000000  0.6508444  3
    284    277    279    291     1  0.0000000  0.6508444  3
    284    277    279    292     1  0.0000000  0.6508444  3
    284    285    286    301     1  0.0000000  0.0000000  2
    285    284    277    302     1  0.0000000  0.6508444  3
    286    285    284    297     1  0.0000000  0.6508444  3
    286    285    284    298     1  0.0000000  0.6508444  3
    287    281    280    293     1  0.0000000  3.3472000  1
    287    281    280    293     1  0.0000000  0.0000000  2
    287    281    280    293     1  180.0000771  0.3347200  3
    287    281    280    294     1  0.0000000  3.3472000  1
    287    281    280    294     1  0.0000000  0.0000000  2
    287    281    280    294     1  180.0000771  0.3347200  3
    287    281    655    656     1  0.0000000  8.3680000  1
    287    281    655    656     1  180.0000771  10.4600000  2
    288    283    282    295     1  0.0000000  3.3472000  1
    288    283    282    295     1  0.0000000  0.0000000  2
    288    283    282    295     1  180.0000771  0.3347200  3
    288    283    282    296     1  0.0000000  3.3472000  1
    288    283    282    296     1  0.0000000  0.0000000  2
    288    283    282    296     1  180.0000771  0.3347200  3
    288    283    685    686     1  0.0000000  8.3680000  1
    288    283    685    686     1  180.0000771  10.4600000  2
    289    278    277    302     1  0.0000000  0.6508444  3
    289    278    280    293     1  0.0000000  0.6508444  3
    289    278    280    294     1  0.0000000  0.6508444  3
    290    278    277    302     1  0.0000000  0.6508444  3
    290    278    280    293     1  0.0000000  0.6508444  3
    290    278    280    294     1  0.0000000  0.6508444  3
    291    279    277    302     1  0.0000000  0.6508444  3
    291    279    282    295     1  0.0000000  0.6508444  3
    291    279    282    296     1  0.0000000  0.6508444  3
    292    279    277    302     1  0.0000000  0.6508444  3
    292    279    282    295     1  0.0000000  0.6508444  3
    292    279    282    296     1  0.0000000  0.6508444  3
    293    280    281    655     1  180.0000771  0.0000000  2
    294    280    281    655     1  180.0000771  0.0000000  2
    295    282    283    685     1  180.0000771  0.0000000  2
    296    282    283    685     1  180.0000771  0.0000000  2
    297    284    277    302     1  0.0000000  0.6508444  3
    297    284    285    299     1  0.0000000  0.6508444  3
    297    284    285    300     1  0.0000000  0.6508444  3
    298    284    277    302     1  0.0000000  0.6508444  3
    298    284    285    299     1  0.0000000  0.6508444  3
    298    284    285    300     1  0.0000000  0.6508444  3
    299    285    286    301     1  0.0000000  0.0000000  2
    300    285    286    301     1  0.0000000  0.0000000  2
    303    304    306    319     1  0.0000000  0.6508444  3
    303    304    306    320     1  0.0000000  0.6508444  3
    303    305    308    321     1  0.0000000  0.6508444  3
    303    305    308    322     1  0.0000000  0.6508444  3
    303    310    311    325     1  0.0000000  0.6508444  3
    303    310    311    326     1  0.0000000  0.6508444  3
    304    303    305    317     1  0.0000000  0.6508444  3
    304    303    305    318     1  0.0000000  0.6508444  3
    304    303    310    323     1  0.0000000  0.6508444  3
    304    303    310    324     1  0.0000000  0.6508444  3
    305    303    304    315     1  0.0000000  0.6508444  3
    305    303    304    316     1  0.0000000  0.6508444  3
    305    303    310    323     1  0.0000000  0.6508444  3
    305    303    310    324     1  0.0000000  0.6508444  3
    306    304    303    328     1  0.0000000  0.6508444  3
    306    307    715    716     1  180.0000771  10.4600000  2
    307    306    304    315     1  0.0000000  0.6508444  3
    307    306    304    316     1  0.0000000  0.6508444  3
    307    715    717    718     1  0.0000000  0.0000000  2
    307    715    717    720     1  0.0000000  0.0000000  2
    308    305    303    328     1  0.0000000  0.6508444  3
    308    309    745    746     1  180.0000771  10.4600000  2
    309    308    305    317     1  0.0000000  0.6508444  3
    309    308    305    318     1  0.0000000  0.6508444  3
    309    745    747    748     1  0.0000000  0.0000000  2
    309    745    747    750     1  0.0000000  0.0000000  2
    310    303    304    315     1  0.0000000  0.6508444  3
    310    303    304    316     1  0.0000000  0.6508444  3
    310    303    305    317     1  0.0000000  0.6508444  3
    310    303    305    318     1  0.0000000  0.6508444  3
    310    311    312    327     1  0.0000000  0.0000000  2
    311    310    303    328     1  0.0000000  0.6508444  3
    312    311    310    323     1  0.0000000  0.6508444  3
    312    311    310    324     1  0.0000000  0.6508444  3
    313    307    306    319     1  0.0000000  3.3472000  1
    313    307    306    319     1  0.0000000  0.0000000  2
    313    307    306    319     1  180.0000771  0.3347200  3
    313    307    306    320     1  0.0000000  3.3472000  1
    313    307    306    320     1  0.0000000  0.0000000  2
    313    307    306    320     1  180.0000771  0.3347200  3
    313    307    715    716     1  0.0000000  8.3680000  1
    313    307    715    716     1  180.0000771  10.4600000  2
    314    309    308    321     1  0.0000000  3.3472000  1
    314    309    308    321     1  0.0000000  0.0000000  2
    314    309    308    321     1  180.0000771  0.3347200  3
    314    309    308    322     1  0.0000000  3.3472000  1
    314    309    308    322     1  0.0000000  0.0000000  2
    314    309    308    322     1  180.0000771  0.3347200  3
    314    309    745    746     1  0.0000000  8.3680000  1
    314    309    745    746     1  180.0000771  10.4600000  2
    315    304    303    328     1  0.0000000  0.6508444  3
    315    304    306    319     1  0.0000000  0.6508444  3
    315    304    306    320     1  0.0000000  0.6508444  3
    316    304    303    328     1  0.0000000  0.6508444  3
    316    304    306    319     1  0.0000000  0.6508444  3
    316    304    306    320     1  0.0000000  0.6508444  3
    317    305    303    328     1  0.0000000  0.6508444  3
    317    305    308    321     1  0.0000000  0.6508444  3
    317    305    308    322     1  0.0000000  0.6508444  3
    318    305    303    328     1  0.0000000  0.6508444  3
    318    305    308    321     1  0.0000000  0.6508444  3
    318    305    308    322     1  0.0000000  0.6508444  3
    319    306    307    715     1  180.0000771  0.0000000  2
    320    306    307    715     1  180.0000771  0.0000000  2
    321    308    309    745     1  180.0000771  0.0000000  2
    322    308    309    745     1  180.0000771  0.0000000  2
    323    310    303    328     1  0.0000000  0.6508444  3
    323    310    311    325     1  0.0000000  0.6508444  3
    323    310    311    326     1  0.0000000  0.6508444  3
    324    310    303    328     1  0.0000000  0.6508444  3
    324    310    311    325     1  0.0000000  0.6508444  3
    324    310    311    326     1  0.0000000  0.6508444  3
    325    311    312    327     1  0.0000000  0.0000000  2
    326    311    312    327     1  0.0000000  0.0000000  2
    329    330    332    345     1  0.0000000  0.6508444  3
    329    330    332    346     1  0.0000000  0.6508444  3
    329    331    334    347     1  0.0000000  0.6508444  3
    329    331    334    348     1  0.0000000  0.6508444  3
    329    336    337    351     1  0.0000000  0.6508444  3
    329    336    337    352     1  0.0000000  0.6508444  3
    330    329    331    343     1  0.0000000  0.6508444  3
    330    329    331    344     1  0.0000000  0.6508444  3
    330    329    336    349     1  0.0000000  0.6508444  3
    330    329    336    350     1  0.0000000  0.6508444  3
    331    329    330    341     1  0.0000000  0.6508444  3
    331    329    330    342     1  0.0000000  0.6508444  3
    331    329    336    349     1  0.0000000  0.6508444  3
    331    329    336    350     1  0.0000000  0.6508444  3
    332    330    329    354     1  0.0000000  0.6508444  3
    332    333    775    776     1  180.0000771  10.4600000  2
    333    332    330    341     1  0.0000000  0.6508444  3
    333    332    330    342     1  0.0000000  0.6508444  3
    333    775    777    778     1  0.0000000  0.0000000  2
    333    775    777    780     1  0.0000000  0.0000000  2
    334    331    329    354     1  0.0000000  0.6508444  3
    334    335    805    806     1  180.0000771  10.4600000  2
    335    334    331    343     1  0.0000000  0.6508444  3
    335    334    331    344     1  0.0000000  0.6508444  3
    335    805    807    808     1  0.0000000  0.0000000  2
    335    805    807    810     1  0.0000000  0.0000000  2
    336    329    330    341     1  0.0000000  0.6508444  3
    336    329    330    342     1  0.0000000  0.6508444  3
    336    329    331    343     1  0.0000000  0.6508444  3
    336    329    331    344     1  0.0000000  0.6508444  3
    336    337    338    353     1  0.0000000  0.0000000  2
    337    336    329    354     1  0.0000000  0.6508444  3
    338    337    336    349     1  0.0000000  0.6508444  3
    338    337    336    350     1  0.0000000  0.6508444  3
    339    333    332    345     1  0.0000000  3.3472000  1
    339    333    332    345     1  0.0000000  0.0000000  2
    339    333    332    345     1  180.0000771  0.3347200  3
    339    333    332    346     1  0.0000000  3.3472000  1
    339    333    332    346     1  0.0000000  0.0000000  2
    339    333    332    346     1  180.0000771  0.3347200  3
    339    333    775    776     1  0.0000000  8.3680000  1
    339    333    775    776     1  180.0000771  10.4600000  2
    340    335    334    347     1  0.0000000  3.3472000  1
    340    335    334    347     1  0.0000000  0.0000000  2
    340    335    334    347     1  180.0000771  0.3347200  3
    340    335    334    348     1  0.0000000  3.3472000  1
    340    335    334    348     1  0.0000000  0.0000000  2
    340    335    334    348     1  180.0000771  0.3347200  3
    340    335    805    806     1  0.0000000  8.3680000  1
    340    335    805    806     1  180.0000771  10.4600000  2
    341    330    329    354     1  0.0000000  0.6508444  3
    341    330    332    345     1  0.0000000  0.6508444  3
    341    330    332    346     1  0.0000000  0.6508444  3
    342    330    329    354     1  0.0000000  0.6508444  3
    342    330    332    345     1  0.0000000  0.6508444  3
    342    330    332    346     1  0.0000000  0.6508444  3
    343    331    329    354     1  0.0000000  0.6508444  3
    343    331    334    347     1  0.0000000  0.6508444  3
    343    331    334    348     1  0.0000000  0.6508444  3
    344    331    329    354     1  0.0000000  0.6508444  3
    344    331    334    347     1  0.0000000  0.6508444  3
    344    331    334    348     1  0.0000000  0.6508444  3
    345    332    333    775     1  180.0000771  0.0000000  2
    346    332    333    775     1  180.0000771  0.0000000  2
    347    334    335    805     1  180.0000771  0.0000000  2
    348    334    335    805     1  180.0000771  0.0000000  2
    349    336    329    354     1  0.0000000  0.6508444  3
    349    336    337    351     1  0.0000000  0.6508444  3
    349    336    337    352     1  0.0000000  0.6508444  3
    350    336    329    354     1  0.0000000  0.6508444  3
    350    336    337    351     1  0.0000000  0.6508444  3
    350    336    337    352     1  0.0000000  0.6508444  3
    351    337    338    353     1  0.0000000  0.0000000  2
    352    337    338    353     1  0.0000000  0.0000000  2
    355    357    359    361     1  0.0000000  0.6508444  3
    355    357    359    362     1  0.0000000  0.6508444  3
    356    355    357    359     1  0.0000000  0.0000000  2
    356    355    357    358     1  0.0000000  0.0000000  2
    356    355    357    360     1  0.0000000  0.0000000  2
    357    359    363    384     1  0.0000000  0.6508444  3
    358    357    359    363     1  0.0000000  0.6508444  3
    358    357    359    361     1  0.0000000  0.6508444  3
    358    357    359    362     1  0.0000000  0.6508444  3
    359    363    364    374     1  0.0000000  0.6508444  3
    359    363    364    375     1  0.0000000  0.6508444  3
    359    363    365    366     1  0.0000000  0.6508444  3
    359    363    365    368     1  0.0000000  0.6508444  3
    360    357    359    363     1  0.0000000  0.6508444  3
    360    357    359    361     1  0.0000000  0.6508444  3
    360    357    359    362     1  0.0000000  0.6508444  3
    361    359    363    364     1  0.0000000  0.6508444  3
    361    359    363    365     1  0.0000000  0.6508444  3
    361    359    363    384     1  0.0000000  0.6508444  3
    362    359    363    364     1  0.0000000  0.6508444  3
    362    359    363    365     1  0.0000000  0.6508444  3
    362    359    363    384     1  0.0000000  0.6508444  3
    363    364    376    377     1  0.0000000  0.6508444  3
    363    364    376    378     1  0.0000000  0.6508444  3
    363    365    367    369     1  0.0000000  0.6508444  3
    363    365    367    370     1  0.0000000  0.6508444  3
    364    363    365    366     1  0.0000000  0.6508444  3
    364    363    365    368     1  0.0000000  0.6508444  3
    365    363    364    374     1  0.0000000  0.6508444  3
    365    363    364    375     1  0.0000000  0.6508444  3
    366    365    363    384     1  0.0000000  0.6508444  3
    366    365    367    371     1  0.0000000  0.6508444  3
    366    365    367    369     1  0.0000000  0.6508444  3
    366    365    367    370     1  0.0000000  0.6508444  3
    367    365    363    384     1  0.0000000  0.6508444  3
    367    371    372    382     1  180.0000771  9.6232000  2
    368    365    363    384     1  0.0000000  0.6508444  3
    368    365    367    371     1  0.0000000  0.6508444  3
    368    365    367    369     1  0.0000000  0.6508444  3
    368    365    367    370     1  0.0000000  0.6508444  3
    369    367    371    372     1  180.0000771  0.0000000  2
    369    367    371    373     1  0.0000000  3.3472000  1
    369    367    371    373     1  0.0000000  0.0000000  2
    369    367    371    373     1  180.0000771  0.3347200  3
    370    367    371    372     1  180.0000771  0.0000000  2
    370    367    371    373     1  0.0000000  3.3472000  1
    370    367    371    373     1  0.0000000  0.0000000  2
    370    367    371    373     1  180.0000771  0.3347200  3
    373    371    372    382     1  0.0000000  7.9496000  1
    373    371    372    382     1  180.0000771  9.6232000  2
    374    364    363    384     1  0.0000000  0.6508444  3
    374    364    376    379     1  0.0000000  0.6508444  3
    374    364    376    377     1  0.0000000  0.6508444  3
    374    364    376    378     1  0.0000000  0.6508444  3
    375    364    363    384     1  0.0000000  0.6508444  3
    375    364    376    379     1  0.0000000  0.6508444  3
    375    364    376    377     1  0.0000000  0.6508444  3
    375    364    376    378     1  0.0000000  0.6508444  3
    376    364    363    384     1  0.0000000  0.6508444  3
    376    379    381    383     1  180.0000771  9.6232000  2
    377    376    379    380     1  0.0000000  3.3472000  1
    377    376    379    380     1  0.0000000  0.0000000  2
    377    376    379    380     1  180.0000771  0.3347200  3
    377    376    379    381     1  180.0000771  0.0000000  2
    378    376    379    380     1  0.0000000  3.3472000  1
    378    376    379    380     1  0.0000000  0.0000000  2
    378    376    379    380     1  180.0000771  0.3347200  3
    378    376    379    381     1  180.0000771  0.0000000  2
    380    379    381    383     1  0.0000000  7.9496000  1
    380    379    381    383     1  180.0000771  9.6232000  2
    385    387    389    391     1  0.0000000  0.6508444  3
    385    387    389    392     1  0.0000000  0.6508444  3
    386    385    387    389     1  0.0000000  0.0000000  2
    386    385    387    388     1  0.0000000  0.0000000  2
    386    385    387    390     1  0.0000000  0.0000000  2
    387    389    393    414     1  0.0000000  0.6508444  3
    388    387    389    393     1  0.0000000  0.6508444  3
    388    387    389    391     1  0.0000000  0.6508444  3
    388    387    389    392     1  0.0000000  0.6508444  3
    389    393    394    404     1  0.0000000  0.6508444  3
    389    393    394    405     1  0.0000000  0.6508444  3
    389    393    395    396     1  0.0000000  0.6508444  3
    389    393    395    398     1  0.0000000  0.6508444  3
    390    387    389    393     1  0.0000000  0.6508444  3
    390    387    389    391     1  0.0000000  0.6508444  3
    390    387    389    392     1  0.0000000  0.6508444  3
    391    389    393    394     1  0.0000000  0.6508444  3
    391    389    393    395     1  0.0000000  0.6508444  3
    391    389    393    414     1  0.0000000  0.6508444  3
    392    389    393    394     1  0.0000000  0.6508444  3
    392    389    393    395     1  0.0000000  0.6508444  3
    392    389    393    414     1  0.0000000  0.6508444  3
    393    394    406    407     1  0.0000000  0.6508444  3
    393    394    406    408     1  0.0000000  0.6508444  3
    393    395    397    399     1  0.0000000  0.6508444  3
    393    395    397    400     1  0.0000000  0.6508444  3
    394    393    395    396     1  0.0000000  0.6508444  3
    394    393    395    398     1  0.0000000  0.6508444  3
    395    393    394    404     1  0.0000000  0.6508444  3
    395    393    394    405     1  0.0000000  0.6508444  3
    396    395    397    401     1  0.0000000  0.6508444  3
    396    395    397    399     1  0.0000000  0.6508444  3
    396    395    397    400     1  0.0000000  0.6508444  3
    396    395    393    414     1  0.0000000  0.6508444  3
    397    401    402    412     1  180.0000771  9.6232000  2
    397    395    393    414     1  0.0000000  0.6508444  3
    398    395    397    401     1  0.0000000  0.6508444  3
    398    395    397    399     1  0.0000000  0.6508444  3
    398    395    397    400     1  0.0000000  0.6508444  3
    398    395    393    414     1  0.0000000  0.6508444  3
    399    397    401    402     1  180.0000771  0.0000000  2
    399    397    401    403     1  0.0000000  3.3472000  1
    399    397    401    403     1  0.0000000  0.0000000  2
    399    397    401    403     1  180.0000771  0.3347200  3
    400    397    401    402     1  180.0000771  0.0000000  2
    400    397    401    403     1  0.0000000  3.3472000  1
    400    397    401    403     1  0.0000000  0.0000000  2
    400    397    401    403     1  180.0000771  0.3347200  3
    403    401    402    412     1  0.0000000  7.9496000  1
    403    401    402    412     1  180.0000771  9.6232000  2
    404    394    406    409     1  0.0000000  0.6508444  3
    404    394    406    407     1  0.0000000  0.6508444  3
    404    394    406    408     1  0.0000000  0.6508444  3
    404    394    393    414     1  0.0000000  0.6508444  3
    405    394    406    409     1  0.0000000  0.6508444  3
    405    394    406    407     1  0.0000000  0.6508444  3
    405    394    406    408     1  0.0000000  0.6508444  3
    405    394    393    414     1  0.0000000  0.6508444  3
    406    409    411    413     1  180.0000771  9.6232000  2
    406    394    393    414     1  0.0000000  0.6508444  3
    407    406    409    410     1  0.0000000  3.3472000  1
    407    406    409    410     1  0.0000000  0.0000000  2
    407    406    409    410     1  180.0000771  0.3347200  3
    407    406    409    411     1  180.0000771  0.0000000  2
    408    406    409    410     1  0.0000000  3.3472000  1
    408    406    409    410     1  0.0000000  0.0000000  2
    408    406    409    410     1  180.0000771  0.3347200  3
    408    406    409    411     1  180.0000771  0.0000000  2
    410    409    411    413     1  0.0000000  7.9496000  1
    410    409    411    413     1  180.0000771  9.6232000  2
    415    417    419    421     1  0.0000000  0.6508444  3
    415    417    419    422     1  0.0000000  0.6508444  3
    416    415    417    419     1  0.0000000  0.0000000  2
    416    415    417    418     1  0.0000000  0.0000000  2
    416    415    417    420     1  0.0000000  0.0000000  2
    417    419    423    444     1  0.0000000  0.6508444  3
    418    417    419    423     1  0.0000000  0.6508444  3
    418    417    419    421     1  0.0000000  0.6508444  3
    418    417    419    422     1  0.0000000  0.6508444  3
    419    423    424    434     1  0.0000000  0.6508444  3
    419    423    424    435     1  0.0000000  0.6508444  3
    419    423    425    426     1  0.0000000  0.6508444  3
    419    423    425    428     1  0.0000000  0.6508444  3
    420    417    419    423     1  0.0000000  0.6508444  3
    420    417    419    421     1  0.0000000  0.6508444  3
    420    417    419    422     1  0.0000000  0.6508444  3
    421    419    423    424     1  0.0000000  0.6508444  3
    421    419    423    425     1  0.0000000  0.6508444  3
    421    419    423    444     1  0.0000000  0.6508444  3
    422    419    423    424     1  0.0000000  0.6508444  3
    422    419    423    425     1  0.0000000  0.6508444  3
    422    419    423    444     1  0.0000000  0.6508444  3
    423    424    436    437     1  0.0000000  0.6508444  3
    423    424    436    438     1  0.0000000  0.6508444  3
    423    425    427    429     1  0.0000000  0.6508444  3
    423    425    427    430     1  0.0000000  0.6508444  3
    424    423    425    426     1  0.0000000  0.6508444  3
    424    423    425    428     1  0.0000000  0.6508444  3
    425    423    424    434     1  0.0000000  0.6508444  3
    425    423    424    435     1  0.0000000  0.6508444  3
    426    425    423    444     1  0.0000000  0.6508444  3
    426    425    427    431     1  0.0000000  0.6508444  3
    426    425    427    429     1  0.0000000  0.6508444  3
    426    425    427    430     1  0.0000000  0.6508444  3
    427    425    423    444     1  0.0000000  0.6508444  3
    427    431    432    442     1  180.0000771  9.6232000  2
    428    425    423    444     1  0.0000000  0.6508444  3
    428    425    427    431     1  0.0000000  0.6508444  3
    428    425    427    429     1  0.0000000  0.6508444  3
    428    425    427    430     1  0.0000000  0.6508444  3
    429    427    431    432     1  180.0000771  0.0000000  2
    429    427    431    433     1  0.0000000  3.3472000  1
    429    427    431    433     1  0.0000000  0.0000000  2
    429    427    431    433     1  180.0000771  0.3347200  3
    430    427    431    432     1  180.0000771  0.0000000  2
    430    427    431    433     1  0.0000000  3.3472000  1
    430    427    431    433     1  0.0000000  0.0000000  2
    430    427    431    433     1  180.0000771  0.3347200  3
    433    431    432    442     1  0.0000000  7.9496000  1
    433    431    432    442     1  180.0000771  9.6232000  2
    434    424    423    444     1  0.0000000  0.6508444  3
    434    424    436    439     1  0.0000000  0.6508444  3
    434    424    436    437     1  0.0000000  0.6508444  3
    434    424    436    438     1  0.0000000  0.6508444  3
    435    424    423    444     1  0.0000000  0.6508444  3
    435    424    436    439     1  0.0000000  0.6508444  3
    435    424    436    437     1  0.0000000  0.6508444  3
    435    424    436    438     1  0.0000000  0.6508444  3
    436    424    423    444     1  0.0000000  0.6508444  3
    436    439    441    443     1  180.0000771  9.6232000  2
    437    436    439    440     1  0.0000000  3.3472000  1
    437    436    439    440     1  0.0000000  0.0000000  2
    437    436    439    440     1  180.0000771  0.3347200  3
    437    436    439    441     1  180.0000771  0.0000000  2
    438    436    439    440     1  0.0000000  3.3472000  1
    438    436    439    440     1  0.0000000  0.0000000  2
    438    436    439    440     1  180.0000771  0.3347200  3
    438    436    439    441     1  180.0000771  0.0000000  2
    440    439    441    443     1  0.0000000  7.9496000  1
    440    439    441    443     1  180.0000771  9.6232000  2
    445    447    449    451     1  0.0000000  0.6508444  3
    445    447    449    452     1  0.0000000  0.6508444  3
    446    445    447    449     1  0.0000000  0.0000000  2
    446    445    447    448     1  0.0000000  0.0000000  2
    446    445    447    450     1  0.0000000  0.0000000  2
    447    449    453    474     1  0.0000000  0.6508444  3
    448    447    449    453     1  0.0000000  0.6508444  3
    448    447    449    451     1  0.0000000  0.6508444  3
    448    447    449    452     1  0.0000000  0.6508444  3
    449    453    454    464     1  0.0000000  0.6508444  3
    449    453    454    465     1  0.0000000  0.6508444  3
    449    453    455    456     1  0.0000000  0.6508444  3
    449    453    455    458     1  0.0000000  0.6508444  3
    450    447    449    453     1  0.0000000  0.6508444  3
    450    447    449    451     1  0.0000000  0.6508444  3
    450    447    449    452     1  0.0000000  0.6508444  3
    451    449    453    454     1  0.0000000  0.6508444  3
    451    449    453    455     1  0.0000000  0.6508444  3
    451    449    453    474     1  0.0000000  0.6508444  3
    452    449    453    454     1  0.0000000  0.6508444  3
    452    449    453    455     1  0.0000000  0.6508444  3
    452    449    453    474     1  0.0000000  0.6508444  3
    453    454    466    467     1  0.0000000  0.6508444  3
    453    454    466    468     1  0.0000000  0.6508444  3
    453    455    457    459     1  0.0000000  0.6508444  3
    453    455    457    460     1  0.0000000  0.6508444  3
    454    453    455    456     1  0.0000000  0.6508444  3
    454    453    455    458     1  0.0000000  0.6508444  3
    455    453    454    464     1  0.0000000  0.6508444  3
    455    453    454    465     1  0.0000000  0.6508444  3
    456    455    457    461     1  0.0000000  0.6508444  3
    456    455    457    459     1  0.0000000  0.6508444  3
    456    455    457    460     1  0.0000000  0.6508444  3
    456    455    453    474     1  0.0000000  0.6508444  3
    457    461    462    472     1  180.0000771  9.6232000  2
    457    455    453    474     1  0.0000000  0.6508444  3
    458    455    457    461     1  0.0000000  0.6508444  3
    458    455    457    459     1  0.0000000  0.6508444  3
    458    455    457    460     1  0.0000000  0.6508444  3
    458    455    453    474     1  0.0000000  0.6508444  3
    459    457    461    462     1  180.0000771  0.0000000  2
    459    457    461    463     1  0.0000000  3.3472000  1
    459    457    461    463     1  0.0000000  0.0000000  2
    459    457    461    463     1  180.0000771  0.3347200  3
    460    457    461    462     1  180.0000771  0.0000000  2
    460    457    461    463     1  0.0000000  3.3472000  1
    460    457    461    463     1  0.0000000  0.0000000  2
    460    457    461    463     1  180.0000771  0.3347200  3
    463    461    462    472     1  0.0000000  7.9496000  1
    463    461    462    472     1  180.0000771  9.6232000  2
    464    454    466    469     1  0.0000000  0.6508444  3
    464    454    466    467     1  0.0000000  0.6508444  3
    464    454    466    468     1  0.0000000  0.6508444  3
    464    454    453    474     1  0.0000000  0.6508444  3
    465    454    466    469     1  0.0000000  0.6508444  3
    465    454    466    467     1  0.0000000  0.6508444  3
    465    454    466    468     1  0.0000000  0.6508444  3
    465    454    453    474     1  0.0000000  0.6508444  3
    466    469    471    473     1  180.0000771  9.6232000  2
    466    454    453    474     1  0.0000000  0.6508444  3
    467    466    469    470     1  0.0000000  3.3472000  1
    467    466    469    470     1  0.0000000  0.0000000  2
    467    466    469    470     1  180.0000771  0.3347200  3
    467    466    469    471     1  180.0000771  0.0000000  2
    468    466    469    470     1  0.0000000  3.3472000  1
    468    466    469    470     1  0.0000000  0.0000000  2
    468    466    469    470     1  180.0000771  0.3347200  3
    468    466    469    471     1  180.0000771  0.0000000  2
    470    469    471    473     1  0.0000000  7.9496000  1
    470    469    471    473     1  180.0000771  9.6232000  2
    475    477    479    481     1  0.0000000  0.6508444  3
    475    477    479    482     1  0.0000000  0.6508444  3
    476    475    477    479     1  0.0000000  0.0000000  2
    476    475    477    478     1  0.0000000  0.0000000  2
    476    475    477    480     1  0.0000000  0.0000000  2
    477    479    483    504     1  0.0000000  0.6508444  3
    478    477    479    483     1  0.0000000  0.6508444  3
    478    477    479    481     1  0.0000000  0.6508444  3
    478    477    479    482     1  0.0000000  0.6508444  3
    479    483    484    494     1  0.0000000  0.6508444  3
    479    483    484    495     1  0.0000000  0.6508444  3
    479    483    485    486     1  0.0000000  0.6508444  3
    479    483    485    488     1  0.0000000  0.6508444  3
    480    477    479    483     1  0.0000000  0.6508444  3
    480    477    479    481     1  0.0000000  0.6508444  3
    480    477    479    482     1  0.0000000  0.6508444  3
    481    479    483    484     1  0.0000000  0.6508444  3
    481    479    483    485     1  0.0000000  0.6508444  3
    481    479    483    504     1  0.0000000  0.6508444  3
    482    479    483    484     1  0.0000000  0.6508444  3
    482    479    483    485     1  0.0000000  0.6508444  3
    482    479    483    504     1  0.0000000  0.6508444  3
    483    484    496    497     1  0.0000000  0.6508444  3
    483    484    496    498     1  0.0000000  0.6508444  3
    483    485    487    489     1  0.0000000  0.6508444  3
    483    485    487    490     1  0.0000000  0.6508444  3
    484    483    485    486     1  0.0000000  0.6508444  3
    484    483    485    488     1  0.0000000  0.6508444  3
    485    483    484    494     1  0.0000000  0.6508444  3
    485    483    484    495     1  0.0000000  0.6508444  3
    486    485    483    504     1  0.0000000  0.6508444  3
    486    485    487    491     1  0.0000000  0.6508444  3
    486    485    487    489     1  0.0000000  0.6508444  3
    486    485    487    490     1  0.0000000  0.6508444  3
    487    485    483    504     1  0.0000000  0.6508444  3
    487    491    492    502     1  180.0000771  9.6232000  2
    488    485    483    504     1  0.0000000  0.6508444  3
    488    485    487    491     1  0.0000000  0.6508444  3
    488    485    487    489     1  0.0000000  0.6508444  3
    488    485    487    490     1  0.0000000  0.6508444  3
    489    487    491    492     1  180.0000771  0.0000000  2
    489    487    491    493     1  0.0000000  3.3472000  1
    489    487    491    493     1  0.0000000  0.0000000  2
    489    487    491    493     1  180.0000771  0.3347200  3
    490    487    491    492     1  180.0000771  0.0000000  2
    490    487    491    493     1  0.0000000  3.3472000  1
    490    487    491    493     1  0.0000000  0.0000000  2
    490    487    491    493     1  180.0000771  0.3347200  3
    493    491    492    502     1  0.0000000  7.9496000  1
    493    491    492    502     1  180.0000771  9.6232000  2
    494    484    483    504     1  0.0000000  0.6508444  3
    494    484    496    499     1  0.0000000  0.6508444  3
    494    484    496    497     1  0.0000000  0.6508444  3
    494    484    496    498     1  0.0000000  0.6508444  3
    495    484    483    504     1  0.0000000  0.6508444  3
    495    484    496    499     1  0.0000000  0.6508444  3
    495    484    496    497     1  0.0000000  0.6508444  3
    495    484    496    498     1  0.0000000  0.6508444  3
    496    484    483    504     1  0.0000000  0.6508444  3
    496    499    501    503     1  180.0000771  9.6232000  2
    497    496    499    500     1  0.0000000  3.3472000  1
    497    496    499    500     1  0.0000000  0.0000000  2
    497    496    499    500     1  180.0000771  0.3347200  3
    497    496    499    501     1  180.0000771  0.0000000  2
    498    496    499    500     1  0.0000000  3.3472000  1
    498    496    499    500     1  0.0000000  0.0000000  2
    498    496    499    500     1  180.0000771  0.3347200  3
    498    496    499    501     1  180.0000771  0.0000000  2
    500    499    501    503     1  0.0000000  7.9496000  1
    500    499    501    503     1  180.0000771  9.6232000  2
    505    507    509    511     1  0.0000000  0.6508444  3
    505    507    509    512     1  0.0000000  0.6508444  3
    506    505    507    509     1  0.0000000  0.0000000  2
    506    505    507    508     1  0.0000000  0.0000000  2
    506    505    507    510     1  0.0000000  0.0000000  2
    507    509    513    534     1  0.0000000  0.6508444  3
    508    507    509    513     1  0.0000000  0.6508444  3
    508    507    509    511     1  0.0000000  0.6508444  3
    508    507    509    512     1  0.0000000  0.6508444  3
    509    513    514    524     1  0.0000000  0.6508444  3
    509    513    514    525     1  0.0000000  0.6508444  3
    509    513    515    516     1  0.0000000  0.6508444  3
    509    513    515    518     1  0.0000000  0.6508444  3
    510    507    509    513     1  0.0000000  0.6508444  3
    510    507    509    511     1  0.0000000  0.6508444  3
    510    507    509    512     1  0.0000000  0.6508444  3
    511    509    513    514     1  0.0000000  0.6508444  3
    511    509    513    515     1  0.0000000  0.6508444  3
    511    509    513    534     1  0.0000000  0.6508444  3
    512    509    513    514     1  0.0000000  0.6508444  3
    512    509    513    515     1  0.0000000  0.6508444  3
    512    509    513    534     1  0.0000000  0.6508444  3
    513    514    526    527     1  0.0000000  0.6508444  3
    513    514    526    528     1  0.0000000  0.6508444  3
    513    515    517    519     1  0.0000000  0.6508444  3
    513    515    517    520     1  0.0000000  0.6508444  3
    514    513    515    516     1  0.0000000  0.6508444  3
    514    513    515    518     1  0.0000000  0.6508444  3
    515    513    514    524     1  0.0000000  0.6508444  3
    515    513    514    525     1  0.0000000  0.6508444  3
    516    515    517    521     1  0.0000000  0.6508444  3
    516    515    517    519     1  0.0000000  0.6508444  3
    516    515    517    520     1  0.0000000  0.6508444  3
    516    515    513    534     1  0.0000000  0.6508444  3
    517    521    522    532     1  180.0000771  9.6232000  2
    517    515    513    534     1  0.0000000  0.6508444  3
    518    515    517    521     1  0.0000000  0.6508444  3
    518    515    517    519     1  0.0000000  0.6508444  3
    518    515    517    520     1  0.0000000  0.6508444  3
    518    515    513    534     1  0.0000000  0.6508444  3
    519    517    521    522     1  180.0000771  0.0000000  2
    519    517    521    523     1  0.0000000  3.3472000  1
    519    517    521    523     1  0.0000000  0.0000000  2
    519    517    521    523     1  180.0000771  0.3347200  3
    520    517    521    522     1  180.0000771  0.0000000  2
    520    517    521    523     1  0.0000000  3.3472000  1
    520    517    521    523     1  0.0000000  0.0000000  2
    520    517    521    523     1  180.0000771  0.3347200  3
    523    521    522    532     1  0.0000000  7.9496000  1
    523    521    522    532     1  180.0000771  9.6232000  2
    524    514    526    529     1  0.0000000  0.6508444  3
    524    514    526    527     1  0.0000000  0.6508444  3
    524    514    526    528     1  0.0000000  0.6508444  3
    524    514    513    534     1  0.0000000  0.6508444  3
    525    514    526    529     1  0.0000000  0.6508444  3
    525    514    526    527     1  0.0000000  0.6508444  3
    525    514    526    528     1  0.0000000  0.6508444  3
    525    514    513    534     1  0.0000000  0.6508444  3
    526    529    531    533     1  180.0000771  9.6232000  2
    526    514    513    534     1  0.0000000  0.6508444  3
    527    526    529    530     1  0.0000000  3.3472000  1
    527    526    529    530     1  0.0000000  0.0000000  2
    527    526    529    530     1  180.0000771  0.3347200  3
    527    526    529    531     1  180.0000771  0.0000000  2
    528    526    529    530     1  0.0000000  3.3472000  1
    528    526    529    530     1  0.0000000  0.0000000  2
    528    526    529    530     1  180.0000771  0.3347200  3
    528    526    529    531     1  180.0000771  0.0000000  2
    530    529    531    533     1  0.0000000  7.9496000  1
    530    529    531    533     1  180.0000771  9.6232000  2
    535    537    539    541     1  0.0000000  0.6508444  3
    535    537    539    542     1  0.0000000  0.6508444  3
    536    535    537    539     1  0.0000000  0.0000000  2
    536    535    537    538     1  0.0000000  0.0000000  2
    536    535    537    540     1  0.0000000  0.0000000  2
    537    539    543    564     1  0.0000000  0.6508444  3
    538    537    539    543     1  0.0000000  0.6508444  3
    538    537    539    541     1  0.0000000  0.6508444  3
    538    537    539    542     1  0.0000000  0.6508444  3
    539    543    544    554     1  0.0000000  0.6508444  3
    539    543    544    555     1  0.0000000  0.6508444  3
    539    543    545    546     1  0.0000000  0.6508444  3
    539    543    545    548     1  0.0000000  0.6508444  3
    540    537    539    543     1  0.0000000  0.6508444  3
    540    537    539    541     1  0.0000000  0.6508444  3
    540    537    539    542     1  0.0000000  0.6508444  3
    541    539    543    544     1  0.0000000  0.6508444  3
    541    539    543    545     1  0.0000000  0.6508444  3
    541    539    543    564     1  0.0000000  0.6508444  3
    542    539    543    544     1  0.0000000  0.6508444  3
    542    539    543    545     1  0.0000000  0.6508444  3
    542    539    543    564     1  0.0000000  0.6508444  3
    543    544    556    557     1  0.0000000  0.6508444  3
    543    544    556    558     1  0.0000000  0.6508444  3
    543    545    547    549     1  0.0000000  0.6508444  3
    543    545    547    550     1  0.0000000  0.6508444  3
    544    543    545    546     1  0.0000000  0.6508444  3
    544    543    545    548     1  0.0000000  0.6508444  3
    545    543    544    554     1  0.0000000  0.6508444  3
    545    543    544    555     1  0.0000000  0.6508444  3
    546    545    543    564     1  0.0000000  0.6508444  3
    546    545    547    551     1  0.0000000  0.6508444  3
    546    545    547    549     1  0.0000000  0.6508444  3
    546    545    547    550     1  0.0000000  0.6508444  3
    547    545    543    564     1  0.0000000  0.6508444  3
    547    551    552    562     1  180.0000771  9.6232000  2
    548    545    543    564     1  0.0000000  0.6508444  3
    548    545    547    551     1  0.0000000  0.6508444  3
    548    545    547    549     1  0.0000000  0.6508444  3
    548    545    547    550     1  0.0000000  0.6508444  3
    549    547    551    552     1  180.0000771  0.0000000  2
    549    547    551    553     1  0.0000000  3.3472000  1
    549    547    551    553     1  0.0000000  0.0000000  2
    549    547    551    553     1  180.0000771  0.3347200  3
    550    547    551    552     1  180.0000771  0.0000000  2
    550    547    551    553     1  0.0000000  3.3472000  1
    550    547    551    553     1  0.0000000  0.0000000  2
    550    547    551    553     1  180.0000771  0.3347200  3
    553    551    552    562     1  0.0000000  7.9496000  1
    553    551    552    562     1  180.0000771  9.6232000  2
    554    544    543    564     1  0.0000000  0.6508444  3
    554    544    556    559     1  0.0000000  0.6508444  3
    554    544    556    557     1  0.0000000  0.6508444  3
    554    544    556    558     1  0.0000000  0.6508444  3
    555    544    543    564     1  0.0000000  0.6508444  3
    555    544    556    559     1  0.0000000  0.6508444  3
    555    544    556    557     1  0.0000000  0.6508444  3
    555    544    556    558     1  0.0000000  0.6508444  3
    556    544    543    564     1  0.0000000  0.6508444  3
    556    559    561    563     1  180.0000771  9.6232000  2
    557    556    559    560     1  0.0000000  3.3472000  1
    557    556    559    560     1  0.0000000  0.0000000  2
    557    556    559    560     1  180.0000771  0.3347200  3
    557    556    559    561     1  180.0000771  0.0000000  2
    558    556    559    560     1  0.0000000  3.3472000  1
    558    556    559    560     1  0.0000000  0.0000000  2
    558    556    559    560     1  180.0000771  0.3347200  3
    558    556    559    561     1  180.0000771  0.0000000  2
    560    559    561    563     1  0.0000000  7.9496000  1
    560    559    561    563     1  180.0000771  9.6232000  2
    565    567    569    571     1  0.0000000  0.6508444  3
    565    567    569    572     1  0.0000000  0.6508444  3
    566    565    567    569     1  0.0000000  0.0000000  2
    566    565    567    568     1  0.0000000  0.0000000  2
    566    565    567    570     1  0.0000000  0.0000000  2
    567    569    573    594     1  0.0000000  0.6508444  3
    568    567    569    573     1  0.0000000  0.6508444  3
    568    567    569    571     1  0.0000000  0.6508444  3
    568    567    569    572     1  0.0000000  0.6508444  3
    569    573    574    584     1  0.0000000  0.6508444  3
    569    573    574    585     1  0.0000000  0.6508444  3
    569    573    575    576     1  0.0000000  0.6508444  3
    569    573    575    578     1  0.0000000  0.6508444  3
    570    567    569    573     1  0.0000000  0.6508444  3
    570    567    569    571     1  0.0000000  0.6508444  3
    570    567    569    572     1  0.0000000  0.6508444  3
    571    569    573    574     1  0.0000000  0.6508444  3
    571    569    573    575     1  0.0000000  0.6508444  3
    571    569    573    594     1  0.0000000  0.6508444  3
    572    569    573    574     1  0.0000000  0.6508444  3
    572    569    573    575     1  0.0000000  0.6508444  3
    572    569    573    594     1  0.0000000  0.6508444  3
    573    574    586    587     1  0.0000000  0.6508444  3
    573    574    586    588     1  0.0000000  0.6508444  3
    573    575    577    579     1  0.0000000  0.6508444  3
    573    575    577    580     1  0.0000000  0.6508444  3
    574    573    575    576     1  0.0000000  0.6508444  3
    574    573    575    578     1  0.0000000  0.6508444  3
    575    573    574    584     1  0.0000000  0.6508444  3
    575    573    574    585     1  0.0000000  0.6508444  3
    576    575    577    581     1  0.0000000  0.6508444  3
    576    575    577    579     1  0.0000000  0.6508444  3
    576    575    577    580     1  0.0000000  0.6508444  3
    576    575    573    594     1  0.0000000  0.6508444  3
    577    581    582    592     1  180.0000771  9.6232000  2
    577    575    573    594     1  0.0000000  0.6508444  3
    578    575    577    581     1  0.0000000  0.6508444  3
    578    575    577    579     1  0.0000000  0.6508444  3
    578    575    577    580     1  0.0000000  0.6508444  3
    578    575    573    594     1  0.0000000  0.6508444  3
    579    577    581    582     1  180.0000771  0.0000000  2
    579    577    581    583     1  0.0000000  3.3472000  1
    579    577    581    583     1  0.0000000  0.0000000  2
    579    577    581    583     1  180.0000771  0.3347200  3
    580    577    581    582     1  180.0000771  0.0000000  2
    580    577    581    583     1  0.0000000  3.3472000  1
    580    577    581    583     1  0.0000000  0.0000000  2
    580    577    581    583     1  180.0000771  0.3347200  3
    583    581    582    592     1  0.0000000  7.9496000  1
    583    581    582    592     1  180.0000771  9.6232000  2
    584    574    586    589     1  0.0000000  0.6508444  3
    584    574    586    587     1  0.0000000  0.6508444  3
    584    574    586    588     1  0.0000000  0.6508444  3
    584    574    573    594     1  0.0000000  0.6508444  3
    585    574    586    589     1  0.0000000  0.6508444  3
    585    574    586    587     1  0.0000000  0.6508444  3
    585    574    586    588     1  0.0000000  0.6508444  3
    585    574    573    594     1  0.0000000  0.6508444  3
    586    589    591    593     1  180.0000771  9.6232000  2
    586    574    573    594     1  0.0000000  0.6508444  3
    587    586    589    590     1  0.0000000  3.3472000  1
    587    586    589    590     1  0.0000000  0.0000000  2
    587    586    589    590     1  180.0000771  0.3347200  3
    587    586    589    591     1  180.0000771  0.0000000  2
    588    586    589    590     1  0.0000000  3.3472000  1
    588    586    589    590     1  0.0000000  0.0000000  2
    588    586    589    590     1  180.0000771  0.3347200  3
    588    586    589    591     1  180.0000771  0.0000000  2
    590    589    591    593     1  0.0000000  7.9496000  1
    590    589    591    593     1  180.0000771  9.6232000  2
    595    597    599    601     1  0.0000000  0.6508444  3
    595    597    599    602     1  0.0000000  0.6508444  3
    596    595    597    599     1  0.0000000  0.0000000  2
    596    595    597    598     1  0.0000000  0.0000000  2
    596    595    597    600     1  0.0000000  0.0000000  2
    597    599    603    624     1  0.0000000  0.6508444  3
    598    597    599    603     1  0.0000000  0.6508444  3
    598    597    599    601     1  0.0000000  0.6508444  3
    598    597    599    602     1  0.0000000  0.6508444  3
    599    603    604    614     1  0.0000000  0.6508444  3
    599    603    604    615     1  0.0000000  0.6508444  3
    599    603    605    606     1  0.0000000  0.6508444  3
    599    603    605    608     1  0.0000000  0.6508444  3
    600    597    599    603     1  0.0000000  0.6508444  3
    600    597    599    601     1  0.0000000  0.6508444  3
    600    597    599    602     1  0.0000000  0.6508444  3
    601    599    603    604     1  0.0000000  0.6508444  3
    601    599    603    605     1  0.0000000  0.6508444  3
    601    599    603    624     1  0.0000000  0.6508444  3
    602    599    603    604     1  0.0000000  0.6508444  3
    602    599    603    605     1  0.0000000  0.6508444  3
    602    599    603    624     1  0.0000000  0.6508444  3
    603    604    616    617     1  0.0000000  0.6508444  3
    603    604    616    618     1  0.0000000  0.6508444  3
    603    605    607    609     1  0.0000000  0.6508444  3
    603    605    607    610     1  0.0000000  0.6508444  3
    604    603    605    606     1  0.0000000  0.6508444  3
    604    603    605    608     1  0.0000000  0.6508444  3
    605    603    604    614     1  0.0000000  0.6508444  3
    605    603    604    615     1  0.0000000  0.6508444  3
    606    605    603    624     1  0.0000000  0.6508444  3
    606    605    607    611     1  0.0000000  0.6508444  3
    606    605    607    609     1  0.0000000  0.6508444  3
    606    605    607    610     1  0.0000000  0.6508444  3
    607    605    603    624     1  0.0000000  0.6508444  3
    607    611    612    622     1  180.0000771  9.6232000  2
    608    605    603    624     1  0.0000000  0.6508444  3
    608    605    607    611     1  0.0000000  0.6508444  3
    608    605    607    609     1  0.0000000  0.6508444  3
    608    605    607    610     1  0.0000000  0.6508444  3
    609    607    611    612     1  180.0000771  0.0000000  2
    609    607    611    613     1  0.0000000  3.3472000  1
    609    607    611    613     1  0.0000000  0.0000000  2
    609    607    611    613     1  180.0000771  0.3347200  3
    610    607    611    612     1  180.0000771  0.0000000  2
    610    607    611    613     1  0.0000000  3.3472000  1
    610    607    611    613     1  0.0000000  0.0000000  2
    610    607    611    613     1  180.0000771  0.3347200  3
    613    611    612    622     1  0.0000000  7.9496000  1
    613    611    612    622     1  180.0000771  9.6232000  2
    614    604    603    624     1  0.0000000  0.6508444  3
    614    604    616    619     1  0.0000000  0.6508444  3
    614    604    616    617     1  0.0000000  0.6508444  3
    614    604    616    618     1  0.0000000  0.6508444  3
    615    604    603    624     1  0.0000000  0.6508444  3
    615    604    616    619     1  0.0000000  0.6508444  3
    615    604    616    617     1  0.0000000  0.6508444  3
    615    604    616    618     1  0.0000000  0.6508444  3
    616    604    603    624     1  0.0000000  0.6508444  3
    616    619    621    623     1  180.0000771  9.6232000  2
    617    616    619    620     1  0.0000000  3.3472000  1
    617    616    619    620     1  0.0000000  0.0000000  2
    617    616    619    620     1  180.0000771  0.3347200  3
    617    616    619    621     1  180.0000771  0.0000000  2
    618    616    619    620     1  0.0000000  3.3472000  1
    618    616    619    620     1  0.0000000  0.0000000  2
    618    616    619    620     1  180.0000771  0.3347200  3
    618    616    619    621     1  180.0000771  0.0000000  2
    620    619    621    623     1  0.0000000  7.9496000  1
    620    619    621    623     1  180.0000771  9.6232000  2
    625    627    629    631     1  0.0000000  0.6508444  3
    625    627    629    632     1  0.0000000  0.6508444  3
    626    625    627    629     1  0.0000000  0.0000000  2
    626    625    627    628     1  0.0000000  0.0000000  2
    626    625    627    630     1  0.0000000  0.0000000  2
    627    629    633    654     1  0.0000000  0.6508444  3
    628    627    629    633     1  0.0000000  0.6508444  3
    628    627    629    631     1  0.0000000  0.6508444  3
    628    627    629    632     1  0.0000000  0.6508444  3
    629    633    634    644     1  0.0000000  0.6508444  3
    629    633    634    645     1  0.0000000  0.6508444  3
    629    633    635    636     1  0.0000000  0.6508444  3
    629    633    635    638     1  0.0000000  0.6508444  3
    630    627    629    633     1  0.0000000  0.6508444  3
    630    627    629    631     1  0.0000000  0.6508444  3
    630    627    629    632     1  0.0000000  0.6508444  3
    631    629    633    634     1  0.0000000  0.6508444  3
    631    629    633    635     1  0.0000000  0.6508444  3
    631    629    633    654     1  0.0000000  0.6508444  3
    632    629    633    634     1  0.0000000  0.6508444  3
    632    629    633    635     1  0.0000000  0.6508444  3
    632    629    633    654     1  0.0000000  0.6508444  3
    633    634    646    647     1  0.0000000  0.6508444  3
    633    634    646    648     1  0.0000000  0.6508444  3
    633    635    637    639     1  0.0000000  0.6508444  3
    633    635    637    640     1  0.0000000  0.6508444  3
    634    633    635    636     1  0.0000000  0.6508444  3
    634    633    635    638     1  0.0000000  0.6508444  3
    635    633    634    644     1  0.0000000  0.6508444  3
    635    633    634    645     1  0.0000000  0.6508444  3
    636    635    637    641     1  0.0000000  0.6508444  3
    636    635    637    639     1  0.0000000  0.6508444  3
    636    635    637    640     1  0.0000000  0.6508444  3
    636    635    633    654     1  0.0000000  0.6508444  3
    637    641    642    652     1  180.0000771  9.6232000  2
    637    635    633    654     1  0.0000000  0.6508444  3
    638    635    637    641     1  0.0000000  0.6508444  3
    638    635    637    639     1  0.0000000  0.6508444  3
    638    635    637    640     1  0.0000000  0.6508444  3
    638    635    633    654     1  0.0000000  0.6508444  3
    639    637    641    642     1  180.0000771  0.0000000  2
    639    637    641    643     1  0.0000000  3.3472000  1
    639    637    641    643     1  0.0000000  0.0000000  2
    639    637    641    643     1  180.0000771  0.3347200  3
    640    637    641    642     1  180.0000771  0.0000000  2
    640    637    641    643     1  0.0000000  3.3472000  1
    640    637    641    643     1  0.0000000  0.0000000  2
    640    637    641    643     1  180.0000771  0.3347200  3
    643    641    642    652     1  0.0000000  7.9496000  1
    643    641    642    652     1  180.0000771  9.6232000  2
    644    634    646    649     1  0.0000000  0.6508444  3
    644    634    646    647     1  0.0000000  0.6508444  3
    644    634    646    648     1  0.0000000  0.6508444  3
    644    634    633    654     1  0.0000000  0.6508444  3
    645    634    646    649     1  0.0000000  0.6508444  3
    645    634    646    647     1  0.0000000  0.6508444  3
    645    634    646    648     1  0.0000000  0.6508444  3
    645    634    633    654     1  0.0000000  0.6508444  3
    646    649    651    653     1  180.0000771  9.6232000  2
    646    634    633    654     1  0.0000000  0.6508444  3
    647    646    649    650     1  0.0000000  3.3472000  1
    647    646    649    650     1  0.0000000  0.0000000  2
    647    646    649    650     1  180.0000771  0.3347200  3
    647    646    649    651     1  180.0000771  0.0000000  2
    648    646    649    650     1  0.0000000  3.3472000  1
    648    646    649    650     1  0.0000000  0.0000000  2
    648    646    649    650     1  180.0000771  0.3347200  3
    648    646    649    651     1  180.0000771  0.0000000  2
    650    649    651    653     1  0.0000000  7.9496000  1
    650    649    651    653     1  180.0000771  9.6232000  2
    655    657    659    661     1  0.0000000  0.6508444  3
    655    657    659    662     1  0.0000000  0.6508444  3
    656    655    657    659     1  0.0000000  0.0000000  2
    656    655    657    658     1  0.0000000  0.0000000  2
    656    655    657    660     1  0.0000000  0.0000000  2
    657    659    663    684     1  0.0000000  0.6508444  3
    658    657    659    663     1  0.0000000  0.6508444  3
    658    657    659    661     1  0.0000000  0.6508444  3
    658    657    659    662     1  0.0000000  0.6508444  3
    659    663    664    674     1  0.0000000  0.6508444  3
    659    663    664    675     1  0.0000000  0.6508444  3
    659    663    665    666     1  0.0000000  0.6508444  3
    659    663    665    668     1  0.0000000  0.6508444  3
    660    657    659    663     1  0.0000000  0.6508444  3
    660    657    659    661     1  0.0000000  0.6508444  3
    660    657    659    662     1  0.0000000  0.6508444  3
    661    659    663    664     1  0.0000000  0.6508444  3
    661    659    663    665     1  0.0000000  0.6508444  3
    661    659    663    684     1  0.0000000  0.6508444  3
    662    659    663    664     1  0.0000000  0.6508444  3
    662    659    663    665     1  0.0000000  0.6508444  3
    662    659    663    684     1  0.0000000  0.6508444  3
    663    664    676    677     1  0.0000000  0.6508444  3
    663    664    676    678     1  0.0000000  0.6508444  3
    663    665    667    669     1  0.0000000  0.6508444  3
    663    665    667    670     1  0.0000000  0.6508444  3
    664    663    665    666     1  0.0000000  0.6508444  3
    664    663    665    668     1  0.0000000  0.6508444  3
    665    663    664    674     1  0.0000000  0.6508444  3
    665    663    664    675     1  0.0000000  0.6508444  3
    666    665    663    684     1  0.0000000  0.6508444  3
    666    665    667    671     1  0.0000000  0.6508444  3
    666    665    667    669     1  0.0000000  0.6508444  3
    666    665    667    670     1  0.0000000  0.6508444  3
    667    665    663    684     1  0.0000000  0.6508444  3
    667    671    672    682     1  180.0000771  9.6232000  2
    668    665    663    684     1  0.0000000  0.6508444  3
    668    665    667    671     1  0.0000000  0.6508444  3
    668    665    667    669     1  0.0000000  0.6508444  3
    668    665    667    670     1  0.0000000  0.6508444  3
    669    667    671    672     1  180.0000771  0.0000000  2
    669    667    671    673     1  0.0000000  3.3472000  1
    669    667    671    673     1  0.0000000  0.0000000  2
    669    667    671    673     1  180.0000771  0.3347200  3
    670    667    671    672     1  180.0000771  0.0000000  2
    670    667    671    673     1  0.0000000  3.3472000  1
    670    667    671    673     1  0.0000000  0.0000000  2
    670    667    671    673     1  180.0000771  0.3347200  3
    673    671    672    682     1  0.0000000  7.9496000  1
    673    671    672    682     1  180.0000771  9.6232000  2
    674    664    663    684     1  0.0000000  0.6508444  3
    674    664    676    679     1  0.0000000  0.6508444  3
    674    664    676    677     1  0.0000000  0.6508444  3
    674    664    676    678     1  0.0000000  0.6508444  3
    675    664    663    684     1  0.0000000  0.6508444  3
    675    664    676    679     1  0.0000000  0.6508444  3
    675    664    676    677     1  0.0000000  0.6508444  3
    675    664    676    678     1  0.0000000  0.6508444  3
    676    664    663    684     1  0.0000000  0.6508444  3
    676    679    681    683     1  180.0000771  9.6232000  2
    677    676    679    680     1  0.0000000  3.3472000  1
    677    676    679    680     1  0.0000000  0.0000000  2
    677    676    679    680     1  180.0000771  0.3347200  3
    677    676    679    681     1  180.0000771  0.0000000  2
    678    676    679    680     1  0.0000000  3.3472000  1
    678    676    679    680     1  0.0000000  0.0000000  2
    678    676    679    680     1  180.0000771  0.3347200  3
    678    676    679    681     1  180.0000771  0.0000000  2
    680    679    681    683     1  0.0000000  7.9496000  1
    680    679    681    683     1  180.0000771  9.6232000  2
    685    687    689    691     1  0.0000000  0.6508444  3
    685    687    689    692     1  0.0000000  0.6508444  3
    686    685    687    689     1  0.0000000  0.0000000  2
    686    685    687    688     1  0.0000000  0.0000000  2
    686    685    687    690     1  0.0000000  0.0000000  2
    687    689    693    714     1  0.0000000  0.6508444  3
    688    687    689    693     1  0.0000000  0.6508444  3
    688    687    689    691     1  0.0000000  0.6508444  3
    688    687    689    692     1  0.0000000  0.6508444  3
    689    693    694    704     1  0.0000000  0.6508444  3
    689    693    694    705     1  0.0000000  0.6508444  3
    689    693    695    696     1  0.0000000  0.6508444  3
    689    693    695    698     1  0.0000000  0.6508444  3
    690    687    689    693     1  0.0000000  0.6508444  3
    690    687    689    691     1  0.0000000  0.6508444  3
    690    687    689    692     1  0.0000000  0.6508444  3
    691    689    693    694     1  0.0000000  0.6508444  3
    691    689    693    695     1  0.0000000  0.6508444  3
    691    689    693    714     1  0.0000000  0.6508444  3
    692    689    693    694     1  0.0000000  0.6508444  3
    692    689    693    695     1  0.0000000  0.6508444  3
    692    689    693    714     1  0.0000000  0.6508444  3
    693    694    706    707     1  0.0000000  0.6508444  3
    693    694    706    708     1  0.0000000  0.6508444  3
    693    695    697    699     1  0.0000000  0.6508444  3
    693    695    697    700     1  0.0000000  0.6508444  3
    694    693    695    696     1  0.0000000  0.6508444  3
    694    693    695    698     1  0.0000000  0.6508444  3
    695    693    694    704     1  0.0000000  0.6508444  3
    695    693    694    705     1  0.0000000  0.6508444  3
    696    695    697    701     1  0.0000000  0.6508444  3
    696    695    697    699     1  0.0000000  0.6508444  3
    696    695    697    700     1  0.0000000  0.6508444  3
    696    695    693    714     1  0.0000000  0.6508444  3
    697    701    702    712     1  180.0000771  9.6232000  2
    697    695    693    714     1  0.0000000  0.6508444  3
    698    695    697    701     1  0.0000000  0.6508444  3
    698    695    697    699     1  0.0000000  0.6508444  3
    698    695    697    700     1  0.0000000  0.6508444  3
    698    695    693    714     1  0.0000000  0.6508444  3
    699    697    701    702     1  180.0000771  0.0000000  2
    699    697    701    703     1  0.0000000  3.3472000  1
    699    697    701    703     1  0.0000000  0.0000000  2
    699    697    701    703     1  180.0000771  0.3347200  3
    700    697    701    702     1  180.0000771  0.0000000  2
    700    697    701    703     1  0.0000000  3.3472000  1
    700    697    701    703     1  0.0000000  0.0000000  2
    700    697    701    703     1  180.0000771  0.3347200  3
    703    701    702    712     1  0.0000000  7.9496000  1
    703    701    702    712     1  180.0000771  9.6232000  2
    704    694    706    709     1  0.0000000  0.6508444  3
    704    694    706    707     1  0.0000000  0.6508444  3
    704    694    706    708     1  0.0000000  0.6508444  3
    704    694    693    714     1  0.0000000  0.6508444  3
    705    694    706    709     1  0.0000000  0.6508444  3
    705    694    706    707     1  0.0000000  0.6508444  3
    705    694    706    708     1  0.0000000  0.6508444  3
    705    694    693    714     1  0.0000000  0.6508444  3
    706    709    711    713     1  180.0000771  9.6232000  2
    706    694    693    714     1  0.0000000  0.6508444  3
    707    706    709    710     1  0.0000000  3.3472000  1
    707    706    709    710     1  0.0000000  0.0000000  2
    707    706    709    710     1  180.0000771  0.3347200  3
    707    706    709    711     1  180.0000771  0.0000000  2
    708    706    709    710     1  0.0000000  3.3472000  1
    708    706    709    710     1  0.0000000  0.0000000  2
    708    706    709    710     1  180.0000771  0.3347200  3
    708    706    709    711     1  180.0000771  0.0000000  2
    710    709    711    713     1  0.0000000  7.9496000  1
    710    709    711    713     1  180.0000771  9.6232000  2
    715    717    719    721     1  0.0000000  0.6508444  3
    715    717    719    722     1  0.0000000  0.6508444  3
    716    715    717    719     1  0.0000000  0.0000000  2
    716    715    717    718     1  0.0000000  0.0000000  2
    716    715    717    720     1  0.0000000  0.0000000  2
    717    719    723    744     1  0.0000000  0.6508444  3
    718    717    719    723     1  0.0000000  0.6508444  3
    718    717    719    721     1  0.0000000  0.6508444  3
    718    717    719    722     1  0.0000000  0.6508444  3
    719    723    724    734     1  0.0000000  0.6508444  3
    719    723    724    735     1  0.0000000  0.6508444  3
    719    723    725    726     1  0.0000000  0.6508444  3
    719    723    725    728     1  0.0000000  0.6508444  3
    720    717    719    723     1  0.0000000  0.6508444  3
    720    717    719    721     1  0.0000000  0.6508444  3
    720    717    719    722     1  0.0000000  0.6508444  3
    721    719    723    724     1  0.0000000  0.6508444  3
    721    719    723    725     1  0.0000000  0.6508444  3
    721    719    723    744     1  0.0000000  0.6508444  3
    722    719    723    724     1  0.0000000  0.6508444  3
    722    719    723    725     1  0.0000000  0.6508444  3
    722    719    723    744     1  0.0000000  0.6508444  3
    723    724    736    737     1  0.0000000  0.6508444  3
    723    724    736    738     1  0.0000000  0.6508444  3
    723    725    727    729     1  0.0000000  0.6508444  3
    723    725    727    730     1  0.0000000  0.6508444  3
    724    723    725    726     1  0.0000000  0.6508444  3
    724    723    725    728     1  0.0000000  0.6508444  3
    725    723    724    734     1  0.0000000  0.6508444  3
    725    723    724    735     1  0.0000000  0.6508444  3
    726    725    723    744     1  0.0000000  0.6508444  3
    726    725    727    731     1  0.0000000  0.6508444  3
    726    725    727    729     1  0.0000000  0.6508444  3
    726    725    727    730     1  0.0000000  0.6508444  3
    727    725    723    744     1  0.0000000  0.6508444  3
    727    731    732    742     1  180.0000771  9.6232000  2
    728    725    723    744     1  0.0000000  0.6508444  3
    728    725    727    731     1  0.0000000  0.6508444  3
    728    725    727    729     1  0.0000000  0.6508444  3
    728    725    727    730     1  0.0000000  0.6508444  3
    729    727    731    732     1  180.0000771  0.0000000  2
    729    727    731    733     1  0.0000000  3.3472000  1
    729    727    731    733     1  0.0000000  0.0000000  2
    729    727    731    733     1  180.0000771  0.3347200  3
    730    727    731    732     1  180.0000771  0.0000000  2
    730    727    731    733     1  0.0000000  3.3472000  1
    730    727    731    733     1  0.0000000  0.0000000  2
    730    727    731    733     1  180.0000771  0.3347200  3
    733    731    732    742     1  0.0000000  7.9496000  1
    733    731    732    742     1  180.0000771  9.6232000  2
    734    724    723    744     1  0.0000000  0.6508444  3
    734    724    736    739     1  0.0000000  0.6508444  3
    734    724    736    737     1  0.0000000  0.6508444  3
    734    724    736    738     1  0.0000000  0.6508444  3
    735    724    723    744     1  0.0000000  0.6508444  3
    735    724    736    739     1  0.0000000  0.6508444  3
    735    724    736    737     1  0.0000000  0.6508444  3
    735    724    736    738     1  0.0000000  0.6508444  3
    736    724    723    744     1  0.0000000  0.6508444  3
    736    739    741    743     1  180.0000771  9.6232000  2
    737    736    739    740     1  0.0000000  3.3472000  1
    737    736    739    740     1  0.0000000  0.0000000  2
    737    736    739    740     1  180.0000771  0.3347200  3
    737    736    739    741     1  180.0000771  0.0000000  2
    738    736    739    740     1  0.0000000  3.3472000  1
    738    736    739    740     1  0.0000000  0.0000000  2
    738    736    739    740     1  180.0000771  0.3347200  3
    738    736    739    741     1  180.0000771  0.0000000  2
    740    739    741    743     1  0.0000000  7.9496000  1
    740    739    741    743     1  180.0000771  9.6232000  2
    745    747    749    751     1  0.0000000  0.6508444  3
    745    747    749    752     1  0.0000000  0.6508444  3
    746    745    747    749     1  0.0000000  0.0000000  2
    746    745    747    748     1  0.0000000  0.0000000  2
    746    745    747    750     1  0.0000000  0.0000000  2
    747    749    753    774     1  0.0000000  0.6508444  3
    748    747    749    753     1  0.0000000  0.6508444  3
    748    747    749    751     1  0.0000000  0.6508444  3
    748    747    749    752     1  0.0000000  0.6508444  3
    749    753    754    764     1  0.0000000  0.6508444  3
    749    753    754    765     1  0.0000000  0.6508444  3
    749    753    755    756     1  0.0000000  0.6508444  3
    749    753    755    758     1  0.0000000  0.6508444  3
    750    747    749    753     1  0.0000000  0.6508444  3
    750    747    749    751     1  0.0000000  0.6508444  3
    750    747    749    752     1  0.0000000  0.6508444  3
    751    749    753    754     1  0.0000000  0.6508444  3
    751    749    753    755     1  0.0000000  0.6508444  3
    751    749    753    774     1  0.0000000  0.6508444  3
    752    749    753    754     1  0.0000000  0.6508444  3
    752    749    753    755     1  0.0000000  0.6508444  3
    752    749    753    774     1  0.0000000  0.6508444  3
    753    754    766    767     1  0.0000000  0.6508444  3
    753    754    766    768     1  0.0000000  0.6508444  3
    753    755    757    759     1  0.0000000  0.6508444  3
    753    755    757    760     1  0.0000000  0.6508444  3
    754    753    755    756     1  0.0000000  0.6508444  3
    754    753    755    758     1  0.0000000  0.6508444  3
    755    753    754    764     1  0.0000000  0.6508444  3
    755    753    754    765     1  0.0000000  0.6508444  3
    756    755    757    761     1  0.0000000  0.6508444  3
    756    755    757    759     1  0.0000000  0.6508444  3
    756    755    757    760     1  0.0000000  0.6508444  3
    756    755    753    774     1  0.0000000  0.6508444  3
    757    761    762    772     1  180.0000771  9.6232000  2
    757    755    753    774     1  0.0000000  0.6508444  3
    758    755    757    761     1  0.0000000  0.6508444  3
    758    755    757    759     1  0.0000000  0.6508444  3
    758    755    757    760     1  0.0000000  0.6508444  3
    758    755    753    774     1  0.0000000  0.6508444  3
    759    757    761    762     1  180.0000771  0.0000000  2
    759    757    761    763     1  0.0000000  3.3472000  1
    759    757    761    763     1  0.0000000  0.0000000  2
    759    757    761    763     1  180.0000771  0.3347200  3
    760    757    761    762     1  180.0000771  0.0000000  2
    760    757    761    763     1  0.0000000  3.3472000  1
    760    757    761    763     1  0.0000000  0.0000000  2
    760    757    761    763     1  180.0000771  0.3347200  3
    763    761    762    772     1  0.0000000  7.9496000  1
    763    761    762    772     1  180.0000771  9.6232000  2
    764    754    766    769     1  0.0000000  0.6508444  3
    764    754    766    767     1  0.0000000  0.6508444  3
    764    754    766    768     1  0.0000000  0.6508444  3
    764    754    753    774     1  0.0000000  0.6508444  3
    765    754    766    769     1  0.0000000  0.6508444  3
    765    754    766    767     1  0.0000000  0.6508444  3
    765    754    766    768     1  0.0000000  0.6508444  3
    765    754    753    774     1  0.0000000  0.6508444  3
    766    769    771    773     1  180.0000771  9.6232000  2
    766    754    753    774     1  0.0000000  0.6508444  3
    767    766    769    770     1  0.0000000  3.3472000  1
    767    766    769    770     1  0.0000000  0.0000000  2
    767    766    769    770     1  180.0000771  0.3347200  3
    767    766    769    771     1  180.0000771  0.0000000  2
    768    766    769    770     1  0.0000000  3.3472000  1
    768    766    769    770     1  0.0000000  0.0000000  2
    768    766    769    770     1  180.0000771  0.3347200  3
    768    766    769    771     1  180.0000771  0.0000000  2
    770    769    771    773     1  0.0000000  7.9496000  1
    770    769    771    773     1  180.0000771  9.6232000  2
    775    777    779    781     1  0.0000000  0.6508444  3
    775    777    779    782     1  0.0000000  0.6508444  3
    776    775    777    779     1  0.0000000  0.0000000  2
    776    775    777    778     1  0.0000000  0.0000000  2
    776    775    777    780     1  0.0000000  0.0000000  2
    777    779    783    804     1  0.0000000  0.6508444  3
    778    777    779    783     1  0.0000000  0.6508444  3
    778    777    779    781     1  0.0000000  0.6508444  3
    778    777    779    782     1  0.0000000  0.6508444  3
    779    783    784    794     1  0.0000000  0.6508444  3
    779    783    784    795     1  0.0000000  0.6508444  3
    779    783    785    786     1  0.0000000  0.6508444  3
    779    783    785    788     1  0.0000000  0.6508444  3
    780    777    779    783     1  0.0000000  0.6508444  3
    780    777    779    781     1  0.0000000  0.6508444  3
    780    777    779    782     1  0.0000000  0.6508444  3
    781    779    783    784     1  0.0000000  0.6508444  3
    781    779    783    785     1  0.0000000  0.6508444  3
    781    779    783    804     1  0.0000000  0.6508444  3
    782    779    783    784     1  0.0000000  0.6508444  3
    782    779    783    785     1  0.0000000  0.6508444  3
    782    779    783    804     1  0.0000000  0.6508444  3
    783    784    796    797     1  0.0000000  0.6508444  3
    783    784    796    798     1  0.0000000  0.6508444  3
    783    785    787    789     1  0.0000000  0.6508444  3
    783    785    787    790     1  0.0000000  0.6508444  3
    784    783    785    786     1  0.0000000  0.6508444  3
    784    783    785    788     1  0.0000000  0.6508444  3
    785    783    784    794     1  0.0000000  0.6508444  3
    785    783    784    795     1  0.0000000  0.6508444  3
    786    785    783    804     1  0.0000000  0.6508444  3
    786    785    787    791     1  0.0000000  0.6508444  3
    786    785    787    789     1  0.0000000  0.6508444  3
    786    785    787    790     1  0.0000000  0.6508444  3
    787    785    783    804     1  0.0000000  0.6508444  3
    787    791    792    802     1  180.0000771  9.6232000  2
    788    785    783    804     1  0.0000000  0.6508444  3
    788    785    787    791     1  0.0000000  0.6508444  3
    788    785    787    789     1  0.0000000  0.6508444  3
    788    785    787    790     1  0.0000000  0.6508444  3
    789    787    791    792     1  180.0000771  0.0000000  2
    789    787    791    793     1  0.0000000  3.3472000  1
    789    787    791    793     1  0.0000000  0.0000000  2
    789    787    791    793     1  180.0000771  0.3347200  3
    790    787    791    792     1  180.0000771  0.0000000  2
    790    787    791    793     1  0.0000000  3.3472000  1
    790    787    791    793     1  0.0000000  0.0000000  2
    790    787    791    793     1  180.0000771  0.3347200  3
    793    791    792    802     1  0.0000000  7.9496000  1
    793    791    792    802     1  180.0000771  9.6232000  2
    794    784    783    804     1  0.0000000  0.6508444  3
    794    784    796    799     1  0.0000000  0.6508444  3
    794    784    796    797     1  0.0000000  0.6508444  3
    794    784    796    798     1  0.0000000  0.6508444  3
    795    784    783    804     1  0.0000000  0.6508444  3
    795    784    796    799     1  0.0000000  0.6508444  3
    795    784    796    797     1  0.0000000  0.6508444  3
    795    784    796    798     1  0.0000000  0.6508444  3
    796    784    783    804     1  0.0000000  0.6508444  3
    796    799    801    803     1  180.0000771  9.6232000  2
    797    796    799    800     1  0.0000000  3.3472000  1
    797    796    799    800     1  0.0000000  0.0000000  2
    797    796    799    800     1  180.0000771  0.3347200  3
    797    796    799    801     1  180.0000771  0.0000000  2
    798    796    799    800     1  0.0000000  3.3472000  1
    798    796    799    800     1  0.0000000  0.0000000  2
    798    796    799    800     1  180.0000771  0.3347200  3
    798    796    799    801     1  180.0000771  0.0000000  2
    800    799    801    803     1  0.0000000  7.9496000  1
    800    799    801    803     1  180.0000771  9.6232000  2
    805    807    809    811     1  0.0000000  0.6508444  3
    805    807    809    812     1  0.0000000  0.6508444  3
    806    805    807    809     1  0.0000000  0.0000000  2
    806    805    807    808     1  0.0000000  0.0000000  2
    806    805    807    810     1  0.0000000  0.0000000  2
    807    809    813    834     1  0.0000000  0.6508444  3
    808    807    809    813     1  0.0000000  0.6508444  3
    808    807    809    811     1  0.0000000  0.6508444  3
    808    807    809    812     1  0.0000000  0.6508444  3
    809    813    814    824     1  0.0000000  0.6508444  3
    809    813    814    825     1  0.0000000  0.6508444  3
    809    813    815    816     1  0.0000000  0.6508444  3
    809    813    815    818     1  0.0000000  0.6508444  3
    810    807    809    813     1  0.0000000  0.6508444  3
    810    807    809    811     1  0.0000000  0.6508444  3
    810    807    809    812     1  0.0000000  0.6508444  3
    811    809    813    814     1  0.0000000  0.6508444  3
    811    809    813    815     1  0.0000000  0.6508444  3
    811    809    813    834     1  0.0000000  0.6508444  3
    812    809    813    814     1  0.0000000  0.6508444  3
    812    809    813    815     1  0.0000000  0.6508444  3
    812    809    813    834     1  0.0000000  0.6508444  3
    813    814    826    827     1  0.0000000  0.6508444  3
    813    814    826    828     1  0.0000000  0.6508444  3
    813    815    817    819     1  0.0000000  0.6508444  3
    813    815    817    820     1  0.0000000  0.6508444  3
    814    813    815    816     1  0.0000000  0.6508444  3
    814    813    815    818     1  0.0000000  0.6508444  3
    815    813    814    824     1  0.0000000  0.6508444  3
    815    813    814    825     1  0.0000000  0.6508444  3
    816    815    817    821     1  0.0000000  0.6508444  3
    816    815    817    819     1  0.0000000  0.6508444  3
    816    815    817    820     1  0.0000000  0.6508444  3
    816    815    813    834     1  0.0000000  0.6508444  3
    817    821    822    832     1  180.0000771  9.6232000  2
    817    815    813    834     1  0.0000000  0.6508444  3
    818    815    817    821     1  0.0000000  0.6508444  3
    818    815    817    819     1  0.0000000  0.6508444  3
    818    815    817    820     1  0.0000000  0.6508444  3
    818    815    813    834     1  0.0000000  0.6508444  3
    819    817    821    822     1  180.0000771  0.0000000  2
    819    817    821    823     1  0.0000000  3.3472000  1
    819    817    821    823     1  0.0000000  0.0000000  2
    819    817    821    823     1  180.0000771  0.3347200  3
    820    817    821    822     1  180.0000771  0.0000000  2
    820    817    821    823     1  0.0000000  3.3472000  1
    820    817    821    823     1  0.0000000  0.0000000  2
    820    817    821    823     1  180.0000771  0.3347200  3
    823    821    822    832     1  0.0000000  7.9496000  1
    823    821    822    832     1  180.0000771  9.6232000  2
    824    814    826    829     1  0.0000000  0.6508444  3
    824    814    826    827     1  0.0000000  0.6508444  3
    824    814    826    828     1  0.0000000  0.6508444  3
    824    814    813    834     1  0.0000000  0.6508444  3
    825    814    826    829     1  0.0000000  0.6508444  3
    825    814    826    827     1  0.0000000  0.6508444  3
    825    814    826    828     1  0.0000000  0.6508444  3
    825    814    813    834     1  0.0000000  0.6508444  3
    826    829    831    833     1  180.0000771  9.6232000  2
    826    814    813    834     1  0.0000000  0.6508444  3
    827    826    829    830     1  0.0000000  3.3472000  1
    827    826    829    830     1  0.0000000  0.0000000  2
    827    826    829    830     1  180.0000771  0.3347200  3
    827    826    829    831     1  180.0000771  0.0000000  2
    828    826    829    830     1  0.0000000  3.3472000  1
    828    826    829    830     1  0.0000000  0.0000000  2
    828    826    829    830     1  180.0000771  0.3347200  3
    828    826    829    831     1  180.0000771  0.0000000  2
    830    829    831    833     1  0.0000000  7.9496000  1
    830    829    831    833     1  180.0000771  9.6232000  2
     10     51     52     67     4  180.0000771  4.6024000  2
     12     77     78     93     4  180.0000771  4.6024000  2
     14    103    104    119     4  180.0000771  4.6024000  2
     16    129    130    145     4  180.0000771  4.6024000  2
     47    155    156    171     4  180.0000771  4.6024000  2
     49    181    182    197     4  180.0000771  4.6024000  2
     73    207    208    223     4  180.0000771  4.6024000  2
     75    233    234    249     4  180.0000771  4.6024000  2
     99    259    260    275     4  180.0000771  4.6024000  2
    101    285    286    301     4  180.0000771  4.6024000  2
    125    311    312    327     4  180.0000771  4.6024000  2
    127    337    338    353     4  180.0000771  4.6024000  2
    151    357    355    356     4  180.0000771  4.6024000  2
    153    387    385    386     4  180.0000771  4.6024000  2
    177    417    415    416     4  180.0000771  4.6024000  2
    179    447    445    446     4  180.0000771  4.6024000  2
    203    477    475    476     4  180.0000771  4.6024000  2
    205    507    505    506     4  180.0000771  4.6024000  2
    229    537    535    536     4  180.0000771  4.6024000  2
    231    567    565    566     4  180.0000771  4.6024000  2
    255    597    595    596     4  180.0000771  4.6024000  2
    257    627    625    626     4  180.0000771  4.6024000  2
    281    657    655    656     4  180.0000771  4.6024000  2
    283    687    685    686     4  180.0000771  4.6024000  2
    307    717    715    716     4  180.0000771  4.6024000  2
    309    747    745    746     4  180.0000771  4.6024000  2
    333    777    775    776     4  180.0000771  4.6024000  2
    335    807    805    806     4  180.0000771  4.6024000  2

;[ system ]
;; Name
;Generic title
;
;[ molecules ]
;; Compound       #mols
;system1              1
