G1.5cooh-PAMAM in water
25057
    1aaa     N1    1   0.807   0.852   1.447 -0.1737 -0.1675  0.0289
    1aaa     C1    2   0.681   0.771   1.488  0.7148  0.1237 -0.0669
    1aaa     C2    3   0.701   0.628   1.552  0.2937 -0.2315  0.3051
    1aaa     N2    4   0.575   0.535   1.547 -0.2176  0.4683 -0.3869
    1aaa     C3    5   0.451   0.599   1.612 -0.2620 -0.8961 -0.1391
    1aaa     C4    6   0.606   0.411   1.635 -0.6590  0.0947 -0.1617
    1aaa     C5    7   0.887   0.776   1.334  0.9206 -0.2034  0.3822
    1aaa     C6    8   0.893   0.874   1.570  0.2473  0.0756 -0.2860
    1aaa     C7    9   0.519   0.285   1.609  0.3314  0.0050  0.1892
    1aaa     C8   10   0.565   0.154   1.684  0.5139  0.5183 -0.1144
    1aaa     C9   11   0.366   0.702   1.526 -0.3383  0.0152  0.4317
    1aaa    C10   12   0.218   0.699   1.562 -0.5146  0.4469 -0.3819
    1aaa    C11   13   1.001   0.863   1.268 -0.1484  0.8687 -0.5687
    1aaa    C12   14   1.045   0.806   1.133 -0.8476  0.0486 -0.2802
    1aaa    C13   15   0.831   0.972   1.678  0.3126 -0.5626 -0.0152
    1aaa    C14   16   0.839   1.122   1.643 -0.2693 -0.0195 -0.0648
    1aaa     O1   17   0.160   0.603   1.612  0.1042  0.3592 -0.5139
    1aaa     O2   18   0.661   0.144   1.757 -0.5200 -0.5637  0.0448
    1aaa     O3   19   0.862   1.163   1.530  0.1415  0.6227 -0.3087
    1aaa     O4   20   0.979   0.727   1.067  0.4325  0.6448 -0.0640
    1aaa     H1   21   0.641   0.742   1.391 -0.8966  0.5514  0.4419
    1aaa     H2   22   0.613   0.826   1.553 -0.4606 -0.6507 -0.5991
    1aaa     H3   23   0.727   0.644   1.656 -2.3240  1.2041  0.8316
    1aaa     H4   24   0.782   0.578   1.498  3.7455  3.3109  1.7049
    1aaa     H5   25   0.495   0.653   1.696  0.7279  2.2424 -2.4731
    1aaa     H6   26   0.389   0.523   1.659 -0.8723  0.8648  2.0899
    1aaa     H7   27   0.710   0.386   1.615 -0.7924 -0.8278  0.2283
    1aaa     H8   28   0.589   0.446   1.737  0.3785 -0.7767  0.3268
    1aaa     H9   29   0.924   0.685   1.382 -0.2759 -0.5902  0.6046
    1aaa    H10   30   0.815   0.742   1.260 -1.9699  1.7765  2.0937
    1aaa    H11   31   0.907   0.775   1.615 -1.3169  0.2839  0.7132
    1aaa    H12   32   0.987   0.916   1.534  0.7191  0.4159  1.2859
    1aaa    H13   33   0.413   0.303   1.631  0.7078 -0.6032  2.8150
    1aaa    H14   34   0.508   0.249   1.506  0.5912 -2.6764  1.0354
    1aaa    H15   35   0.356   0.675   1.421 -2.2026  0.6081  0.4257
    1aaa    H16   36   0.402   0.806   1.535  0.0259  0.0202 -0.9015
    1aaa    H17   37   0.976   0.969   1.257 -1.3706  0.7224  0.4889
    1aaa    H18   38   1.087   0.856   1.336 -1.5984  0.4076  1.2990
    1aaa    H19   39   0.723   0.950   1.681 -0.1448  0.8939 -2.4541
    1aaa    H20   40   0.882   0.966   1.775  0.0592  3.1277  0.4874
    1aaa    H37   41   0.774   0.942   1.409 -2.1321 -1.0997 -0.6058
    1aaa    H38   42   0.556   0.500   1.452 -0.5600 -1.6896  0.4173
    2bbb     N1   43   0.363  -0.217   1.898 -0.4270  0.2348 -0.2010
    2bbb     C1   44   0.416  -0.338   1.826 -0.2502  0.0622  0.2441
    2bbb     C2   45   0.226  -0.241   1.965 -0.3644  0.5976  0.4110
    2bbb     C3   46   0.417  -0.474   1.903  0.0192  0.2652  0.3385
    2bbb     C4   47   0.467  -0.470   2.042 -0.2946  0.3000  0.1849
    2bbb     C5   48   0.169  -0.131   2.061  0.6459  0.7079 -0.2461
    2bbb     C6   49   0.240  -0.137   2.193 -0.3897  0.0661  0.1511
    2bbb     C7   50   0.357  -0.102   1.803  0.3144  0.0329  0.1056
    2bbb     C8   51   0.484  -0.074   1.728  0.0216 -0.2690 -0.2265
    2bbb     N2   52   0.468   0.055   1.670 -0.0160 -0.1320 -0.1140
    2bbb     O1   53   0.527  -0.376   2.089 -0.6900 -0.5409 -0.1630
    2bbb     O2   54   0.359  -0.100   2.211  0.2896  0.1122 -0.1486
    2bbb     H1   55   0.364  -0.355   1.731  0.4127 -1.7590  0.1579
    2bbb     H2   56   0.520  -0.307   1.814 -0.3990  0.4233 -0.1332
    2bbb     H3   57   0.224  -0.336   2.017  1.7153  0.6876  0.7676
    2bbb     H4   58   0.156  -0.264   1.885 -0.9435 -0.7671  1.2872
    2bbb     H5   59   0.314  -0.512   1.902  0.1634 -0.1447 -1.1168
    2bbb     H6   60   0.475  -0.548   1.847  0.3739  0.2997  0.6580
    2bbb     H7   61   0.061  -0.147   2.075  0.5743 -0.7308 -2.0625
    2bbb     H8   62   0.182  -0.027   2.028 -3.1893  1.8641  1.2917
    2bbb     H9   63   0.320  -0.015   1.856 -0.1652  0.1005 -0.3204
    2bbb    H10   64   0.279  -0.124   1.729  0.1705  2.0775 -0.3873
    2bbb    H11   65   0.499  -0.156   1.657 -0.2937 -0.3579 -0.1920
    2bbb    H12   66   0.569  -0.080   1.797  0.4004 -2.0028 -0.7994
    2bbb    H13   67   0.383   0.074   1.620  0.1710 -0.8405 -0.7198
    2bbb    H25   68   0.418  -0.185   1.979  0.7928 -0.1563 -0.8560
    3bbb     N1   69  -0.154   1.045   1.634  0.5339 -0.0409 -0.7655
    3bbb     C1   70  -0.192   1.187   1.588 -0.1724  0.0352  0.3592
    3bbb     C2   71  -0.153   1.036   1.787  0.5283 -0.1676  0.5356
    3bbb     C3   72  -0.212   1.202   1.435 -0.3485  0.3036 -0.7804
    3bbb     C4   73  -0.298   1.317   1.386  0.0664  0.0869  0.2245
    3bbb     C5   74  -0.281   1.085   1.862  1.7145  0.7137 -0.1813
    3bbb     C6   75  -0.264   1.095   2.012 -0.0087 -0.2050 -0.1928
    3bbb     C7   76  -0.025   0.987   1.574 -0.4269 -1.0393 -0.6288
    3bbb     C8   77   0.011   0.839   1.600 -0.0765  0.2663 -0.9887
    3bbb     N2   78   0.153   0.824   1.560  0.2120 -0.0650  0.0510
    3bbb     O1   79  -0.386   1.375   1.447  0.5651  0.5431 -0.2935
    3bbb     O2   80  -0.186   1.025   2.073  0.0445 -0.3369  0.4556
    3bbb     H1   81  -0.283   1.222   1.636 -0.2866  1.0929 -0.5776
    3bbb     H2   82  -0.113   1.254   1.622 -1.8529  1.1225  2.3262
    3bbb     H3   83  -0.072   1.103   1.813 -0.5891  1.7965 -0.7600
    3bbb     H4   84  -0.123   0.934   1.811  2.0740 -0.8941 -3.6571
    3bbb     H5   85  -0.115   1.198   1.384  0.6520 -2.9991  1.1289
    3bbb     H6   86  -0.265   1.111   1.404  0.7179 -0.4657 -0.4211
    3bbb     H7   87  -0.357   1.011   1.833  3.3499 -0.5644 -1.3940
    3bbb     H8   88  -0.318   1.185   1.833 -3.1732 -0.9143 -0.4909
    3bbb     H9   89   0.053   1.044   1.625 -0.8700 -0.3012 -0.7612
    3bbb    H10   90  -0.024   1.023   1.471  0.9292 -0.8785 -0.5878
    3bbb    H11   91  -0.051   0.769   1.542  2.3686 -2.6051 -0.3992
    3bbb    H12   92   0.009   0.817   1.707  0.1013  1.9380 -0.6155
    3bbb    H13   93   0.202   0.905   1.523  0.1772 -0.6593 -1.3675
    3bbb    H25   94  -0.228   0.978   1.608 -1.2087  1.2087  0.7279
    4bbb     N1   95   1.274   1.039   0.822 -0.1075  0.0237 -0.3831
    4bbb     C1   96   1.230   0.980   0.690 -0.4452 -0.3773 -0.2763
    4bbb     C2   97   1.374   1.154   0.802 -0.0308  0.0760 -0.0120
    4bbb     C3   98   1.153   1.078   0.595  0.4716  0.3130  0.0055
    4bbb     C4   99   1.169   1.045   0.447  0.1874  0.1979 -0.0762
    4bbb     C5  100   1.427   1.225   0.923  0.3224  0.2743 -0.7204
    4bbb     C6  101   1.513   1.348   0.898  0.1231  0.5139 -0.1449
    4bbb     C7  102   1.338   0.931   0.905 -0.2066 -0.1466  0.3659
    4bbb     C8  103   1.245   0.828   0.973  0.3203 -0.0273 -0.0807
    4bbb     N2  104   1.166   0.865   1.093 -0.2059 -0.7518 -0.3111
    4bbb     O1  105   1.274   1.017   0.390  0.0661 -0.1456  0.2463
    4bbb     O2  106   1.475   1.435   0.819  0.1550  0.6007  0.1292
    4bbb     H1  107   1.319   0.947   0.636  0.3307  2.8575 -1.1793
    4bbb     H2  108   1.167   0.895   0.714 -1.1022 -0.0242 -0.7162
    4bbb     H3  109   1.317   1.228   0.746 -1.4290 -1.6925 -1.0553
    4bbb     H4  110   1.457   1.120   0.740 -1.3802 -1.1485 -1.2208
    4bbb     H5  111   1.049   1.087   0.630  0.7468  2.2265  0.4283
    4bbb     H6  112   1.184   1.182   0.605 -1.4891  0.8582  0.7665
    4bbb     H7  113   1.476   1.155   0.993 -2.8599  0.0593  1.5166
    4bbb     H8  114   1.336   1.256   0.977  0.4190  0.6834 -0.7939
    4bbb     H9  115   1.400   0.980   0.981 -0.4658  2.0206 -0.7473
    4bbb    H10  116   1.406   0.875   0.840  0.5649  0.6463  0.4695
    4bbb    H11  117   1.296   0.738   1.009  0.4961 -0.0228 -0.3110
    4bbb    H12  118   1.170   0.798   0.898  1.6263  1.3693 -2.0511
    4bbb    H13  119   1.209   0.930   1.158 -0.9672  1.9374 -2.3221
    4bbb    H25  120   1.192   1.075   0.872 -0.4855 -0.5827 -0.5533
    5bbb     N1  121   0.990   1.535   1.630 -0.0782  0.0795  0.3465
    5bbb     C1  122   1.115   1.616   1.667  0.1426 -0.4879 -0.9763
    5bbb     C2  123   0.882   1.645   1.617  0.3344  0.5500  0.7812
    5bbb     C3  124   1.253   1.542   1.681  0.0501  1.2121 -0.2041
    5bbb     C4  125   1.381   1.630   1.696 -0.0959  0.3517  0.0397
    5bbb     C5  126   0.833   1.728   1.735 -0.4675 -0.2186 -0.0379
    5bbb     C6  127   0.716   1.823   1.701 -0.2016 -0.4589  0.3878
    5bbb     C7  128   0.971   1.423   1.734  0.2355  0.2846 -0.2796
    5bbb     C8  129   0.826   1.364   1.739 -0.0697 -0.1223  0.1629
    5bbb     N2  130   0.819   1.210   1.746 -0.8942  0.1168  0.2727
    5bbb     O1  131   1.373   1.747   1.728 -0.3479 -0.6587 -0.0940
    5bbb     O2  132   0.604   1.811   1.745 -0.5071 -0.1730 -0.1945
    5bbb     H1  133   1.118   1.700   1.598  0.9753  1.2532  1.0482
    5bbb     H2  134   1.096   1.645   1.771  0.8737 -0.0205 -0.9655
    5bbb     H3  135   0.797   1.587   1.584  0.2760  0.3202  1.3176
    5bbb     H4  136   0.910   1.709   1.533  0.8638  0.0230  0.5502
    5bbb     H5  137   1.237   1.484   1.772 -0.6793 -0.3423 -1.2817
    5bbb     H6  138   1.271   1.457   1.614  0.8649 -0.0588  1.5617
    5bbb     H7  139   0.914   1.798   1.757 -2.7027  2.6739 -0.3968
    5bbb     H8  140   0.810   1.676   1.828 -0.0420 -1.8404 -0.8025
    5bbb     H9  141   1.006   1.451   1.833 -0.0015 -1.2199  0.2556
    5bbb    H10  142   1.042   1.347   1.701  0.0679 -0.1635  0.3825
    5bbb    H11  143   0.762   1.403   1.659  0.3348  2.2786  0.9340
    5bbb    H12  144   0.776   1.404   1.827  1.1755 -2.7978  2.2381
    5bbb    H13  145   0.786   1.166   1.831  0.0060 -0.5907  0.2709
    5bbb    H25  146   1.009   1.483   1.544  1.1200  3.2297 -1.4644
    6bbb     N1  147   0.489  -0.758   2.440 -0.1803  0.5823  0.5110
    6bbb     C1  148   0.459  -0.903   2.494 -0.1650 -0.7507  0.2866
    6bbb     C2  149   0.412  -0.649   2.522  0.3675 -0.4861 -0.6814
    6bbb     C3  150   0.539  -1.019   2.421  0.8006 -0.3014  0.0429
    6bbb     C4  151   0.547  -1.151   2.489  0.9406 -0.0281  0.4723
    6bbb     C5  152   0.425  -0.661   2.680  0.1039  0.0344  0.0842
    6bbb     C6  153   0.409  -0.530   2.754 -0.5867  0.2144 -0.4460
    6bbb     C7  154   0.463  -0.750   2.296 -0.0433  0.4706 -0.0529
    6bbb     C8  155   0.521  -0.631   2.233 -0.1577 -0.2522  0.2205
    6bbb     N2  156   0.459  -0.593   2.106  0.4629  0.2417 -0.0433
    6bbb     O1  157   0.554  -1.151   2.613 -0.7590  0.1443 -0.0122
    6bbb     O2  158   0.398  -0.422   2.706  0.7778 -0.2312  0.1776
    6bbb     H1  159   0.499  -0.903   2.596  0.4249  0.3059  0.0699
    6bbb     H2  160   0.352  -0.923   2.485 -0.7961  2.1626  0.2670
    6bbb     H3  161   0.305  -0.646   2.499 -0.0761  1.8030  1.2470
    6bbb     H4  162   0.463  -0.553   2.511 -2.0673  0.7325 -2.3651
    6bbb     H5  163   0.501  -1.039   2.320  0.9675 -0.1215 -0.0557
    6bbb     H6  164   0.645  -0.992   2.412  0.7870  0.3564  1.5935
    6bbb     H7  165   0.523  -0.700   2.710 -1.0518 -1.5562  2.0005
    6bbb     H8  166   0.351  -0.738   2.703  1.4225 -1.8850 -1.7279
    6bbb     H9  167   0.354  -0.750   2.285 -0.0719  0.8201  0.2356
    6bbb    H10  168   0.505  -0.839   2.249  0.0050 -0.8765  2.3411
    6bbb    H11  169   0.629  -0.646   2.223 -0.6154 -4.1604 -0.5634
    6bbb    H12  170   0.507  -0.549   2.305 -1.1526  0.5332 -0.8126
    6bbb    H13  171   0.404  -0.667   2.065 -2.1876  1.5129  0.9770
    6bbb    H25  172   0.587  -0.729   2.458 -0.5606  2.1547  0.1858
    7bbb     N1  173   0.309   0.060   2.444  0.3504 -0.1223 -0.2179
    7bbb     C1  174   0.438   0.034   2.513  0.6364  0.6670  0.2662
    7bbb     C2  175   0.268   0.205   2.455  0.5974  0.0061  0.0028
    7bbb     C3  176   0.558   0.079   2.423  0.5394 -0.2893 -0.2974
    7bbb     C4  177   0.696   0.087   2.495  0.5284  0.1921  0.5206
    7bbb     C5  178   0.143   0.250   2.370  0.4719 -0.3332 -0.1849
    7bbb     C6  179   0.097   0.394   2.411  0.2043 -0.2338  0.5305
    7bbb     C7  180   0.208  -0.036   2.505 -0.4524  0.4100  0.1548
    7bbb     C8  181   0.217  -0.180   2.439  0.3075 -0.0219  0.0380
    7bbb     N2  182   0.166  -0.181   2.297  0.3422 -0.4960 -0.1251
    7bbb     O1  183   0.744   0.194   2.529  0.5139  0.1450  0.3482
    7bbb     O2  184   0.172   0.480   2.449  0.0581 -0.1172 -0.7606
    7bbb     H1  185   0.428   0.074   2.614 -0.4154  0.3167  0.3096
    7bbb     H2  186   0.444  -0.075   2.516 -0.2861  0.5284 -1.6193
    7bbb     H3  187   0.356   0.268   2.446 -0.5807  2.0911  1.8910
    7bbb     H4  188   0.239   0.219   2.559 -1.5344 -0.9113 -0.4092
    7bbb     H5  189   0.573   0.004   2.345  0.5960 -1.2558  0.6172
    7bbb     H6  190   0.552   0.180   2.382  0.2171  0.0386  0.5284
    7bbb     H7  191   0.051   0.194   2.389  0.3041 -0.5240 -1.4845
    7bbb     H8  192   0.157   0.253   2.261  1.2522  0.8139 -0.0766
    7bbb     H9  193   0.104  -0.000   2.504 -0.3827  0.6928  1.5238
    7bbb    H10  194   0.240  -0.043   2.609  0.2214  0.7334 -0.0258
    7bbb    H11  195   0.160  -0.247   2.505 -0.2024 -0.4659 -0.8254
    7bbb    H12  196   0.316  -0.226   2.448  0.3091  0.2169  1.5279
    7bbb    H13  197   0.069  -0.194   2.271  0.6182 -0.5874 -1.1696
    7bbb    H25  198   0.319   0.038   2.344 -1.2120  2.6488 -1.0871
    8bbb     N1  199  -0.240   1.620   0.984  0.4656  1.0124 -0.0716
    8bbb     C1  200  -0.347   1.732   1.000 -0.5576  1.0478  0.1008
    8bbb     C2  201  -0.314   1.502   0.921 -0.4907 -0.5585  0.0986
    8bbb     C3  202  -0.287   1.868   0.981  0.6643  0.4252 -1.2553
    8bbb     C4  203  -0.242   1.891   0.837 -0.2632 -0.0558  0.0540
    8bbb     C5  204  -0.343   1.507   0.769 -0.1652  0.5136  0.1349
    8bbb     C6  205  -0.395   1.369   0.711  0.4278 -0.4002  0.2103
    8bbb     C7  206  -0.179   1.556   1.115  0.3596  0.6912  1.4098
    8bbb     C8  207  -0.278   1.501   1.224  0.4572 -0.0255  0.7104
    8bbb     N2  208  -0.252   1.364   1.263  0.4193  0.4935  1.2527
    8bbb     O1  209  -0.245   1.807   0.750  0.3785  0.4447  0.1468
    8bbb     O2  210  -0.358   1.264   0.759  0.3755 -0.2547 -0.2460
    8bbb     H1  211  -0.431   1.709   0.934  0.8467  0.2339 -1.4681
    8bbb     H2  212  -0.388   1.724   1.101 -0.8749  2.2497  0.0780
    8bbb     H3  213  -0.408   1.487   0.974 -2.0263  1.4917 -1.9212
    8bbb     H4  214  -0.244   1.419   0.933 -1.6187 -1.2371  2.7358
    8bbb     H5  215  -0.359   1.947   1.008  0.0349 -0.4858 -0.2067
    8bbb     H6  216  -0.214   1.889   1.060 -3.5912  2.2262  2.6372
    8bbb     H7  217  -0.256   1.527   0.705 -1.8000  0.4612 -2.2674
    8bbb     H8  218  -0.415   1.587   0.749 -0.0379  0.6202  0.1002
    8bbb     H9  219  -0.120   1.634   1.164  0.1321  1.2572  0.7875
    8bbb    H10  220  -0.123   1.466   1.089 -0.7337  0.4787 -0.3249
    8bbb    H11  221  -0.383   1.513   1.195  0.8064  0.5622 -0.3766
    8bbb    H12  222  -0.262   1.568   1.309  0.5756 -0.5654  1.1144
    8bbb    H13  223  -0.168   1.326   1.221  0.4090  1.3828  0.4074
    8bbb    H25  224  -0.171   1.644   0.911  1.4908 -1.7819 -0.1696
    9bbb     N1  225  -0.431   1.415   2.244  0.0811  0.0540 -0.5332
    9bbb     C1  226  -0.294   1.452   2.317  0.6172  0.1274  1.3449
    9bbb     C2  227  -0.553   1.499   2.284 -0.4021 -0.5481  0.4272
    9bbb     C3  228  -0.298   1.470   2.471 -0.5691 -0.7078  0.5778
    9bbb     C4  229  -0.308   1.359   2.562 -0.1156  0.2888  0.4485
    9bbb     C5  230  -0.546   1.646   2.235 -0.0819 -0.3919  0.3968
    9bbb     C6  231  -0.615   1.742   2.329  0.0467  0.2717  0.5887
    9bbb     C7  232  -0.467   1.266   2.274  0.4747 -0.1830 -0.0652
    9bbb     C8  233  -0.370   1.163   2.224 -0.3418 -0.3296 -0.1354
    9bbb     N2  234  -0.358   1.166   2.080  0.4975  0.7764  0.1230
    9bbb     O1  235  -0.322   1.243   2.523  0.3064  0.4004  0.0010
    9bbb     O2  236  -0.666   1.710   2.435  0.2331 -0.2695 -0.1254
    9bbb     H1  237  -0.227   1.372   2.285 -0.9579 -0.6196 -0.2449
    9bbb     H2  238  -0.262   1.546   2.272 -1.3329  0.8316  1.3697
    9bbb     H3  239  -0.572   1.496   2.392  0.8278 -2.8058  0.6347
    9bbb     H4  240  -0.634   1.441   2.239  0.5410 -2.3838  0.9813
    9bbb     H5  241  -0.206   1.518   2.505 -0.7939  0.4401 -0.3724
    9bbb     H6  242  -0.369   1.549   2.495 -2.3695 -2.1847  0.3698
    9bbb     H7  243  -0.597   1.656   2.139 -2.1321 -2.2968  1.2128
    9bbb     H8  244  -0.442   1.681   2.222 -0.7399  1.4072 -0.3253
    9bbb     H9  245  -0.559   1.241   2.222  0.7129  0.4523 -0.8083
    9bbb    H10  246  -0.486   1.254   2.381  2.4178 -1.6631  0.1561
    9bbb    H11  247  -0.403   1.064   2.259  1.9433 -1.1517 -0.1454
    9bbb    H12  248  -0.275   1.170   2.279 -0.6717  0.6959  0.3245
    9bbb    H13  249  -0.423   1.225   2.029  0.2414  0.5006  0.1262
    9bbb    H25  250  -0.419   1.425   2.143  0.8991  0.0621 -0.4437
   10bbb     N1  251   0.882   1.060   0.042  0.5929 -0.1532  0.1340
   10bbb     C1  252   0.969   1.162  -0.041  0.1238  0.1624 -0.6771
   10bbb     C2  253   0.731   1.101   0.015 -0.3048  0.5105 -0.0434
   10bbb     C3  254   0.960   1.178  -0.191  0.2885 -0.1200 -0.4586
   10bbb     C4  255   0.951   1.317  -0.239  0.2669  0.2719 -0.0906
   10bbb     C5  256   0.626   0.992   0.044  0.0040  0.2278 -0.5056
   10bbb     C6  257   0.482   1.019   0.000 -0.0490 -0.2388  0.9899
   10bbb     C7  258   0.908   1.068   0.187  0.4144 -0.3326 -0.4308
   10bbb     C8  259   1.043   1.015   0.232 -0.6714 -1.0245 -0.1258
   10bbb     N2  260   1.045   1.033   0.377 -0.1277 -0.1608 -0.0791
   10bbb     O1  261   0.917   1.411  -0.165 -0.2439  0.2038  0.3653
   10bbb     O2  262   0.443   1.131  -0.036 -0.5751 -0.1520  1.0930
   10bbb     H1  263   0.943   1.255   0.009  0.9000  1.2422 -2.2156
   10bbb     H2  264   1.075   1.147  -0.020 -0.3104  0.5935  2.1928
   10bbb     H3  265   0.717   1.119  -0.092  2.5969  2.0981 -0.2600
   10bbb     H4  266   0.710   1.200   0.056  0.8323  1.2694 -1.2053
   10bbb     H5  267   1.046   1.122  -0.231 -0.5823 -2.0765  0.2334
   10bbb     H6  268   0.871   1.123  -0.223 -0.1530  0.7966 -0.7976
   10bbb     H7  269   0.628   0.972   0.151  2.7123  1.0709 -0.3285
   10bbb     H8  270   0.655   0.903  -0.014 -0.6070 -0.1450 -0.2478
   10bbb     H9  271   0.830   0.999   0.221  0.0477  0.2512 -0.0636
   10bbb    H10  272   0.891   1.166   0.230  0.7057  0.6240 -2.3811
   10bbb    H11  273   1.111   1.086   0.183  0.4459 -1.1234  1.2290
   10bbb    H12  274   1.059   0.911   0.198 -0.1166 -0.1267 -2.8791
   10bbb    H13  275   0.963   1.056   0.431  1.3837  4.9690  0.6374
   10bbb    H25  276   0.900   0.966   0.004  0.1092  0.1420 -0.8712
   11bbb     N1  277   1.969   1.499   0.938 -0.1933  0.0987 -0.0103
   11bbb     C1  278   2.087   1.440   1.012 -0.2324 -0.0777  0.0417
   11bbb     C2  279   1.977   1.655   0.931  0.0486 -0.8073 -0.4424
   11bbb     C3  280   2.199   1.376   0.926 -0.1904  0.9745 -0.1759
   11bbb     C4  281   2.154   1.235   0.882  0.5306 -0.1390 -0.6267
   11bbb     C5  282   2.105   1.710   0.850  0.3089 -0.0263 -0.0807
   11bbb     C6  283   2.096   1.857   0.823 -0.4557  0.7756  0.0991
   11bbb     C7  284   1.850   1.454   1.020 -0.8972  0.3681 -0.5538
   11bbb     C8  285   1.726   1.461   0.935 -0.2479 -0.0357 -0.0621
   11bbb     N2  286   1.631   1.357   0.961  1.2687 -0.2763  0.0400
   11bbb     O1  287   2.074   1.170   0.949  0.3412  0.5951 -0.3819
   11bbb     O2  288   2.037   1.938   0.894  0.4402  0.6281  0.4063
   11bbb     H1  289   2.130   1.520   1.073 -0.0740 -1.0345  1.2219
   11bbb     H2  290   2.054   1.372   1.091 -0.6594  1.5857  1.3647
   11bbb     H3  291   1.981   1.697   1.031  0.4176 -0.6418 -0.5244
   11bbb     H4  292   1.885   1.690   0.883  0.1512 -0.8781 -0.6944
   11bbb     H5  293   2.253   1.436   0.852  1.4564  0.0603  0.2257
   11bbb     H6  294   2.284   1.356   0.994 -0.4664  0.7322  0.0997
   11bbb     H7  295   2.119   1.651   0.759 -1.1878 -0.9209  0.2250
   11bbb     H8  296   2.193   1.700   0.914 -0.8534 -0.3596  1.5224
   11bbb     H9  297   1.849   1.525   1.103  0.8729  1.8460 -1.7319
   11bbb    H10  298   1.873   1.356   1.064  2.5273  1.6118  0.7856
   11bbb    H11  299   1.762   1.457   0.831  2.2897  0.2702  0.7476
   11bbb    H12  300   1.670   1.554   0.951 -2.4397 -1.6346  2.3541
   11bbb    H13  301   1.656   1.278   1.019  0.8160  0.1066  0.7832
   11bbb    H25  302   1.971   1.453   0.845 -0.9448 -1.2080  0.5964
   12bbb     N1  303   1.715   1.821   1.540 -0.6470 -0.4582 -0.3133
   12bbb     C1  304   1.597   1.845   1.448  0.0518 -0.1485 -0.5908
   12bbb     C2  305   1.841   1.836   1.452 -0.0120  0.0802 -0.9066
   12bbb     C3  306   1.569   1.988   1.418 -0.6853 -0.4920  0.2463
   12bbb     C4  307   1.564   2.082   1.537  0.0988  0.4048  0.5832
   12bbb     C5  308   1.980   1.836   1.523  0.2639 -0.0665  0.3213
   12bbb     C6  309   1.996   1.945   1.630 -0.5062  0.2498 -0.2862
   12bbb     C7  310   1.704   1.684   1.597 -0.2607  1.0676 -0.1323
   12bbb     C8  311   1.621   1.654   1.724 -0.2448  0.8806 -0.2073
   12bbb     N2  312   1.502   1.577   1.680 -0.0679 -0.1508 -0.0968
   12bbb     O1  313   1.559   2.050   1.652  0.0461 -0.4071 -0.6856
   12bbb     O2  314   1.918   2.034   1.650  0.4432 -0.0823  0.5223
   12bbb     H1  315   1.610   1.783   1.360  2.2829  0.6094 -0.8426
   12bbb     H2  316   1.512   1.805   1.505  1.3894  0.0106  1.6603
   12bbb     H3  317   1.832   1.932   1.400  1.7001 -0.0550 -1.5335
   12bbb     H4  318   1.851   1.759   1.375 -3.1273 -2.0129  0.5754
   12bbb     H5  319   1.646   2.028   1.350 -0.9591 -0.4531 -0.0444
   12bbb     H6  320   1.475   2.000   1.362 -1.4767  0.7749  1.7903
   12bbb     H7  321   2.058   1.858   1.449  0.5312 -0.3009  0.5296
   12bbb     H8  322   1.996   1.739   1.572 -1.2987  0.1634  1.3426
   12bbb     H9  323   1.808   1.667   1.625  0.2226 -1.6065 -2.9484
   12bbb    H10  324   1.681   1.615   1.516 -1.8200  1.2984  0.0897
   12bbb    H11  325   1.592   1.748   1.772 -1.5916  0.3851 -0.0213
   12bbb    H12  326   1.688   1.599   1.792 -1.5842 -0.3308  0.1598
   12bbb    H13  327   1.519   1.487   1.637  2.3209 -0.5404  1.4571
   12bbb    H25  328   1.710   1.894   1.613 -1.1341  0.5393 -1.3143
   13bbb     N1  329   0.632   2.166   1.808  0.9574 -0.1519 -0.4149
   13bbb     C1  330   0.476   2.177   1.797  0.3739 -0.3096 -0.4161
   13bbb     C2  331   0.690   2.278   1.893 -0.9035  0.8284  0.4047
   13bbb     C3  332   0.404   2.143   1.936 -1.0897  0.0886 -0.6097
   13bbb     C4  333   0.451   2.003   1.983 -0.0559 -0.1798  0.1033
   13bbb     C5  334   0.843   2.273   1.917  0.2101 -0.3279 -0.3697
   13bbb     C6  335   0.897   2.136   1.950 -0.4396  0.0555 -0.3710
   13bbb     C7  336   0.690   2.167   1.672  0.4005  0.7645  0.2244
   13bbb     C8  337   0.655   2.039   1.594  0.5253 -0.4082  0.7169
   13bbb     N2  338   0.748   1.928   1.620  0.1374  0.1825  0.1008
   13bbb     O1  339   0.563   1.988   2.022  0.3106 -0.5368 -0.2375
   13bbb     O2  340   0.897   2.046   1.869 -0.2987 -0.0550 -0.5222
   13bbb     H1  341   0.441   2.269   1.749  0.1333 -0.4101 -0.4334
   13bbb     H2  342   0.459   2.094   1.728 -0.3789  0.4261 -1.1463
   13bbb     H3  343   0.658   2.278   1.997 -0.2559 -2.8859  0.7400
   13bbb     H4  344   0.668   2.370   1.838 -0.5620  1.3945  1.1971
   13bbb     H5  345   0.436   2.219   2.007  3.2992 -1.3442 -0.7670
   13bbb     H6  346   0.295   2.135   1.923 -1.3763  2.1120  0.2493
   13bbb     H7  347   0.868   2.340   2.000  1.3002  0.9129 -1.6348
   13bbb     H8  348   0.910   2.312   1.839 -0.4182  0.1396 -0.6765
   13bbb     H9  349   0.798   2.172   1.684  0.6135  0.7689 -1.3699
   13bbb    H10  350   0.659   2.263   1.631 -1.2900  0.0389 -0.2788
   13bbb    H11  351   0.647   2.078   1.492 -1.0157  1.1854  1.3874
   13bbb    H12  352   0.555   1.999   1.613 -0.1469  1.3201  1.0025
   13bbb    H13  353   0.843   1.928   1.585 -0.2545 -3.0224 -1.2839
   13bbb    H25  354   0.643   2.071   1.848 -2.7146 -0.9900 -1.0095
   14ccc     N1  355   0.550  -1.265   2.411 -0.1788 -0.4488  0.1936
   14ccc     H1  356   0.550  -1.246   2.312  0.1602  2.0390  0.5904
   14ccc     C1  357   0.551  -1.402   2.463  0.5100 -0.2201  0.5253
   14ccc     H2  358   0.630  -1.462   2.418 -0.1221 -0.8486  0.2372
   14ccc     C2  359   0.415  -1.479   2.447  0.0239 -1.0805  0.5099
   14ccc     H3  360   0.577  -1.405   2.569  0.3881 -0.6885  0.5416
   14ccc     H4  361   0.431  -1.579   2.488  0.1366 -0.8827  0.9606
   14ccc     H5  362   0.401  -1.488   2.339 -1.7133 -0.6666  0.6748
   14ccc     N2  363   0.290  -1.416   2.521 -0.6718  0.2119  0.2462
   14ccc     C3  364   0.329  -1.389   2.665 -0.0184 -0.5765  0.6510
   14ccc     C4  365   0.167  -1.495   2.499 -0.2618 -0.3152  0.5672
   14ccc     H6  366   0.187  -1.602   2.492 -0.5633 -0.3061 -0.7860
   14ccc     C5  367   0.098  -1.452   2.365  1.0747  0.8373 -0.0263
   14ccc     H7  368   0.098  -1.477   2.582 -1.6238  0.0729 -0.5986
   14ccc     H8  369   0.159  -1.460   2.274 -0.0793  1.0054 -0.8309
   14ccc     H9  370   0.066  -1.348   2.366 -0.2047  0.4579 -0.3800
   14ccc     C6  371  -0.027  -1.533   2.333 -0.7744  0.4090 -0.1116
   14ccc     O1  372  -0.118  -1.465   2.264 -0.5120 -0.1877 -0.6337
   14ccc     O2  373  -0.028  -1.654   2.312  0.2527  0.1797 -0.0532
   14ccc    H10  374   0.410  -1.316   2.671 -2.6488  2.7265 -0.3380
   14ccc    H11  375   0.359  -1.483   2.712 -2.2653 -2.6541 -1.7394
   14ccc     C7  376   0.225  -1.322   2.755  0.4388  0.1678  0.6018
   14ccc    H12  377   0.134  -1.382   2.746 -0.9629  2.3795 -0.9999
   14ccc    H13  378   0.204  -1.221   2.719  0.2826  0.9608  2.8197
   14ccc     C8  379   0.275  -1.305   2.899 -0.5293  0.6897  0.5838
   14ccc     O3  380   0.336  -1.214   2.949  0.1730  0.1899 -0.0526
   14ccc     O4  381   0.231  -1.404   2.969 -0.2872  0.7311 -0.7926
   14ccc    H14  382  -0.175  -1.536   2.231 -0.6035 -1.5689  2.1553
   14ccc    H15  383   0.269  -1.392   3.058 -0.6232 -2.4177 -0.1259
   14ccc    H16  384   0.284  -1.323   2.475  0.7565  1.1316  1.8005
   15ccc     N1  385   0.390  -0.560   2.887  0.2531 -0.0846  0.5244
   15ccc     H1  386   0.416  -0.656   2.909  3.9531 -0.2077 -3.1047
   15ccc     C1  387   0.343  -0.464   2.987  0.2024 -0.0791  0.0115
   15ccc     H2  388   0.419  -0.453   3.065  0.8132 -0.8799 -0.4584
   15ccc     C2  389   0.208  -0.513   3.059  0.5899  0.6331  0.5172
   15ccc     H3  390   0.322  -0.366   2.943  0.2932  0.7621  1.7522
   15ccc     H4  391   0.175  -0.447   3.139 -2.0045  1.2822 -0.9724
   15ccc     H5  392   0.220  -0.615   3.096 -1.3554  0.0684 -0.2868
   15ccc     N2  393   0.081  -0.510   2.968  0.0171  0.4406 -0.0527
   15ccc     C3  394   0.072  -0.364   2.909 -0.0858 -1.3028  0.2228
   15ccc     C4  395  -0.034  -0.543   3.057 -0.2538 -0.3150 -0.0719
   15ccc     H6  396  -0.021  -0.645   3.093  0.3820 -0.7196 -1.4035
   15ccc     C5  397  -0.178  -0.521   3.001 -0.0253 -0.0605  0.3913
   15ccc     H7  398  -0.026  -0.473   3.140 -0.9923  0.8374 -0.9329
   15ccc     H8  399  -0.203  -0.415   3.010 -1.0082 -0.2496 -0.0072
   15ccc     H9  400  -0.254  -0.559   3.071  1.4037  2.4694  3.5371
   15ccc     C6  401  -0.212  -0.575   2.860  0.7698  0.0985  0.1738
   15ccc     O1  402  -0.215  -0.479   2.765 -0.8036  0.2101 -0.3029
   15ccc     O2  403  -0.232  -0.689   2.828  0.1267  0.0128 -0.0012
   15ccc    H10  404  -0.015  -0.368   2.843  0.9522  2.4370 -1.6581
   15ccc    H11  405   0.156  -0.338   2.845 -0.0873  0.8156  1.0041
   15ccc     C7  406   0.058  -0.255   3.011 -0.1986 -0.0426  0.0269
   15ccc    H12  407   0.152  -0.238   3.064 -1.0040  1.4152  1.0416
   15ccc    H13  408  -0.028  -0.275   3.076  1.1253 -2.7300  1.1003
   15ccc     C8  409   0.026  -0.120   2.944  0.6266  0.4371  0.4134
   15ccc     O3  410   0.035  -0.096   2.826 -0.0023  0.1035  0.4863
   15ccc     O4  411   0.002  -0.023   3.037 -0.0203 -0.0105  0.3644
   15ccc    H14  412  -0.204  -0.535   2.685  1.2200  0.1168 -0.0177
   15ccc    H15  413   0.006  -0.072   3.121  2.0297 -1.9804 -0.7565
   15ccc    H16  414   0.088  -0.582   2.895  2.5104 -0.1233  0.6498
   16ccc     N1  415   0.752  -0.033   2.511 -0.3625  0.0974  0.2703
   16ccc     H1  416   0.690  -0.113   2.507  0.4343 -0.5285  0.1777
   16ccc     C1  417   0.880  -0.037   2.576 -0.3833 -0.3418 -0.3928
   16ccc     H2  418   0.879   0.025   2.666  1.0951 -0.0036 -0.5727
   16ccc     C2  419   0.997  -0.002   2.476 -0.4710  0.0976 -0.4032
   16ccc     H3  420   0.897  -0.134   2.623 -1.7531 -0.1192  0.6251
   16ccc     H4  421   1.086  -0.051   2.516 -1.5712 -3.4822 -1.9769
   16ccc     H5  422   1.013   0.106   2.483 -2.0696  0.2804  1.9478
   16ccc     N2  423   0.968  -0.065   2.346 -0.0293 -0.2973 -0.0166
   16ccc     C3  424   1.098  -0.127   2.280 -0.1573  0.0876 -0.1978
   16ccc     C4  425   0.928   0.047   2.254 -0.2959  0.2702 -0.1149
   16ccc     H6  426   0.841   0.091   2.302  0.7658  0.0500  2.1895
   16ccc     C5  427   0.869   0.006   2.117  0.1860  0.4276 -0.4761
   16ccc     H7  428   1.006   0.122   2.240  0.9637 -1.5725 -5.1018
   16ccc     H8  429   0.836  -0.099   2.126 -0.2606  0.6042 -0.0295
   16ccc     H9  430   0.946   0.005   2.039  2.1763 -0.7759  1.3736
   16ccc     C6  431   0.753   0.091   2.077 -0.0798  0.0220 -0.0562
   16ccc     O1  432   0.641   0.030   2.042 -0.3356  0.1128  0.0658
   16ccc     O2  433   0.741   0.198   2.128 -0.0539 -0.2932  0.0316
   16ccc    H10  434   1.181  -0.074   2.325 -0.6453  0.4220  0.3280
   16ccc    H11  435   1.097  -0.098   2.175  1.0448 -1.0777 -0.5719
   16ccc     C7  436   1.111  -0.283   2.302  0.7501 -0.3340  0.5402
   16ccc    H12  437   1.024  -0.339   2.266 -0.0641  0.8738  0.5677
   16ccc    H13  438   1.131  -0.314   2.406  0.5485  0.1067  0.7127
   16ccc     C8  439   1.222  -0.352   2.224 -0.7130  0.5661 -0.5684
   16ccc     O3  440   1.292  -0.295   2.142  0.1590 -0.2415  0.3031
   16ccc     O4  441   1.237  -0.487   2.242 -0.3540  0.6491  0.2734
   16ccc    H14  442   0.576   0.101   2.033  2.2798  2.7120  0.0861
   16ccc    H15  443   1.161  -0.513   2.296  0.9659 -1.7300  1.1458
   16ccc    H16  444   0.889  -0.132   2.353 -0.5919  0.2820 -0.6386
   17ccc     N1  445  -0.043   0.413   2.401 -0.1625  0.1069  0.0122
   17ccc     H1  446  -0.104   0.341   2.364 -0.5307 -0.9747  2.5856
   17ccc     C1  447  -0.111   0.518   2.481 -0.8343 -0.6627  0.1618
   17ccc     H2  448  -0.215   0.485   2.495 -1.2705  0.7234  0.2591
   17ccc     C2  449  -0.113   0.655   2.404  0.0211  0.3005  0.3042
   17ccc     H3  450  -0.065   0.530   2.580  1.5420  0.9792 -1.0394
   17ccc     H4  451  -0.014   0.701   2.403 -1.3437  3.5021 -0.9290
   17ccc     H5  452  -0.171   0.723   2.467 -0.5832  0.2020 -0.1378
   17ccc     N2  453  -0.159   0.644   2.262 -0.8286 -0.3317  0.2476
   17ccc     C3  454  -0.084   0.733   2.163 -0.0597  0.0985 -0.2487
   17ccc     C4  455  -0.309   0.683   2.242 -0.5282  0.4236  0.2093
   17ccc     H6  456  -0.365   0.610   2.300 -0.0536 -0.0194  0.1178
   17ccc     C5  457  -0.367   0.679   2.095  0.2780  0.5929 -0.2076
   17ccc     H7  458  -0.322   0.784   2.279 -3.8749  0.0042  0.5330
   17ccc     H8  459  -0.369   0.575   2.060  1.1751  0.3182  0.5147
   17ccc     H9  460  -0.314   0.744   2.025  1.6990  0.2282  0.4955
   17ccc     C6  461  -0.519   0.715   2.104  0.0482  0.2578 -0.2968
   17ccc     O1  462  -0.602   0.613   2.121  0.3243 -0.0186  0.9954
   17ccc     O2  463  -0.558   0.832   2.115 -0.4911  0.0337  0.7860
   17ccc    H10  464  -0.100   0.839   2.184 -1.6046 -0.2619  0.4970
   17ccc    H11  465  -0.124   0.701   2.067 -0.9816 -1.9048  0.7454
   17ccc     C7  466   0.067   0.716   2.157 -0.8005 -0.4414 -0.7287
   17ccc    H12  467   0.097   0.610   2.149  2.4215  0.3579 -0.7553
   17ccc    H13  468   0.122   0.757   2.242  0.1486  0.6153 -1.8061
   17ccc     C8  469   0.119   0.785   2.029  0.5152 -0.7102  0.2986
   17ccc     O3  470   0.060   0.873   1.967  0.6453  0.4549 -0.4629
   17ccc     O4  471   0.252   0.775   2.012  0.1970  0.0741  0.7139
   17ccc    H14  472  -0.691   0.653   2.124 -0.8609 -2.4951  1.7911
   17ccc    H15  473   0.282   0.718   2.086  1.1218 -1.7964 -0.9992
   17ccc    H16  474  -0.140   0.545   2.241  1.4039 -0.5369  2.6366
   18ccc     N1  475  -0.213   2.018   0.807 -0.5394  0.2916 -0.5917
   18ccc     H1  476  -0.219   2.082   0.885  1.6800  0.1190 -0.2278
   18ccc     C1  477  -0.116   2.051   0.701  0.0169  0.4118  0.5374
   18ccc     H2  478  -0.017   2.049   0.746 -0.3402 -0.0792  1.3100
   18ccc     C2  479  -0.144   2.193   0.639 -0.5668 -0.2258 -0.2953
   18ccc     H3  480  -0.126   1.978   0.620  0.4590 -0.5406  1.3189
   18ccc     H4  481  -0.079   2.199   0.552 -0.5848  0.8928 -0.2354
   18ccc     H5  482  -0.110   2.268   0.710  1.7984 -1.2951 -0.1976
   18ccc     N2  483  -0.294   2.217   0.608 -0.5371  0.0063 -0.0490
   18ccc     C3  484  -0.335   2.136   0.480 -0.2127  0.0373  0.0854
   18ccc     C4  485  -0.307   2.369   0.596 -0.0735 -0.0235  1.2016
   18ccc     H6  486  -0.294   2.411   0.695  0.5058  0.2530  1.0122
   18ccc     C5  487  -0.443   2.423   0.544  0.8349  0.5370 -0.1975
   18ccc     H7  488  -0.229   2.413   0.534 -1.7222  1.5601  0.1670
   18ccc     H8  489  -0.526   2.406   0.614 -1.1675  0.3098 -2.4751
   18ccc     H9  490  -0.472   2.371   0.452  1.4264  0.1060 -0.1417
   18ccc     C6  491  -0.447   2.574   0.514 -0.1748  0.3022  0.1665
   18ccc     O1  492  -0.548   2.610   0.443  0.4935  0.3150  0.4243
   18ccc     O2  493  -0.346   2.646   0.521  0.0849  0.5049  0.2698
   18ccc    H10  494  -0.440   2.146   0.455  0.0812  0.8321 -0.9182
   18ccc    H11  495  -0.314   2.034   0.511  0.7899  0.3845  0.6280
   18ccc     C7  496  -0.251   2.177   0.354 -0.3207 -0.4783  0.0243
   18ccc    H12  497  -0.146   2.144   0.358  0.0091  0.6190  0.9588
   18ccc    H13  498  -0.258   2.286   0.353 -1.0240 -0.4172  2.7904
   18ccc     C8  499  -0.328   2.107   0.239 -0.8257  0.8770  0.1967
   18ccc     O3  500  -0.445   2.131   0.223  0.2102  0.0225  0.3735
   18ccc     O4  501  -0.281   1.988   0.199 -0.4004 -0.0284  0.1651
   18ccc    H14  502  -0.531   2.705   0.458  0.0456  0.2775  1.2314
   18ccc    H15  503  -0.189   1.983   0.230 -0.3506  0.7414  0.1512
   18ccc    H16  504  -0.362   2.195   0.681  0.3077  2.0665  1.4791
   19ccc     N1  505  -0.467   1.385   0.597  0.1398 -0.1302 -0.0853
   19ccc     H1  506  -0.469   1.477   0.556  2.6251 -0.9404 -2.2772
   19ccc     C1  507  -0.541   1.279   0.539 -0.6488 -0.3226  0.4477
   19ccc     H2  508  -0.490   1.182   0.543 -1.3398 -0.7364 -0.2925
   19ccc     C2  509  -0.579   1.318   0.395  0.3578  0.4765  0.6187
   19ccc     H3  510  -0.637   1.269   0.592 -1.4508  3.5254 -0.0090
   19ccc     H4  511  -0.651   1.400   0.403  0.9409  0.9649  0.9496
   19ccc     H5  512  -0.638   1.240   0.347  3.0739  0.1109 -2.5486
   19ccc     N2  513  -0.470   1.350   0.287  0.3171 -0.6298 -0.1148
   19ccc     C3  514  -0.543   1.390   0.160 -0.4567  0.3759  0.0128
   19ccc     C4  515  -0.392   1.226   0.252  0.7605 -1.0104  0.6345
   19ccc     H6  516  -0.358   1.176   0.343 -0.0911 -1.5145  0.6871
   19ccc     C5  517  -0.265   1.245   0.170  0.6352 -0.4769  0.9080
   19ccc     H7  518  -0.458   1.156   0.201 -0.6752 -0.7268  2.0522
   19ccc     H8  519  -0.220   1.343   0.189 -0.7818  0.8147 -1.8629
   19ccc     H9  520  -0.296   1.242   0.065 -0.9076 -1.5102  1.3480
   19ccc     C6  521  -0.155   1.139   0.184  0.1860  0.0697 -0.2035
   19ccc     O1  522  -0.064   1.140   0.088 -0.1764 -0.8708  0.0286
   19ccc     O2  523  -0.135   1.078   0.288 -0.5660 -0.1284  0.6194
   19ccc    H10  524  -0.615   1.318   0.121 -0.1718  1.1210 -2.0286
   19ccc    H11  525  -0.468   1.390   0.080 -1.0589  0.2396 -0.5606
   19ccc     C7  526  -0.607   1.532   0.175  0.0272 -0.4084  0.1319
   19ccc    H12  527  -0.525   1.603   0.195 -1.3739  0.9431  1.3138
   19ccc    H13  528  -0.671   1.546   0.263 -0.8369  1.7151 -0.7798
   19ccc     C8  529  -0.692   1.579   0.055  0.2100 -0.2170 -0.8157
   19ccc     O3  530  -0.790   1.520   0.019 -0.0689  0.5298 -0.3048
   19ccc     O4  531  -0.618   1.633  -0.037  0.2460  0.6529  0.2940
   19ccc    H14  532  -0.089   1.214   0.030  2.8681  0.4068  0.1436
   19ccc    H15  533  -0.687   1.663  -0.099 -0.7841 -2.2996 -0.1116
   19ccc    H16  534  -0.410   1.424   0.326 -0.6643 -0.0468  0.3272
   20ccc     N1  535  -0.312   1.388   2.699 -0.3167  0.2969  0.0868
   20ccc     H1  536  -0.318   1.485   2.728 -1.0617 -0.1301  1.4038
   20ccc     C1  537  -0.285   1.288   2.800 -0.1154 -0.6906  0.4398
   20ccc     H2  538  -0.220   1.211   2.757 -0.9230 -0.3175 -1.5886
   20ccc     C2  539  -0.414   1.225   2.856  0.2067  0.2531  1.1042
   20ccc     H3  540  -0.241   1.347   2.881 -1.5179  2.0983 -0.6726
   20ccc     H4  541  -0.396   1.169   2.947  0.1329  0.4474  1.2376
   20ccc     H5  542  -0.457   1.171   2.771 -0.6673  0.5599  1.3516
   20ccc     N2  543  -0.515   1.329   2.890 -0.2156  0.0728 -0.2374
   20ccc     C3  544  -0.565   1.329   3.035  0.0504  0.3022  0.2962
   20ccc     C4  545  -0.638   1.282   2.807  0.2011  0.3163  0.1856
   20ccc     H6  546  -0.610   1.231   2.715 -0.2083 -0.7220  0.6171
   20ccc     C5  547  -0.748   1.378   2.769  0.3575  0.4513  0.2124
   20ccc     H7  548  -0.684   1.201   2.864  0.4041  0.3351  0.3750
   20ccc     H8  549  -0.777   1.423   2.864  0.6783  0.8413  0.1294
   20ccc     H9  550  -0.837   1.327   2.730  0.6307  0.8448 -0.9585
   20ccc     C6  551  -0.705   1.482   2.670 -0.1557  0.0233  0.0866
   20ccc     O1  552  -0.803   1.561   2.622  0.0713 -0.6228 -0.2973
   20ccc     O2  553  -0.591   1.499   2.626 -0.3654 -0.0594  0.2855
   20ccc    H10  554  -0.505   1.262   3.096 -0.2430 -1.1849 -0.9823
   20ccc    H11  555  -0.661   1.278   3.034 -0.0067  0.4020 -1.1521
   20ccc     C7  556  -0.598   1.470   3.102 -0.3927  0.2527  0.2121
   20ccc    H12  557  -0.673   1.526   3.044  0.5374  0.8157 -0.4718
   20ccc    H13  558  -0.507   1.526   3.124 -1.2311  1.6184  0.3124
   20ccc     C8  559  -0.652   1.444   3.244 -0.4273 -0.5423  0.2239
   20ccc     O3  560  -0.654   1.331   3.293 -0.3353  0.0249  0.1271
   20ccc     O4  561  -0.645   1.557   3.327  0.2007 -0.6021  0.2494
   20ccc    H14  562  -0.746   1.610   2.561 -1.0392 -0.2302 -1.0442
   20ccc    H15  563  -0.679   1.631   3.274 -2.0501 -0.6415  1.4951
   20ccc    H16  564  -0.474   1.419   2.862 -1.4438  0.2046 -1.7990
   21ccc     N1  565  -0.630   1.872   2.282  0.0589  0.0787  0.4189
   21ccc     H1  566  -0.596   1.893   2.189  0.9594  1.2966  0.9845
   21ccc     C1  567  -0.670   1.985   2.368 -0.1518 -0.1270  0.0971
   21ccc     H2  568  -0.617   1.972   2.463  0.4987 -1.6932 -0.4334
   21ccc     C2  569  -0.818   1.982   2.387  0.3680  0.5039 -0.4074
   21ccc     H3  570  -0.644   2.085   2.332 -1.7666  0.3749  0.2681
   21ccc     H4  571  -0.847   1.915   2.468  0.0949  0.2243 -0.7345
   21ccc     H5  572  -0.861   1.950   2.292  0.1207 -1.3665  0.2939
   21ccc     N2  573  -0.885   2.119   2.420  0.0886  0.3245  0.5184
   21ccc     C3  574  -0.860   2.160   2.564 -0.5040  0.6703 -0.2885
   21ccc     C4  575  -1.031   2.081   2.387 -0.4735 -0.1287  0.0435
   21ccc     H6  576  -1.039   2.047   2.283 -1.0669 -0.1717  0.1028
   21ccc     C5  577  -1.129   2.198   2.408 -0.5312 -0.2217 -0.0180
   21ccc     H7  578  -1.062   1.995   2.447  1.2482  0.3147  1.6604
   21ccc     H8  579  -1.127   2.239   2.510 -3.8348  1.8736 -0.6474
   21ccc     H9  580  -1.233   2.181   2.377 -0.6523  0.1256  0.1967
   21ccc     C6  581  -1.084   2.320   2.326 -0.2771 -0.2450 -0.1955
   21ccc     O1  582  -0.992   2.404   2.377 -0.2533 -0.9808 -0.6808
   21ccc     O2  583  -1.104   2.336   2.207  0.4395 -0.2980  0.4409
   21ccc    H10  584  -0.901   2.260   2.580  0.4524  0.7269  2.4411
   21ccc    H11  585  -0.753   2.172   2.582 -0.3762 -1.2706  0.4344
   21ccc     C7  586  -0.916   2.068   2.671 -0.6079 -0.3298  0.2099
   21ccc    H12  587  -0.846   1.983   2.680  0.5781  0.0067 -3.8405
   21ccc    H13  588  -1.018   2.030   2.662 -0.6515 -0.4685  1.1790
   21ccc     C8  589  -0.931   2.143   2.796  0.6446 -0.0950  0.6652
   21ccc     O3  590  -0.965   2.258   2.805 -0.2103 -0.5097 -0.1248
   21ccc     O4  591  -0.939   2.064   2.901  0.2243 -0.5512  0.2039
   21ccc    H14  592  -0.991   2.481   2.318  0.7318 -1.3163 -1.1245
   21ccc    H15  593  -0.967   2.122   2.974 -3.4603 -0.2764 -1.1946
   21ccc    H16  594  -0.845   2.186   2.353 -2.5144  1.1484 -0.3751
   22ccc     N1  595   0.994   1.333  -0.366  0.2645 -0.2203 -0.2369
   22ccc     H1  596   1.017   1.246  -0.413 -1.0158 -0.8227  0.2218
   22ccc     C1  597   1.068   1.458  -0.407 -0.2156  0.0436 -0.3024
   22ccc     H2  598   1.012   1.548  -0.380 -1.6618 -1.2028  1.1097
   22ccc     C2  599   1.096   1.468  -0.556  0.2702  0.2678 -0.0967
   22ccc     H3  600   1.164   1.453  -0.356 -0.2745 -1.5647 -0.2843
   22ccc     H4  601   1.145   1.558  -0.592  0.5180  0.1270 -0.1136
   22ccc     H5  602   1.003   1.463  -0.613 -0.8497  2.6230  1.3652
   22ccc     N2  603   1.186   1.353  -0.606 -0.3410  0.0796  0.0455
   22ccc     C3  604   1.329   1.374  -0.551  0.3166 -0.5492  0.3924
   22ccc     C4  605   1.201   1.354  -0.764  0.1291  0.5470 -0.2913
   22ccc     H6  606   1.221   1.457  -0.795 -1.0567  1.0982  0.6861
   22ccc     C5  607   1.083   1.299  -0.846  0.5590  0.5812  0.1077
   22ccc     H7  608   1.281   1.289  -0.797 -0.3780 -0.6646  0.7800
   22ccc     H8  609   1.102   1.327  -0.950 -0.7598  1.4770  0.0747
   22ccc     H9  610   0.988   1.338  -0.808  0.5380  0.4973  0.1423
   22ccc     C6  611   1.081   1.155  -0.844  0.2557 -0.6536 -0.2942
   22ccc     O1  612   0.967   1.099  -0.872 -0.6177  0.0081  0.1011
   22ccc     O2  613   1.191   1.098  -0.856  0.7177 -0.2578 -0.1110
   22ccc    H10  614   1.323   1.385  -0.443 -0.0189 -0.5456  0.3754
   22ccc    H11  615   1.363   1.472  -0.583 -3.8363  1.2567  0.8749
   22ccc     C7  616   1.430   1.261  -0.578  0.5366  0.5281 -0.0181
   22ccc    H12  617   1.423   1.222  -0.680 -1.5423 -0.3032  0.4053
   22ccc    H13  618   1.387   1.186  -0.511 -3.0432  2.4824  0.0679
   22ccc     C8  619   1.573   1.285  -0.532  0.7194  0.0133  0.7333
   22ccc     O3  620   1.603   1.394  -0.488 -0.2649  0.0030  0.1002
   22ccc     O4  621   1.638   1.173  -0.488 -0.0668  0.6839  0.7616
   22ccc    H14  622   0.905   1.174  -0.866  0.8321  1.1706  1.1989
   22ccc    H15  623   1.587   1.095  -0.517  1.4036 -0.5605  1.3934
   22ccc    H16  624   1.149   1.263  -0.570 -0.9319  0.6423  0.8852
   23ccc     N1  625   0.396   0.912   0.006 -0.6716  0.3034 -0.2526
   23ccc     H1  626   0.429   0.821   0.035  0.2773  0.3710 -1.0599
   23ccc     C1  627   0.254   0.921   0.013  0.5861 -0.2082  0.2748
   23ccc     H2  628   0.224   0.997  -0.059  1.7454 -0.0248 -0.0340
   23ccc     C2  629   0.196   0.962   0.150 -0.0530  0.6223 -0.2070
   23ccc     H3  630   0.205   0.825  -0.010 -1.1712  0.5378  0.7174
   23ccc     H4  631   0.087   0.960   0.150 -0.1295  1.9440  1.6030
   23ccc     H5  632   0.229   1.062   0.175 -0.4886  0.7109  0.0230
   23ccc     N2  633   0.220   0.880   0.280  0.1686 -0.5051 -0.0367
   23ccc     C3  634   0.120   0.931   0.387  0.1904 -0.0768 -0.3531
   23ccc     C4  635   0.365   0.877   0.329  0.5820 -0.0909  0.0802
   23ccc     H6  636   0.435   0.854   0.248  0.7261 -1.1656  0.4870
   23ccc     C5  637   0.382   0.751   0.418  0.4638  0.1255 -0.0713
   23ccc     H7  638   0.400   0.960   0.390  0.1067  0.3844 -0.2738
   23ccc     H8  639   0.345   0.663   0.364 -0.8314  1.1017 -0.8055
   23ccc     H9  640   0.325   0.753   0.512  0.4110  0.8255 -0.1107
   23ccc     C6  641   0.529   0.731   0.448 -0.0065 -0.1375 -0.2673
   23ccc     O1  642   0.567   0.613   0.488 -0.4168  0.0129 -0.4821
   23ccc     O2  643   0.617   0.807   0.413  0.3398 -0.3408 -0.2487
   23ccc    H10  644   0.128   0.877   0.481  0.4621 -0.3964 -0.5553
   23ccc    H11  645   0.018   0.928   0.346  0.4407  0.5709 -1.0501
   23ccc     C7  646   0.137   1.081   0.425  0.1421  0.3083  0.3481
   23ccc    H12  647   0.106   1.136   0.335 -0.0060  0.1966  0.3302
   23ccc    H13  648   0.243   1.106   0.439  0.4771  0.0912 -1.5351
   23ccc     C8  649   0.039   1.116   0.535  0.5106  0.7571  0.0572
   23ccc     O3  650  -0.049   1.034   0.586 -0.2532 -0.0452  0.5351
   23ccc     O4  651   0.074   1.214   0.616 -0.0270  0.6725  0.2234
   23ccc    H14  652   0.487   0.581   0.533 -0.1357  0.3997  0.3179
   23ccc    H15  653   0.157   1.251   0.581 -0.2828  2.4461  1.3397
   23ccc    H16  654   0.194   0.784   0.251  0.1362 -0.8827  1.2078
   24ccc     N1  655   2.233   1.181   0.788  0.3954  0.3189 -0.4826
   24ccc     H1  656   2.310   1.241   0.759  0.2126  0.5950 -0.3976
   24ccc     C1  657   2.181   1.069   0.708 -0.9349  0.2266  0.1465
   24ccc     H2  658   2.073   1.065   0.724 -1.0438  3.3178  0.7680
   24ccc     C2  659   2.251   0.932   0.739 -1.0283 -0.5263 -0.8827
   24ccc     H3  660   2.197   1.090   0.601  0.2988  0.1094  0.2889
   24ccc     H4  661   2.357   0.936   0.715 -0.7381  1.6545  0.4760
   24ccc     H5  662   2.202   0.860   0.674 -1.2897 -0.8964 -0.2865
   24ccc     N2  663   2.247   0.889   0.885  0.4260 -0.4547  0.6827
   24ccc     C3  664   2.349   0.778   0.924 -0.3986  0.2730  0.1498
   24ccc     C4  665   2.104   0.843   0.905  0.1915 -0.5989  0.9685
   24ccc     H6  666   2.046   0.931   0.876  0.6725 -0.1870  1.2372
   24ccc     C5  667   2.069   0.807   1.051  0.0189  0.1311  0.3825
   24ccc     H7  668   2.095   0.761   0.834  0.1199  1.9151 -2.1658
   24ccc     H8  669   2.119   0.877   1.119  1.8673 -1.5599  0.8422
   24ccc     H9  670   2.097   0.705   1.079 -1.3125 -0.0879  0.9788
   24ccc     C6  671   1.920   0.821   1.073 -0.5370  0.4824 -0.5083
   24ccc     O1  672   1.872   0.789   1.195  0.3134  0.3626 -0.1015
   24ccc     O2  673   1.846   0.855   0.982  0.1487 -1.0960  0.3933
   24ccc    H10  674   2.312   0.682   0.887  0.7504 -0.0804 -0.1175
   24ccc    H11  675   2.350   0.775   1.033 -2.6382 -1.3098  0.2044
   24ccc     C7  676   2.493   0.799   0.877 -0.1823 -1.0610 -0.2182
   24ccc    H12  677   2.514   0.907   0.883  0.9855 -1.3087  0.4449
   24ccc    H13  678   2.493   0.772   0.770  1.3360 -0.2336 -0.4489
   24ccc     C8  679   2.597   0.716   0.951 -0.0700  0.0628  0.5964
   24ccc     O3  680   2.560   0.623   1.020  0.1813  0.6715  0.5252
   24ccc     O4  681   2.725   0.738   0.920  0.2733  0.4327 -0.2873
   24ccc    H14  682   1.945   0.751   1.247 -2.0376 -2.4682  1.5144
   24ccc    H15  683   2.737   0.818   0.866  1.1596  0.5840  0.1167
   24ccc    H16  684   2.265   0.970   0.946  0.3550 -0.2752  0.4634
   25ccc     N1  685   2.159   1.898   0.711  0.6278 -0.0910  0.0625
   25ccc     H1  686   2.213   1.827   0.663 -1.3507 -2.1800  0.7755
   25ccc     C1  687   2.159   2.043   0.673  0.1936  0.7950  0.3053
   25ccc     H2  688   2.175   2.054   0.565  1.9953 -2.2421  0.1390
   25ccc     C2  689   2.252   2.132   0.754 -0.1797  0.7971 -0.4051
   25ccc     H3  690   2.055   2.068   0.698 -0.0417 -1.8229  2.4245
   25ccc     H4  691   2.216   2.127   0.857 -0.9483 -0.2970 -0.7104
   25ccc     H5  692   2.251   2.235   0.718  1.4424  0.5338 -1.3046
   25ccc     N2  693   2.397   2.090   0.778  0.0334  0.6363 -0.5728
   25ccc     C3  694   2.449   2.162   0.906  0.6945  0.0535  0.6232
   25ccc     C4  695   2.470   2.133   0.646 -0.5844  0.3640 -0.0561
   25ccc     H6  696   2.407   2.085   0.571  0.2083 -0.7859 -0.0105
   25ccc     C5  697   2.617   2.086   0.644  0.8350  0.0122 -0.8622
   25ccc     H7  698   2.450   2.239   0.630 -1.6326  0.1840 -0.0352
   25ccc     H8  699   2.619   1.981   0.676  0.7336 -0.0051 -0.9143
   25ccc     H9  700   2.673   2.140   0.722  1.5784 -2.9759  0.8229
   25ccc     C6  701   2.686   2.097   0.513  0.5499 -0.8636 -0.4884
   25ccc     O1  702   2.782   1.999   0.506 -0.3214 -0.0772 -0.0359
   25ccc     O2  703   2.655   2.169   0.423 -0.1065 -0.5498  0.0986
   25ccc    H10  704   2.408   2.262   0.892 -0.9872 -0.6792  0.1255
   25ccc    H11  705   2.558   2.175   0.905  0.7668 -0.4261 -1.4027
   25ccc     C7  706   2.401   2.108   1.039  0.5734  0.0944 -0.4851
   25ccc    H12  707   2.433   2.005   1.057  0.5366  0.1142 -0.3023
   25ccc    H13  708   2.293   2.124   1.051  0.7470  0.9936  0.0011
   25ccc     C8  709   2.471   2.196   1.141 -0.2238  0.1316  0.6885
   25ccc     O3  710   2.492   2.314   1.134  0.0134  0.5921  0.0421
   25ccc     O4  711   2.499   2.120   1.247  0.1703 -0.2696 -0.1132
   25ccc    H14  712   2.818   2.011   0.416 -1.5505 -0.5128 -0.6253
   25ccc    H15  713   2.548   2.182   1.304 -0.4395  0.2383 -0.1322
   25ccc    H16  714   2.408   1.994   0.814 -1.4146  1.5055  2.5077
   26ccc     N1  715   1.578   2.214   1.511  0.3516  0.1515 -0.2037
   26ccc     H1  716   1.579   2.242   1.413  1.4159  0.1385 -0.2098
   26ccc     C1  717   1.562   2.323   1.610 -0.0632  0.5287  0.1875
   26ccc     H2  718   1.458   2.360   1.611  0.2820  1.5452  0.1856
   26ccc     C2  719   1.657   2.447   1.592 -0.6004  0.2450  0.1286
   26ccc     H3  720   1.585   2.290   1.712 -0.6117  1.1791  0.5278
   26ccc     H4  721   1.628   2.526   1.662  0.2934  1.6623 -1.0550
   26ccc     H5  722   1.646   2.478   1.488  1.4967 -0.1436 -0.2473
   26ccc     N2  723   1.809   2.422   1.622  0.3718 -0.3373 -0.0734
   26ccc     C3  724   1.865   2.320   1.518 -0.2258 -0.1617  0.2604
   26ccc     C4  725   1.836   2.359   1.763  0.3744  0.2203 -0.4761
   26ccc     H6  726   1.783   2.263   1.764 -0.3736  0.6252  0.9394
   26ccc     C5  727   1.797   2.458   1.880 -0.0988 -0.3382 -0.1621
   26ccc     H7  728   1.942   2.341   1.779  0.6864  0.5746 -1.9976
   26ccc     H8  729   1.698   2.499   1.857 -1.9502 -4.4960 -0.4972
   26ccc     H9  730   1.868   2.541   1.889  0.2525 -0.3668 -2.2176
   26ccc     C6  731   1.807   2.396   2.015  0.2955 -0.3993  0.0339
   26ccc     O1  732   1.798   2.492   2.112 -0.0161  0.4175  0.0701
   26ccc     O2  733   1.845   2.284   2.041 -0.2536 -0.6221 -0.7163
   26ccc    H10  734   1.820   2.344   1.421  1.2109  2.4456  0.1528
   26ccc    H11  735   1.819   2.224   1.542  0.6242 -0.1085  2.2775
   26ccc     C7  736   2.020   2.335   1.495 -0.5444  0.0552  0.0100
   26ccc    H12  737   2.074   2.351   1.590  1.1597 -0.1515 -0.8982
   26ccc    H13  738   2.035   2.422   1.429  0.8579  0.9866  1.4619
   26ccc     C8  739   2.086   2.216   1.426  0.6702 -0.1577  0.5702
   26ccc     O3  740   2.024   2.133   1.365  0.1536  0.0795  0.1365
   26ccc     O4  741   2.218   2.205   1.448  0.0663  0.4246 -0.2112
   26ccc    H14  742   1.752   2.566   2.070 -0.8541  1.3684  2.5119
   26ccc    H15  743   2.247   2.293   1.478 -0.1842  0.7599 -0.9043
   26ccc    H16  744   1.859   2.512   1.618  1.3483 -0.8948 -1.6187
   27ccc     N1  745   2.110   1.934   1.714 -0.6366  0.5302  0.5004
   27ccc     H1  746   2.165   1.850   1.702 -0.7712  0.3494  1.1167
   27ccc     C1  747   2.164   2.047   1.789  0.4544  0.0167  0.3853
   27ccc     H2  748   2.268   2.040   1.822  0.2200  1.2576  1.4859
   27ccc     C2  749   2.089   2.082   1.918 -0.2302 -0.2457  0.8556
   27ccc     H3  750   2.164   2.134   1.722  1.0888 -0.1973  0.0993
   27ccc     H4  751   1.982   2.066   1.902 -0.2015 -2.1030  2.1161
   27ccc     H5  752   2.107   2.186   1.943 -0.0377 -0.2101  0.5806
   27ccc     N2  753   2.133   2.002   2.039  0.3995  0.2114  0.9530
   27ccc     C3  754   2.073   1.859   2.040 -0.1353 -0.4359 -0.2741
   27ccc     C4  755   2.094   2.085   2.166  0.0071  0.0173  0.7008
   27ccc     H6  756   1.992   2.118   2.143 -0.6625 -1.3215  1.6351
   27ccc     C5  757   2.178   2.203   2.219 -0.2936  0.1809  0.3419
   27ccc     H7  758   2.081   2.016   2.249 -2.2580 -0.6016 -0.0954
   27ccc     H8  759   2.204   2.264   2.132 -1.1296  0.9536  0.6261
   27ccc     H9  760   2.267   2.158   2.265 -1.2319 -0.6624  1.3981
   27ccc     C6  761   2.101   2.291   2.315  0.8906  0.5676 -0.3902
   27ccc     O1  762   2.131   2.420   2.316 -0.1059  0.3162 -0.1719
   27ccc     O2  763   2.008   2.244   2.373  0.1649  0.3233  0.2103
   27ccc    H10  764   2.072   1.836   1.933  1.3249 -0.9893 -0.1872
   27ccc    H11  765   1.974   1.873   2.084  0.0298 -1.3479  0.4140
   27ccc     C7  766   2.147   1.748   2.114 -0.1122  0.1408 -0.6881
   27ccc    H12  767   2.122   1.747   2.221  0.3447  2.0950 -0.5234
   27ccc    H13  768   2.254   1.765   2.099 -0.1333 -0.7567 -2.0542
   27ccc     C8  769   2.114   1.604   2.079 -0.7656 -0.2634 -0.2365
   27ccc     O3  770   2.004   1.572   2.042  0.4223  0.1155 -0.3827
   27ccc     O4  771   2.194   1.514   2.140 -0.5049  0.6848 -0.1900
   27ccc    H14  772   2.078   2.447   2.393 -2.3908 -0.9505 -1.2028
   27ccc    H15  773   2.145   1.430   2.134  0.0948  0.3957 -1.4907
   27ccc    H16  774   2.236   1.997   2.039  0.3693 -0.8102  1.7827
   28ccc     N1  775   0.357   1.898   1.988 -0.1093  0.2913  0.3761
   28ccc     H1  776   0.267   1.915   1.945 -0.8871  0.3675  1.9741
   28ccc     C1  777   0.391   1.774   2.054 -0.3783 -0.0745 -0.2176
   28ccc     H2  778   0.489   1.735   2.022 -0.2474 -1.0700  1.3066
   28ccc     C2  779   0.288   1.668   2.041  1.4415  0.8713 -0.2794
   28ccc     H3  780   0.400   1.799   2.160  2.3863  0.0614 -0.3962
   28ccc     H4  781   0.196   1.698   2.090  1.1684 -0.9273  0.3676
   28ccc     H5  782   0.309   1.581   2.102 -0.2221  0.8932  0.3605
   28ccc     N2  783   0.245   1.624   1.899  0.6518  0.0111 -0.0672
   28ccc     C3  784   0.155   1.500   1.903  0.0400  0.0455  0.1425
   28ccc     C4  785   0.363   1.592   1.810 -0.6687  0.1534 -0.0227
   28ccc     H6  786   0.453   1.627   1.860  0.7263 -2.3321 -0.6001
   28ccc     C5  787   0.350   1.635   1.664  1.0859 -0.3613  0.1966
   28ccc     H7  788   0.378   1.484   1.813  3.1428  0.5674  1.6095
   28ccc     H8  789   0.351   1.745   1.665  1.1406 -0.3582 -0.3597
   28ccc     H9  790   0.259   1.591   1.622  0.9886 -1.5950  1.6014
   28ccc     C6  791   0.458   1.593   1.571 -0.2037 -0.7827  0.0556
   28ccc     O1  792   0.451   1.644   1.444  0.4228  0.0657  0.3149
   28ccc     O2  793   0.555   1.535   1.607  0.2194 -0.0420  0.8226
   28ccc    H10  794   0.202   1.433   1.976 -0.2338 -1.5677 -1.1041
   28ccc    H11  795   0.163   1.454   1.804  1.1748  2.7097 -1.0991
   28ccc     C7  796   0.014   1.524   1.944  0.3069 -0.4868  0.1486
   28ccc    H12  797  -0.030   1.605   1.884 -3.5306 -1.3808  1.4570
   28ccc    H13  798   0.020   1.549   2.050  3.2865  1.2301 -0.3176
   28ccc     C8  799  -0.082   1.407   1.934  0.3525 -0.1283  0.4662
   28ccc     O3  800  -0.120   1.338   2.028 -0.5560 -0.6850 -0.0950
   28ccc     O4  801  -0.139   1.391   1.816  0.4758 -0.2986  0.0177
   28ccc    H14  802   0.359   1.674   1.433  0.2716 -0.5383 -0.1217
   28ccc    H15  803  -0.090   1.441   1.750 -0.0675 -0.9491 -0.8978
   28ccc    H16  804   0.197   1.712   1.874  0.9890  0.0537 -0.5639
   29ccc     N1  805   0.948   2.112   2.071 -0.1725 -0.0825 -0.1088
   29ccc     H1  806   0.937   2.184   2.142  1.3354  0.1340 -0.0666
   29ccc     C1  807   1.028   1.991   2.104 -0.4162 -0.8416 -0.5645
   29ccc     H2  808   0.999   1.956   2.204 -0.1030 -1.2614 -0.6180
   29ccc     C2  809   1.179   2.019   2.099 -0.3505 -0.1051  0.0842
   29ccc     H3  810   0.991   1.913   2.036 -0.1296 -1.1789 -0.3344
   29ccc     H4  811   1.238   1.926   2.100  3.2300  1.8269 -3.2145
   29ccc     H5  812   1.209   2.080   2.184 -0.6481 -1.3083  1.0831
   29ccc     N2  813   1.228   2.090   1.973  0.3609  0.0737 -0.2569
   29ccc     C3  814   1.205   2.004   1.849  0.9578  0.3077  0.2982
   29ccc     C4  815   1.378   2.133   1.989  0.4244  0.6877 -0.8950
   29ccc     H6  816   1.401   2.187   1.897 -1.3429  1.8735 -0.6714
   29ccc     C5  817   1.477   2.013   2.013 -0.4065  0.0688  0.5942
   29ccc     H7  818   1.384   2.202   2.072 -0.2628 -0.4904  0.1667
   29ccc     H8  819   1.460   1.915   1.966  1.3054  0.9926 -2.1738
   29ccc     H9  820   1.485   1.987   2.119  0.3553  0.5783  0.6709
   29ccc     C6  821   1.620   2.043   1.956 -0.6200 -0.3709 -0.3903
   29ccc     O1  822   1.712   1.948   1.970 -0.7750 -0.1179  0.5339
   29ccc     O2  823   1.646   2.149   1.906 -0.3059 -0.5436 -0.9959
   29ccc    H10  824   1.108   1.954   1.852  1.4960 -1.0507 -2.1003
   29ccc    H11  825   1.274   1.920   1.857  1.6617  0.8266 -0.2056
   29ccc     C7  826   1.221   2.075   1.720 -0.1012  0.0645 -0.5026
   29ccc    H12  827   1.324   2.109   1.705 -0.2135  0.0251 -1.3777
   29ccc    H13  828   1.167   2.170   1.729 -0.7423 -0.4410  1.6064
   29ccc     C8  829   1.171   1.991   1.609 -0.4435 -0.1791  0.0172
   29ccc     O3  830   1.062   1.940   1.599  0.0260 -0.4708  0.0639
   29ccc     O4  831   1.272   1.946   1.535  0.3178  0.4002  0.2834
   29ccc    H14  832   1.656   1.874   2.000  0.2852 -0.5493  1.5284
   29ccc    H15  833   1.221   1.884   1.480  0.3854 -0.2920  0.9910
   29ccc    H16  834   1.174   2.177   1.960 -0.1004 -0.2548 -0.5901
   30SOL     OW  835   3.043   4.764   1.654  0.0536 -0.0737  0.0219
   30SOL    HW1  836   3.035   4.859   1.655  0.9703  0.0150 -0.4017
   30SOL    HW2  837   3.026   4.739   1.563  3.4832  0.0760 -0.8154
   31SOL     OW  838   3.192   3.106   3.043 -0.3319  0.2459  0.0142
   31SOL    HW1  839   3.232   3.020   3.050  0.1668  0.2423 -2.1018
   31SOL    HW2  840   3.197   3.127   2.950  0.6323  3.0600  0.5772
   32SOL     OW  841   0.590   4.949   3.589 -0.3385  0.1182 -0.0962
   32SOL    HW1  842   0.576   5.010   3.516 -0.0831 -0.4544 -0.6417
   32SOL    HW2  843   0.537   4.984   3.660  0.5578  1.5139 -0.0761
   33SOL     OW  844   3.834   2.547   3.077 -0.2382  0.0278  0.0073
   33SOL    HW1  845   3.886   2.628   3.084 -0.7199  0.3607 -0.2314
   33SOL    HW2  846   3.896   2.483   3.041 -0.0007  0.4350 -0.3300
   34SOL     OW  847   5.265   4.740   2.126 -0.5829 -1.0370 -0.7880
   34SOL    HW1  848   5.209   4.817   2.121 -2.7476 -2.5388 -1.0419
   34SOL    HW2  849   5.229   4.689   2.198  0.8810 -1.7731 -0.5417
   35SOL     OW  850   1.556   3.309   3.776  0.4293 -0.0674 -0.0060
   35SOL    HW1  851   1.519   3.394   3.799  0.2809 -0.4634  1.3143
   35SOL    HW2  852   1.487   3.264   3.728  0.2365  0.2576 -0.0348
   36SOL     OW  853   0.162   3.980   0.659  0.1004  0.1007  0.7158
   36SOL    HW1  854   0.152   4.072   0.683 -0.9916  0.4214 -0.8111
   36SOL    HW2  855   0.087   3.962   0.603  0.6669 -1.5443  0.4406
   37SOL     OW  856   1.919   2.545   3.407 -0.3030 -0.1713 -0.0488
   37SOL    HW1  857   1.983   2.611   3.435 -0.1951 -0.8956  1.5549
   37SOL    HW2  858   1.972   2.473   3.373 -0.3203 -0.1784 -0.0609
   38SOL     OW  859   1.416   2.576   6.158 -0.4652  0.4036 -0.0917
   38SOL    HW1  860   1.461   2.654   6.191  0.4256  0.2820 -0.9883
   38SOL    HW2  861   1.413   2.517   6.234  1.3724  0.2089 -0.1129
   39SOL     OW  862   2.656   3.783   4.476 -0.5017 -0.7267  0.3534
   39SOL    HW1  863   2.729   3.796   4.416 -0.4723 -0.8831  0.3561
   39SOL    HW2  864   2.673   3.845   4.548 -0.2886 -0.8777  0.4326
   40SOL     OW  865   4.526   5.123   0.940  0.0054 -0.2264 -0.0296
   40SOL    HW1  866   4.588   5.191   0.914  0.8867 -0.8916  0.2815
   40SOL    HW2  867   4.575   5.068   1.001 -0.5988 -1.3240 -0.5083
   41SOL     OW  868   5.530   1.649   4.861  0.2029 -0.2271  0.2404
   41SOL    HW1  869   5.572   1.628   4.778  1.5314 -0.2323  0.8752
   41SOL    HW2  870   5.444   1.682   4.837 -0.1568 -1.9895 -1.0196
   42SOL     OW  871   2.093   3.146   5.075  1.4378 -0.3937 -0.8067
   42SOL    HW1  872   2.018   3.105   5.119  1.9392  0.1034  0.5937
   42SOL    HW2  873   2.159   3.077   5.070  2.1833  0.0866  1.3015
   43SOL     OW  874   3.638   3.287   5.447  0.3010  0.3174  0.2853
   43SOL    HW1  875   3.561   3.275   5.392  0.2538  0.4942  0.3123
   43SOL    HW2  876   3.675   3.200   5.457  0.7731  0.3937 -0.6926
   44SOL     OW  877   6.078   4.380   2.034 -0.4568 -0.3835  0.1154
   44SOL    HW1  878   6.086   4.286   2.016  0.2240 -0.7128  1.9634
   44SOL    HW2  879   5.988   4.402   2.011  0.0312 -0.8936 -2.7357
   45SOL     OW  880   2.338   1.547   4.962  0.0958  0.2653  0.5989
   45SOL    HW1  881   2.319   1.641   4.962  0.2540  0.2980  0.5069
   45SOL    HW2  882   2.363   1.528   5.052  1.0948  0.5257  0.3895
   46SOL     OW  883   4.115   5.727   3.678 -0.3372  0.1259  0.0275
   46SOL    HW1  884   4.149   5.723   3.768  0.4063  0.9639 -0.1967
   46SOL    HW2  885   4.119   5.636   3.647 -1.0362 -0.2450  0.9888
   47SOL     OW  886   3.352   3.274   5.361  0.6684 -0.4715  0.1081
   47SOL    HW1  887   3.294   3.276   5.285 -0.2244  0.6559  0.7777
   47SOL    HW2  888   3.395   3.359   5.361  1.1889 -0.7282  0.4780
   48SOL     OW  889   3.032   5.473   0.385  0.4140 -0.8258  0.2092
   48SOL    HW1  890   2.964   5.526   0.344  1.4878  1.8677  1.6394
   48SOL    HW2  891   3.051   5.404   0.321 -1.5855  0.0847 -1.4658
   49SOL     OW  892   3.644   4.484   4.843 -0.1872 -0.2166 -0.2829
   49SOL    HW1  893   3.683   4.449   4.923  0.5119  0.5968 -0.2491
   49SOL    HW2  894   3.680   4.428   4.774 -1.1492 -1.2089 -0.0086
   50SOL     OW  895   3.097   0.033   3.927  0.1478 -0.6100  0.5167
   50SOL    HW1  896   3.110  -0.061   3.922  0.1762 -0.5899  0.1202
   50SOL    HW2  897   3.163   0.069   3.867 -0.0396 -0.3548  0.4603
   51SOL     OW  898   2.413   5.060   5.363 -0.0775 -0.1798  0.4870
   51SOL    HW1  899   2.385   5.087   5.276  1.6679  1.2083  0.3091
   51SOL    HW2  900   2.387   5.133   5.420  1.6937  0.4426  0.5540
   52SOL     OW  901   3.679   1.213   4.505 -0.1623  0.0630  0.2472
   52SOL    HW1  902   3.613   1.225   4.573  0.6401  1.8042  0.7629
   52SOL    HW2  903   3.753   1.173   4.550 -0.3790 -0.7143 -0.0663
   53SOL     OW  904   3.501   2.111   5.736  0.1904 -0.5982  0.0487
   53SOL    HW1  905   3.471   2.035   5.785  0.8532 -0.7374  0.2455
   53SOL    HW2  906   3.553   2.075   5.664  3.5633 -0.3240  2.1115
   54SOL     OW  907   2.885   0.749   1.930  0.4270  0.3506  0.3019
   54SOL    HW1  908   2.889   0.686   1.858  1.4135  1.4870 -0.6811
   54SOL    HW2  909   2.819   0.813   1.903  0.3579  0.4514  0.7024
   55SOL     OW  910   1.071   1.753   2.799 -0.1056 -0.4540 -0.0318
   55SOL    HW1  911   0.994   1.808   2.811 -1.1525 -1.7115 -0.7011
   55SOL    HW2  912   1.101   1.732   2.887 -1.9420 -1.8227  0.3185
   56SOL     OW  913   1.109   2.586   4.186 -0.1114  0.3495 -0.0180
   56SOL    HW1  914   1.132   2.679   4.175  0.0429  0.2903 -0.1984
   56SOL    HW2  915   1.097   2.575   4.280  1.3738  0.1994  0.1783
   57SOL     OW  916   6.024   2.692   6.109 -0.1082 -0.4759 -0.3306
   57SOL    HW1  917   6.005   2.766   6.052 -4.3942 -1.1670 -0.1363
   57SOL    HW2  918   5.992   2.718   6.195 -2.2401 -2.6120 -0.3741
   58SOL     OW  919   6.239   1.679   5.758  0.2891 -0.3396  0.1733
   58SOL    HW1  920   6.196   1.609   5.807  0.0188 -0.5943 -0.4281
   58SOL    HW2  921   6.283   1.731   5.826 -1.2093  0.1185  0.8287
   59SOL     OW  922   3.326   3.828   4.558  0.5036 -0.1313  0.0930
   59SOL    HW1  923   3.314   3.874   4.641 -0.6067 -1.8402  0.9323
   59SOL    HW2  924   3.238   3.819   4.522  0.9110  0.0727 -1.0103
   60SOL     OW  925   5.041   5.931   3.209 -0.5866  0.3270  0.5073
   60SOL    HW1  926   4.989   5.922   3.289  2.1894 -0.3457  2.4049
   60SOL    HW2  927   5.046   5.842   3.174  0.3791  0.1119  1.1418
   61SOL     OW  928   4.146   4.318   3.597 -0.3663 -0.0033 -0.0753
   61SOL    HW1  929   4.079   4.301   3.664 -0.7734  1.0529 -0.1875
   61SOL    HW2  930   4.211   4.249   3.610  0.1105  0.7562  2.1448
   62SOL     OW  931   0.171   4.598   1.010 -0.2215 -0.1138 -0.3891
   62SOL    HW1  932   0.266   4.606   1.011 -0.1969 -0.2671  1.1806
   62SOL    HW2  933   0.152   4.534   0.942  0.8781 -0.9407  0.0658
   63SOL     OW  934   2.799   3.148   3.538 -0.3310  0.0527  0.4625
   63SOL    HW1  935   2.879   3.106   3.570  1.2172  2.8466  0.6208
   63SOL    HW2  936   2.801   3.135   3.443  0.4650  0.2658  0.4373
   64SOL     OW  937   4.778   4.143   2.226 -0.2665  0.0192 -0.1201
   64SOL    HW1  938   4.758   4.236   2.237  0.4832  0.2247 -0.4258
   64SOL    HW2  939   4.800   4.113   2.314 -0.1280  0.2222 -0.0846
   65SOL     OW  940   4.920   3.403   0.022  0.0699  0.1511 -0.3924
   65SOL    HW1  941   4.881   3.382   0.107  0.7921 -0.1656 -0.1353
   65SOL    HW2  942   4.873   3.481  -0.007 -0.7281 -0.1907 -0.0713
   66SOL     OW  943   0.375   0.524   4.851 -0.0030 -0.0310 -0.6335
   66SOL    HW1  944   0.295   0.476   4.828 -0.4237  0.6306 -0.5588
   66SOL    HW2  945   0.411   0.475   4.925 -0.8203  0.1766 -0.0840
   67SOL     OW  946   1.088   4.984   0.693 -0.3214  0.1365 -0.0710
   67SOL    HW1  947   1.155   4.926   0.658 -0.1319  0.0047  0.5002
   67SOL    HW2  948   1.137   5.057   0.731 -0.5630  0.7579 -0.9199
   68SOL     OW  949   1.561   6.174   0.364  0.4707 -0.7290 -0.0884
   68SOL    HW1  950   1.507   6.100   0.393  1.9439 -1.0417  2.0934
   68SOL    HW2  951   1.647   6.136   0.349  0.9786  0.3602 -0.0135
   69SOL     OW  952   0.407   4.096   0.069  0.2290 -0.2431  0.0479
   69SOL    HW1  953   0.476   4.123   0.008  0.9685 -0.7615  0.6266
   69SOL    HW2  954   0.443   4.019   0.112 -1.0982 -1.0710 -0.2807
   70SOL     OW  955   5.767   3.488   5.984 -0.2657 -0.4476  0.1035
   70SOL    HW1  956   5.786   3.397   6.006 -2.4388 -1.0088 -0.1672
   70SOL    HW2  957   5.693   3.512   6.040 -1.6567  0.1815 -1.8741
   71SOL     OW  958   2.191   4.985   5.642 -0.1820 -0.1314 -0.1515
   71SOL    HW1  959   2.173   4.898   5.678 -1.2880 -0.4836 -1.5030
   71SOL    HW2  960   2.280   5.004   5.672 -0.4450 -1.0765  1.3987
   72SOL     OW  961   5.368   3.602   0.037 -0.1856  0.1313  0.5223
   72SOL    HW1  962   5.436   3.664   0.063  0.7124  0.1049 -1.4892
   72SOL    HW2  963   5.323   3.579   0.118  1.1863  1.3653  1.6921
   73SOL     OW  964   1.963   0.755   0.565  0.3215  0.6635  0.4054
   73SOL    HW1  965   2.038   0.699   0.586  2.1879  2.3141 -1.4687
   73SOL    HW2  966   1.892   0.719   0.618  1.5766 -2.9297 -0.0298
   74SOL     OW  967   4.461   3.246   4.390 -0.3763 -0.0942  0.6919
   74SOL    HW1  968   4.426   3.231   4.478  1.4783  0.0664  1.5136
   74SOL    HW2  969   4.551   3.274   4.405 -0.0913  0.1745 -1.2713
   75SOL     OW  970   4.996   0.844   2.565  0.5571  0.0456  0.9183
   75SOL    HW1  971   5.053   0.887   2.629  1.2501 -0.1053  0.4137
   75SOL    HW2  972   4.941   0.785   2.618 -0.0354  1.1346  1.5492
   76SOL     OW  973   2.816   1.984   4.336 -0.4193  0.2030 -0.0628
   76SOL    HW1  974   2.848   2.018   4.420 -2.4094 -1.3286  1.3835
   76SOL    HW2  975   2.883   1.921   4.310  0.1296  0.5516  0.4513
   77SOL     OW  976   4.631   5.376   4.648  0.2537  0.2652 -0.4328
   77SOL    HW1  977   4.678   5.416   4.722  1.1211 -0.6137 -0.4832
   77SOL    HW2  978   4.659   5.427   4.572 -1.6089  1.9890 -0.0521
   78SOL     OW  979   0.861   4.727   0.917  0.7242 -0.8601  0.0309
   78SOL    HW1  980   0.905   4.797   0.965  1.0220 -0.6551 -0.5320
   78SOL    HW2  981   0.780   4.767   0.884 -0.6399 -1.6233  2.2716
   79SOL     OW  982   5.876   3.099   1.235 -0.6449  0.2126 -0.1275
   79SOL    HW1  983   5.931   3.164   1.277 -1.2386  1.5133 -1.3015
   79SOL    HW2  984   5.930   3.063   1.164 -0.5360 -0.1388  0.1293
   80SOL     OW  985   3.115   3.769   3.903  0.2507 -0.7395  0.8592
   80SOL    HW1  986   3.092   3.680   3.879  0.0957 -0.1314 -1.5509
   80SOL    HW2  987   3.102   3.820   3.822 -0.6430  1.6567  2.4005
   81SOL     OW  988   4.080   2.416   1.038 -0.4334  0.2305 -0.2881
   81SOL    HW1  989   4.017   2.422   1.109 -0.6470  0.4335 -0.4961
   81SOL    HW2  990   4.161   2.385   1.080 -0.8289 -0.5905 -0.1140
   82SOL     OW  991   2.334   0.348   4.712 -0.0524 -0.3819 -0.4832
   82SOL    HW1  992   2.422   0.314   4.697 -0.6434 -1.6811 -1.2333
   82SOL    HW2  993   2.330   0.429   4.662  1.2127  0.5637  0.8654
   83SOL     OW  994   2.562   4.658   2.954  0.2905  0.6912 -0.4924
   83SOL    HW1  995   2.605   4.646   2.869  0.1101  0.0027 -0.4905
   83SOL    HW2  996   2.631   4.641   3.018 -0.2351 -1.7747 -0.4577
   84SOL     OW  997   5.312   0.234   0.968  0.3013 -0.2637 -0.3650
   84SOL    HW1  998   5.317   0.144   0.938  1.9650 -0.0781 -0.7688
   84SOL    HW2  999   5.219   0.256   0.966 -0.0724 -1.7941 -0.7428
   85SOL     OW 1000   5.774   5.691   5.072  0.0782 -0.1168 -0.4598
   85SOL    HW1 1001   5.758   5.776   5.031 -0.1042  0.9384  1.6668
   85SOL    HW2 1002   5.849   5.654   5.024 -0.2160  0.9440 -1.7936
   86SOL     OW 1003   0.890   2.890   1.141 -0.4717 -0.2588 -0.8093
   86SOL    HW1 1004   0.836   2.970   1.142  0.9457  0.7241 -0.1065
   86SOL    HW2 1005   0.839   2.827   1.191 -1.2308  0.4653 -0.6340
   87SOL     OW 1006   3.672   2.888   2.440 -0.5926 -0.5025  0.0449
   87SOL    HW1 1007   3.728   2.841   2.502 -1.4869  0.3821  1.5847
   87SOL    HW2 1008   3.656   2.972   2.481 -0.6102  0.4325 -1.7645
   88SOL     OW 1009   1.591   4.325   0.465 -0.2460 -0.4935  0.1022
   88SOL    HW1 1010   1.544   4.395   0.509 -1.5265 -2.0712  1.4008
   88SOL    HW2 1011   1.598   4.354   0.374 -2.4625  0.4691  0.1723
   89SOL     OW 1012   3.488   4.874   3.483 -0.1435 -0.1597  0.1627
   89SOL    HW1 1013   3.526   4.960   3.466  0.2973 -0.5288 -0.7383
   89SOL    HW2 1014   3.395   4.892   3.500  0.2139  0.6428  1.4330
   90SOL     OW 1015   0.662   5.538   5.565 -0.2466  0.2950  0.0083
   90SOL    HW1 1016   0.714   5.618   5.550  0.4469 -0.0094  0.6849
   90SOL    HW2 1017   0.622   5.552   5.650 -0.0206 -0.1313  0.1861
   91SOL     OW 1018   3.648   0.924   4.667 -0.2957 -0.2406  0.5848
   91SOL    HW1 1019   3.731   0.972   4.673  0.5028 -1.3099 -0.9553
   91SOL    HW2 1020   3.644   0.872   4.747  1.0866 -0.9754  0.2056
   92SOL     OW 1021   1.720   1.611   6.109 -0.0806 -0.3966  0.1657
   92SOL    HW1 1022   1.796   1.588   6.163  0.3048 -0.8524 -0.5490
   92SOL    HW2 1023   1.751   1.681   6.052  0.6331 -2.2499 -1.8913
   93SOL     OW 1024   3.817   2.359   0.781  0.3253 -0.3075  0.2766
   93SOL    HW1 1025   3.849   2.443   0.815 -1.2135  0.4471 -0.0502
   93SOL    HW2 1026   3.812   2.371   0.686 -0.4501 -0.5575  0.2774
   94SOL     OW 1027   2.868   3.336   5.573  0.4288  0.3345 -0.4124
   94SOL    HW1 1028   2.812   3.271   5.616  1.0259 -0.5513 -0.9327
   94SOL    HW2 1029   2.850   3.418   5.619 -1.7205  0.2104 -0.9498
   95SOL     OW 1030   4.272   3.463   0.636  0.3644 -0.0635  0.4603
   95SOL    HW1 1031   4.280   3.455   0.731  2.8248  1.7050  0.4931
   95SOL    HW2 1032   4.278   3.558   0.620 -3.4317  0.0557 -1.2864
   96SOL     OW 1033   3.859   0.136   0.092  0.0335 -0.2046  0.3926
   96SOL    HW1 1034   3.874   0.230   0.106 -1.6057  0.1701 -0.0709
   96SOL    HW2 1035   3.945   0.096   0.103  1.2669  1.6144 -1.6185
   97SOL     OW 1036   3.368   4.630   3.871  0.1193 -0.1557 -0.5088
   97SOL    HW1 1037   3.294   4.623   3.811 -1.1597  1.2003  0.8345
   97SOL    HW2 1038   3.357   4.557   3.932  0.1964 -0.2522 -0.6084
   98SOL     OW 1039   6.101   5.044   2.931 -0.1833 -0.4259  0.8310
   98SOL    HW1 1040   6.101   4.987   2.853 -0.4175  1.0503 -0.2961
   98SOL    HW2 1041   6.025   5.015   2.981 -0.3178 -1.0847  0.2635
   99SOL     OW 1042   0.360   5.802   1.485  0.2958  0.3870 -0.1908
   99SOL    HW1 1043   0.404   5.732   1.534  0.0988 -0.5765 -1.3303
   99SOL    HW2 1044   0.297   5.756   1.430 -1.2651  1.6447  0.4821
  100SOL     OW 1045   0.210   4.662   6.271  0.1467  0.0382 -0.0318
  100SOL    HW1 1046   0.205   4.732   6.206 -0.0081  0.1477  0.0939
  100SOL    HW2 1047   0.295   4.622   6.258  0.5774  0.7822  0.4288
  101SOL     OW 1048   5.030   6.139   3.605  0.0084  0.3702 -0.5642
  101SOL    HW1 1049   4.986   6.222   3.624  1.9978  1.2098  0.6933
  101SOL    HW2 1050   5.105   6.138   3.664  0.3055 -2.1327 -0.8892
  102SOL     OW 1051   3.784   5.791   5.808  0.1926  0.0448  0.1563
  102SOL    HW1 1052   3.827   5.836   5.735  1.2534  1.7722  1.7394
  102SOL    HW2 1053   3.856   5.749   5.855  0.2107  2.3477  2.4269
  103SOL     OW 1054   4.800   5.526   0.588  0.0990  0.0433 -0.3641
  103SOL    HW1 1055   4.830   5.453   0.533 -2.6997 -0.1630 -1.8188
  103SOL    HW2 1056   4.747   5.579   0.529 -2.2644  0.3775  1.9070
  104SOL     OW 1057   5.269   3.962   5.337  0.0330 -0.0993  0.0254
  104SOL    HW1 1058   5.281   4.008   5.421  0.4976  1.4702 -0.8442
  104SOL    HW2 1059   5.337   3.894   5.337  1.1101  0.9271  0.2768
  105SOL     OW 1060   1.872   3.215   1.085 -0.2203 -0.1327 -0.5069
  105SOL    HW1 1061   1.932   3.286   1.065 -0.2157  0.5671  1.7608
  105SOL    HW2 1062   1.857   3.221   1.179 -1.1570 -2.4141 -0.4313
  106SOL     OW 1063   5.223   4.005   2.389 -0.1784 -0.2522 -0.2245
  106SOL    HW1 1064   5.234   3.966   2.476  0.9075 -0.0056 -0.2369
  106SOL    HW2 1065   5.216   4.099   2.406 -0.7853 -0.2727 -0.3462
  107SOL     OW 1066   0.073   1.485   2.642 -0.2295  0.0463  0.3174
  107SOL    HW1 1067   0.101   1.423   2.574 -2.4866  1.2280 -1.8599
  107SOL    HW2 1068   0.105   1.447   2.724  0.7267 -2.6096 -1.1619
  108SOL     OW 1069   0.175   3.668   1.869 -0.0875  0.1225  0.8134
  108SOL    HW1 1070   0.187   3.618   1.949 -1.9920 -0.7573  0.5957
  108SOL    HW2 1071   0.080   3.672   1.857  0.1019  1.6295 -0.5390
  109SOL     OW 1072   5.577   5.542   4.862 -0.3526  0.4973  0.2026
  109SOL    HW1 1073   5.613   5.475   4.920 -2.2316 -0.4619  0.3344
  109SOL    HW2 1074   5.563   5.618   4.918  0.9545  0.7145  0.2492
  110SOL     OW 1075   4.523   1.869   6.273  0.1470 -0.1132 -0.6282
  110SOL    HW1 1076   4.592   1.868   6.340 -0.9801 -0.7311  0.5858
  110SOL    HW2 1077   4.492   1.960   6.272 -1.4515 -0.5429  1.5226
  111SOL     OW 1078   2.368   1.913   5.526  0.0947  0.2378  0.3966
  111SOL    HW1 1079   2.442   1.908   5.465 -0.0243 -1.2055  0.3379
  111SOL    HW2 1080   2.318   1.833   5.509 -2.0350  1.6532 -0.2425
  112SOL     OW 1081   4.683   2.064   4.646  0.1331  0.7180  0.1277
  112SOL    HW1 1082   4.711   2.146   4.604 -1.5648  0.5796 -1.3547
  112SOL    HW2 1083   4.639   2.015   4.577  2.7020 -2.3566  0.4306
  113SOL     OW 1084   4.932   3.929   3.357 -0.1137 -0.5749 -0.0659
  113SOL    HW1 1085   4.839   3.908   3.363 -0.4257  0.6246 -0.4362
  113SOL    HW2 1086   4.965   3.921   3.446 -0.3846 -1.7538 -0.0524
  114SOL     OW 1087   2.256   0.968   1.961 -0.4833  0.3493 -0.1394
  114SOL    HW1 1088   2.292   1.052   1.989  0.6754 -0.3454  0.5457
  114SOL    HW2 1089   2.230   0.925   2.043 -0.6043 -0.1592 -0.4423
  115SOL     OW 1090   4.449   1.369   4.655  0.6334  0.3299 -0.4404
  115SOL    HW1 1091   4.448   1.332   4.567  3.0146  2.6697 -1.5816
  115SOL    HW2 1092   4.356   1.374   4.680  0.0108 -2.7408 -1.6464
  116SOL     OW 1093   2.611   6.181   0.001 -0.2956 -0.2859  0.1572
  116SOL    HW1 1094   2.570   6.245   0.058 -0.0580 -0.1371  0.1609
  116SOL    HW2 1095   2.569   6.098   0.025 -0.5833 -0.1381  0.1696
  117SOL     OW 1096   4.870   5.014   2.854  0.3633 -0.0115  0.2097
  117SOL    HW1 1097   4.896   5.033   2.763 -1.4290  0.5714 -0.2281
  117SOL    HW2 1098   4.946   5.039   2.906  1.3488 -0.1196 -1.1036
  118SOL     OW 1099   5.448   4.319   5.802 -0.2936  0.2889  0.2313
  118SOL    HW1 1100   5.447   4.230   5.767 -2.0478  0.0169  0.8436
  118SOL    HW2 1101   5.431   4.375   5.727  2.3080  0.3080 -0.4515
  119SOL     OW 1102   2.628   4.790   2.050  0.1370  0.0882 -0.1004
  119SOL    HW1 1103   2.656   4.872   2.090  2.1261 -0.5273 -0.1282
  119SOL    HW2 1104   2.707   4.737   2.045 -0.6078 -0.9579 -2.2103
  120SOL     OW 1105   2.873   1.211   0.130  0.2433 -0.6093 -0.0504
  120SOL    HW1 1106   2.942   1.261   0.173  1.2464 -1.1752 -0.9617
  120SOL    HW2 1107   2.800   1.273   0.121  0.4275 -0.1574  1.3823
  121SOL     OW 1108   4.091   0.030   3.801 -0.3689 -0.8543 -0.0323
  121SOL    HW1 1109   4.139  -0.040   3.844  0.5475 -1.1735 -1.5083
  121SOL    HW2 1110   4.146   0.055   3.727 -0.8470  1.1870  0.2388
  122SOL     OW 1111   4.923   1.667   6.139  0.3142  0.9447 -0.0628
  122SOL    HW1 1112   4.983   1.592   6.133 -1.9164 -1.0851  1.2882
  122SOL    HW2 1113   4.974   1.741   6.105  3.1121 -0.8706 -0.1512
  123SOL     OW 1114   0.520   2.669   1.481 -0.0056 -0.3675 -0.3172
  123SOL    HW1 1115   0.558   2.724   1.550 -1.9680  0.0429  0.5019
  123SOL    HW2 1116   0.527   2.580   1.515  1.0890 -0.4243 -0.6346
  124SOL     OW 1117   3.227   3.923   1.595  0.2838 -0.2210  0.0720
  124SOL    HW1 1118   3.305   3.891   1.550 -0.0263  1.2513 -1.5962
  124SOL    HW2 1119   3.242   4.017   1.606 -0.9886 -0.0246  0.2508
  125SOL     OW 1120   1.083   5.585   1.588 -0.1225 -0.1398 -0.1143
  125SOL    HW1 1121   1.120   5.627   1.510  0.9232  0.1504  0.5053
  125SOL    HW2 1122   1.160   5.548   1.633 -0.9196 -2.1004 -0.2569
  126SOL     OW 1123   4.119   5.726   0.672  0.6621  0.1381 -0.4214
  126SOL    HW1 1124   4.116   5.726   0.768 -0.7277 -1.5762 -0.4197
  126SOL    HW2 1125   4.212   5.741   0.651  0.8665  1.2564  1.1610
  127SOL     OW 1126   3.145   3.788   0.461  0.1242  0.5353  0.2001
  127SOL    HW1 1127   3.146   3.879   0.432 -0.4188  0.6051  0.3850
  127SOL    HW2 1128   3.094   3.790   0.542 -2.3313 -0.3413 -1.2419
  128SOL     OW 1129   4.789   1.842   0.866  0.5153  0.2843 -0.1418
  128SOL    HW1 1130   4.736   1.851   0.786 -0.0876 -0.9968  0.0847
  128SOL    HW2 1131   4.864   1.898   0.851  0.3224  0.2115 -1.5509
  129SOL     OW 1132   0.286   5.557   4.644  0.2407 -0.3245 -0.1517
  129SOL    HW1 1133   0.230   5.634   4.648  1.2329  0.5968 -2.4523
  129SOL    HW2 1134   0.373   5.592   4.624  0.7313 -2.0288 -1.2023
  130SOL     OW 1135   1.193   5.999   0.204  0.2547  0.3764  0.3509
  130SOL    HW1 1136   1.109   6.045   0.208  1.4727  2.6988  0.5708
  130SOL    HW2 1137   1.169   5.906   0.199 -2.4204  1.0495 -2.7949
  131SOL     OW 1138   2.938   5.980   6.259 -0.0377 -0.1648  0.2358
  131SOL    HW1 1139   2.946   5.888   6.235 -0.9639 -0.3799  0.6742
  131SOL    HW2 1140   2.876   6.017   6.196 -0.0167  0.0493  0.3372
  132SOL     OW 1141   0.967   0.437   0.053  0.1504  0.2633 -0.9101
  132SOL    HW1 1142   0.960   0.342   0.063 -0.3535  0.3837 -0.0003
  132SOL    HW2 1143   1.044   0.450  -0.002  0.1570 -0.6749 -1.1325
  133SOL     OW 1144   2.741   2.000   0.989 -0.1628 -0.4304  0.3221
  133SOL    HW1 1145   2.729   1.984   1.083 -2.3270 -1.8956 -0.1325
  133SOL    HW2 1146   2.765   1.915   0.953 -0.0455 -0.0278 -0.5769
  134SOL     OW 1147   1.026   4.878   0.100 -0.4880 -0.7221  0.4387
  134SOL    HW1 1148   1.002   4.822   0.026 -1.4530  0.0207  0.1724
  134SOL    HW2 1149   0.971   4.956   0.090 -0.9231 -0.7707  2.1390
  135SOL     OW 1150   4.136   2.754   1.984 -0.5042  0.3622  0.2435
  135SOL    HW1 1151   4.229   2.765   2.001 -0.2482 -0.3242 -0.6652
  135SOL    HW2 1152   4.093   2.782   2.065  0.4068  2.0336  0.1990
  136SOL     OW 1153   6.295   3.260   1.971  0.4608 -0.2183 -0.5445
  136SOL    HW1 1154   6.345   3.276   1.890  0.9623 -0.6090 -0.3181
  136SOL    HW2 1155   6.264   3.347   1.997  2.7359  0.3799  0.3966
  137SOL     OW 1156   1.380   2.649   3.482  0.0687  0.7759 -0.0396
  137SOL    HW1 1157   1.377   2.661   3.577  0.0761 -0.6221  0.1708
  137SOL    HW2 1158   1.462   2.602   3.466  0.4451  1.6690 -0.8383
  138SOL     OW 1159   2.876   4.396   0.922  0.3395 -0.5369  0.7291
  138SOL    HW1 1160   2.938   4.433   0.858  0.1403  0.8136  1.2761
  138SOL    HW2 1161   2.924   4.396   1.004  0.4972 -2.0114  0.6623
  139SOL     OW 1162   3.291   3.795   0.880 -0.6485 -0.2409  0.6767
  139SOL    HW1 1163   3.386   3.806   0.869 -0.6772  0.2108  0.8730
  139SOL    HW2 1164   3.254   3.879   0.854 -1.0076 -0.4476  0.5072
  140SOL     OW 1165   5.851   3.312   0.883  0.0706 -0.3153 -0.5796
  140SOL    HW1 1166   5.781   3.287   0.944  0.0009  1.6813  0.2487
  140SOL    HW2 1167   5.925   3.333   0.940  0.0422  1.4699 -1.1441
  141SOL     OW 1168   1.531   1.054   6.101  0.2483 -0.1325  0.6726
  141SOL    HW1 1169   1.585   1.078   6.176 -0.3065 -0.3263  1.1431
  141SOL    HW2 1170   1.550   0.961   6.087 -0.3073 -0.3215  1.1371
  142SOL     OW 1171   5.306   6.171   4.862 -0.4421 -0.1024 -0.0774
  142SOL    HW1 1172   5.319   6.151   4.769 -1.0551 -0.1309 -0.1609
  142SOL    HW2 1173   5.220   6.135   4.883  0.6701 -2.2458  1.1292
  143SOL     OW 1174   1.558   6.051   1.701 -0.0568 -0.6704 -0.1213
  143SOL    HW1 1175   1.521   6.052   1.789  1.4511 -3.2164  0.6687
  143SOL    HW2 1176   1.519   5.974   1.660 -1.7135  1.1658 -2.2354
  144SOL     OW 1177   2.250   4.603   3.954 -0.2362 -0.1536  0.4397
  144SOL    HW1 1178   2.237   4.610   4.048 -2.4558 -1.0846  0.2566
  144SOL    HW2 1179   2.298   4.520   3.943 -1.0279 -0.6619  0.7041
  145SOL     OW 1180   5.070   3.618   2.053  0.4717 -0.2099 -0.1866
  145SOL    HW1 1181   5.075   3.683   1.984  1.4454 -1.3822 -1.2566
  145SOL    HW2 1182   5.017   3.659   2.121  0.5944  1.4660 -1.0660
  146SOL     OW 1183   3.630   0.646   3.392 -0.1279  0.0927 -0.0120
  146SOL    HW1 1184   3.656   0.580   3.327 -0.9322  0.5242 -0.7870
  146SOL    HW2 1185   3.538   0.626   3.410  0.1412 -0.1433  1.1569
  147SOL     OW 1186   5.968   2.435   6.132 -0.1003 -0.0374  0.4193
  147SOL    HW1 1187   5.879   2.437   6.097 -0.0025  0.8978  0.1874
  147SOL    HW2 1188   5.998   2.526   6.126  0.4689 -0.1336  1.5213
  148SOL     OW 1189   1.156   4.436   0.157 -0.7720  0.7590 -0.1665
  148SOL    HW1 1190   1.115   4.513   0.196 -0.0651  0.6703  0.7618
  148SOL    HW2 1191   1.084   4.374   0.146 -0.8099  0.3082  2.1689
  149SOL     OW 1192   3.225   3.787   6.300 -0.2598 -0.2994 -0.1356
  149SOL    HW1 1193   3.267   3.855   6.352  0.5652 -0.6031 -0.4044
  149SOL    HW2 1194   3.195   3.831   6.221 -3.3582  0.6549  1.3705
  150SOL     OW 1195   1.564   3.938   3.565  0.3694 -0.3786 -0.0844
  150SOL    HW1 1196   1.501   3.958   3.497  0.5930  0.0991 -0.1593
  150SOL    HW2 1197   1.580   3.844   3.557 -0.4548 -0.5402  0.0470
  151SOL     OW 1198   0.855   5.058   5.115 -0.2597  0.4181  0.4059
  151SOL    HW1 1199   0.905   4.978   5.097  0.7533  0.7719  1.5523
  151SOL    HW2 1200   0.889   5.122   5.053 -0.8647  0.0689 -0.3110
  152SOL     OW 1201   1.202   0.226   1.073 -0.0823  0.1635 -0.1412
  152SOL    HW1 1202   1.287   0.225   1.118  0.4835 -1.7386 -1.1540
  152SOL    HW2 1203   1.138   0.207   1.142  0.4126  0.6236  0.4521
  153SOL     OW 1204   4.555   0.933   5.980 -0.1002 -0.7113 -0.0756
  153SOL    HW1 1205   4.485   0.920   5.916 -0.5415 -0.8210  0.4155
  153SOL    HW2 1206   4.509   0.953   6.062  0.4862  0.7008 -0.0715
  154SOL     OW 1207   2.518   5.325   2.636  0.1316  0.2593  0.2071
  154SOL    HW1 1208   2.470   5.385   2.579 -1.2081 -0.5537  0.4479
  154SOL    HW2 1209   2.597   5.373   2.660 -1.1074  2.1201  0.7761
  155SOL     OW 1210   2.249   4.331   5.335  0.2579  0.2896 -0.2357
  155SOL    HW1 1211   2.265   4.363   5.424  0.8304 -1.4972  0.3438
  155SOL    HW2 1212   2.245   4.410   5.282  2.5211  1.2846  0.9551
  156SOL     OW 1213   2.731   0.506   2.694  0.1575 -0.1844  0.0658
  156SOL    HW1 1214   2.752   0.535   2.605 -3.1227 -0.2541 -0.8625
  156SOL    HW2 1215   2.743   0.411   2.692 -2.2897 -0.5589 -1.2028
  157SOL     OW 1216   5.490   3.723   2.027 -0.2521  0.1677  0.8201
  157SOL    HW1 1217   5.411   3.684   1.991  0.7810 -0.4067 -0.9925
  157SOL    HW2 1218   5.460   3.777   2.100 -2.1026 -1.2896  1.2007
  158SOL     OW 1219   2.397   2.430   6.183  0.5648 -0.2443 -0.7219
  158SOL    HW1 1220   2.315   2.472   6.211  2.5889  2.3147  2.1734
  158SOL    HW2 1221   2.407   2.356   6.243  1.5704  1.1224  0.9161
  159SOL     OW 1222   3.794   3.790   0.732 -0.0368 -0.0723 -0.9277
  159SOL    HW1 1223   3.856   3.739   0.681  0.2480  0.3777 -1.0417
  159SOL    HW2 1224   3.843   3.868   0.758 -0.4594  0.1383 -0.7481
  160SOL     OW 1225   5.282   2.569   6.289 -0.0575 -0.0898 -0.6505
  160SOL    HW1 1226   5.285   2.484   6.246  0.8651 -0.9252  0.9837
  160SOL    HW2 1227   5.286   2.549   6.382 -0.9078  1.7044 -0.1854
  161SOL     OW 1228   0.576   4.586   2.282  0.2999  0.5063 -0.4048
  161SOL    HW1 1229   0.545   4.500   2.310 -1.4113  1.2367  0.0637
  161SOL    HW2 1230   0.668   4.588   2.307  0.1058 -0.8119  0.4999
  162SOL     OW 1231   5.138   3.752   5.984  0.1497  0.2083  0.2889
  162SOL    HW1 1232   5.213   3.697   5.960  0.8068  0.9094  0.6909
  162SOL    HW2 1233   5.128   3.813   5.911  0.3789  0.5256  0.5190
  163SOL     OW 1234   2.009   6.194   0.871  0.2163 -0.4774  0.1477
  163SOL    HW1 1235   1.926   6.228   0.903  0.8111 -0.5796  1.9327
  163SOL    HW2 1236   1.993   6.174   0.779 -1.8679 -0.9627  0.5672
  164SOL     OW 1237   4.552   5.785   5.109  0.0273  0.5411 -0.1817
  164SOL    HW1 1238   4.633   5.758   5.066 -0.5191 -1.7623  0.1134
  164SOL    HW2 1239   4.581   5.831   5.188  1.0095  1.1380 -0.8586
  165SOL     OW 1240   1.915   4.413   6.131 -0.0066 -0.0135  0.1315
  165SOL    HW1 1241   1.939   4.498   6.095  0.1046  0.2055  0.7085
  165SOL    HW2 1242   1.995   4.360   6.122  0.3285  0.3403  0.9361
  166SOL     OW 1243   2.560   5.047   2.959  0.6368  0.4483 -0.4683
  166SOL    HW1 1244   2.634   5.037   2.899  0.1606 -0.8200 -0.8680
  166SOL    HW2 1245   2.587   5.002   3.038 -0.2479 -1.3373 -1.1322
  167SOL     OW 1246   4.832   2.022   0.035  0.4525 -0.0242  0.5689
  167SOL    HW1 1247   4.822   2.061   0.122 -1.9735  0.9415 -0.0657
  167SOL    HW2 1248   4.893   1.949   0.048  1.9002  1.4313  2.6014
  168SOL     OW 1249   3.353   3.049   4.876  0.2711 -0.6858  0.1774
  168SOL    HW1 1250   3.340   3.118   4.940  0.3508 -1.0973  0.6435
  168SOL    HW2 1251   3.302   3.077   4.799 -0.0007 -0.2992  0.4953
  169SOL     OW 1252   1.361   4.295   5.025  0.1457 -0.8322  0.7760
  169SOL    HW1 1253   1.374   4.268   5.116  0.0303  0.2523  1.1303
  169SOL    HW2 1254   1.403   4.381   5.020  3.3836 -2.3369 -1.1497
  170SOL     OW 1255   1.001   5.231   1.297 -0.0447  0.5791 -0.3441
  170SOL    HW1 1256   1.031   5.298   1.236  1.6396  1.3935  1.2863
  170SOL    HW2 1257   0.967   5.280   1.371  3.4744 -0.1785  1.9931
  171SOL     OW 1258   1.066   0.360   3.374 -0.3369 -0.3680 -0.1479
  171SOL    HW1 1259   1.113   0.443   3.387 -0.6997  0.2223 -2.2595
  171SOL    HW2 1260   1.081   0.339   3.282 -2.0199 -1.5607 -0.1797
  172SOL     OW 1261   1.545   5.646   5.110 -0.3172  0.0369 -0.7743
  172SOL    HW1 1262   1.478   5.699   5.154  0.3143  0.0405  0.2180
  172SOL    HW2 1263   1.614   5.709   5.088  1.6747 -0.6471  2.8040
  173SOL     OW 1264   3.627   5.948   2.196  0.1038  0.3516  0.0321
  173SOL    HW1 1265   3.576   5.979   2.121  0.5017  0.9539 -0.0001
  173SOL    HW2 1266   3.597   6.001   2.270 -0.6263 -0.5682  0.4103
  174SOL     OW 1267   3.159   1.902   4.018  0.1123 -0.4583 -0.1419
  174SOL    HW1 1268   3.225   1.945   3.963  0.6082 -1.2752 -0.1995
  174SOL    HW2 1269   3.205   1.883   4.100 -0.1408 -0.7553 -0.0668
  175SOL     OW 1270   0.783   0.530   5.399 -0.0956 -0.3748  0.9378
  175SOL    HW1 1271   0.857   0.520   5.459 -0.2638 -0.4997  1.1264
  175SOL    HW2 1272   0.734   0.448   5.408  0.3520 -0.7743 -0.0191
  176SOL     OW 1273   1.984   6.193   2.539  0.5214  0.1257  0.0229
  176SOL    HW1 1274   1.998   6.103   2.570 -0.7033  0.3233  1.2324
  176SOL    HW2 1275   2.024   6.194   2.452  1.0325 -1.4335  0.1934
  177SOL     OW 1276   3.142   5.591   0.079 -0.4824  0.2419 -0.6144
  177SOL    HW1 1277   3.128   5.503   0.113 -1.4099  1.1653  1.5930
  177SOL    HW2 1278   3.208   5.629   0.137 -0.1234  1.0248 -1.5074
  178SOL     OW 1279   3.141   3.225   3.436  0.1297 -0.2837  0.3913
  178SOL    HW1 1280   3.157   3.239   3.529 -0.2362 -2.7396  0.9030
  178SOL    HW2 1281   3.056   3.266   3.419  0.5264  0.8066  0.9389
  179SOL     OW 1282   3.806   2.038   0.055 -0.5220  0.0786 -0.1954
  179SOL    HW1 1283   3.775   1.956   0.095 -0.1969  0.2878  0.5119
  179SOL    HW2 1284   3.898   2.021   0.034 -0.3563  0.3641  0.2707
  180SOL     OW 1285   1.185   1.868   4.862  0.1406 -0.0727  0.0730
  180SOL    HW1 1286   1.251   1.800   4.852  1.0801  0.8563 -0.2925
  180SOL    HW2 1287   1.107   1.823   4.894  1.0439 -1.1555  0.7923
  181SOL     OW 1288   3.057   0.363   2.118  0.5723 -0.5690  0.2721
  181SOL    HW1 1289   3.040   0.455   2.136  1.5554 -0.4410  0.5774
  181SOL    HW2 1290   3.108   0.332   2.193  2.9679 -0.5493 -1.2602
  182SOL     OW 1291   0.444   0.918   2.303 -0.1761  0.3782 -0.6014
  182SOL    HW1 1292   0.389   0.842   2.324 -0.1318 -0.1667 -2.3111
  182SOL    HW2 1293   0.433   0.976   2.378 -2.1270 -0.2546 -0.3286
  183SOL     OW 1294   4.132   4.438   1.981  0.0830 -0.0172  0.4636
  183SOL    HW1 1295   4.202   4.401   1.928 -0.9521 -0.5913 -0.5608
  183SOL    HW2 1296   4.125   4.380   2.056 -1.1256 -1.6526 -0.8350
  184SOL     OW 1297   0.045   0.011   1.781  0.3158 -0.7391  0.5456
  184SOL    HW1 1298  -0.008   0.056   1.714  0.1871  0.9352  1.7046
  184SOL    HW2 1299   0.024  -0.081   1.770  0.1067 -0.4836 -1.5460
  185SOL     OW 1300   3.686   1.804   5.951 -0.3648  0.5010  0.0988
  185SOL    HW1 1301   3.639   1.749   5.889 -1.2570 -0.8703  1.8980
  185SOL    HW2 1302   3.732   1.742   6.009  0.0004  1.6909  1.1447
  186SOL     OW 1303   5.132   3.342   4.815 -0.1877 -0.6050 -0.2944
  186SOL    HW1 1304   5.097   3.405   4.878 -2.4378 -0.8181 -1.2154
  186SOL    HW2 1305   5.177   3.276   4.868  0.9643  0.9753  0.7818
  187SOL     OW 1306   2.334   0.839   3.003 -0.4171  0.2243 -0.3317
  187SOL    HW1 1307   2.252   0.839   2.953 -0.9574  2.7986  0.3633
  187SOL    HW2 1308   2.315   0.787   3.080 -0.3172 -1.8493 -1.6342
  188SOL     OW 1309   0.660   2.587   0.432 -0.2079  0.2818  0.0761
  188SOL    HW1 1310   0.639   2.614   0.521 -2.7676  1.8676 -0.8919
  188SOL    HW2 1311   0.687   2.668   0.388 -0.2156 -0.2315 -0.8987
  189SOL     OW 1312   3.897   1.125   3.818 -0.4361  0.4770  0.3412
  189SOL    HW1 1313   3.981   1.171   3.816 -0.1013 -0.0685  1.4014
  189SOL    HW2 1314   3.908   1.053   3.757 -0.4757  0.9667 -0.2566
  190SOL     OW 1315   1.717   2.739   6.139 -0.0387 -0.0151 -0.6278
  190SOL    HW1 1316   1.655   2.754   6.209  1.3418  0.7379  0.4835
  190SOL    HW2 1317   1.668   2.758   6.059 -1.9481 -1.8875 -0.0171
  191SOL     OW 1318   3.437   5.925   0.810 -0.1724 -0.0016  0.1736
  191SOL    HW1 1319   3.398   5.883   0.733  0.9394 -0.8753  0.0592
  191SOL    HW2 1320   3.364   5.940   0.869 -1.1065  1.0447 -1.2087
  192SOL     OW 1321   4.004   3.455   2.140 -0.0380 -0.1061  0.1893
  192SOL    HW1 1322   4.079   3.493   2.184  0.9953 -2.0623  0.2161
  192SOL    HW2 1323   3.994   3.507   2.060  0.8607  0.6501  0.5580
  193SOL     OW 1324   1.866   0.546   3.582 -0.1320  0.1810  0.5462
  193SOL    HW1 1325   1.776   0.534   3.551  0.0822  1.4162 -0.6501
  193SOL    HW2 1326   1.920   0.509   3.512  0.3152  0.2398  0.8554
  194SOL     OW 1327   5.778   5.816   1.232 -0.4654  0.4676  0.0852
  194SOL    HW1 1328   5.808   5.896   1.188 -0.9080  0.2173 -0.6824
  194SOL    HW2 1329   5.831   5.746   1.194  0.3471  0.4632  1.1967
  195SOL     OW 1330   5.380   5.832   0.270 -0.2557  0.0186 -0.4454
  195SOL    HW1 1331   5.329   5.772   0.324  0.2174 -0.3878 -0.4403
  195SOL    HW2 1332   5.340   5.918   0.285 -0.6207 -0.2146 -0.0585
  196SOL     OW 1333   5.937   5.036   2.116 -0.0288  0.8480 -0.3949
  196SOL    HW1 1334   6.032   5.029   2.110  0.0003  1.3811 -0.5937
  196SOL    HW2 1335   5.920   5.071   2.203 -0.0515  0.6581 -0.3216
  197SOL     OW 1336   6.146   1.940   4.029 -0.4802  0.4985 -0.1375
  197SOL    HW1 1337   6.147   1.904   3.941 -0.0906  1.2107 -0.4296
  197SOL    HW2 1338   6.125   1.865   4.085 -1.5559  0.2083 -0.8970
  198SOL     OW 1339   3.797   1.504   2.908  0.0169 -0.0685 -0.5153
  198SOL    HW1 1340   3.703   1.492   2.907 -0.1512  1.0201 -1.9838
  198SOL    HW2 1341   3.809   1.599   2.901  1.2171 -0.1039  0.7548
  199SOL     OW 1342   5.565   5.006   4.365  0.0588 -0.0185  0.4376
  199SOL    HW1 1343   5.541   4.958   4.444 -1.4275 -0.5800 -0.3139
  199SOL    HW2 1344   5.593   4.939   4.303 -0.1132  0.2776  0.0327
  200SOL     OW 1345   1.946   1.500   1.721  0.2306  0.3133 -0.1015
  200SOL    HW1 1346   1.886   1.445   1.771  0.9901  1.0702  1.7461
  200SOL    HW2 1347   2.032   1.484   1.760  1.4257 -1.1579 -3.0215
  201SOL     OW 1348   0.794   1.223   1.209 -0.6433  0.2973 -0.0584
  201SOL    HW1 1349   0.765   1.241   1.298 -1.9422 -0.9017 -0.1990
  201SOL    HW2 1350   0.791   1.308   1.165 -0.7790  0.7608  0.8258
  202SOL     OW 1351   2.795   4.380   3.631 -0.1047  0.5200 -0.6143
  202SOL    HW1 1352   2.764   4.295   3.601 -0.5914  0.1490  0.8377
  202SOL    HW2 1353   2.715   4.428   3.655  0.2561 -0.2342  2.6307
  203SOL     OW 1354   4.312   3.475   0.893 -0.1603 -0.1218  0.2236
  203SOL    HW1 1355   4.254   3.551   0.898  0.5066  0.3806  0.4710
  203SOL    HW2 1356   4.359   3.475   0.977 -1.2870 -1.7383  0.9012
  204SOL     OW 1357   2.926   4.806   3.249 -0.4006  0.1025 -0.4921
  204SOL    HW1 1358   2.960   4.895   3.252  1.3291 -0.5309  0.0927
  204SOL    HW2 1359   2.919   4.781   3.341 -0.3529 -0.5409 -0.6599
  205SOL     OW 1360   5.506   0.819   5.839 -0.1908  0.4002  0.8409
  205SOL    HW1 1361   5.518   0.911   5.814  0.0351  0.1509 -0.0063
  205SOL    HW2 1362   5.523   0.770   5.759 -0.9263 -0.3492  1.1248
  206SOL     OW 1363   4.870   3.679   1.372 -0.3177 -0.2705 -0.4100
  206SOL    HW1 1364   4.897   3.743   1.437  1.7073 -0.1460 -1.2960
  206SOL    HW2 1365   4.860   3.597   1.422 -0.4976  0.1857  0.3202
  207SOL     OW 1366   0.462   5.928   3.335  0.5299 -0.2620  0.3143
  207SOL    HW1 1367   0.496   6.013   3.308 -0.6451  0.1733  0.1473
  207SOL    HW2 1368   0.517   5.903   3.410  0.9152  0.6202  0.3354
  208SOL     OW 1369   4.326   2.077   2.153  0.0896 -0.0548 -0.8172
  208SOL    HW1 1370   4.281   1.999   2.184  0.1081  0.9538  2.0867
  208SOL    HW2 1371   4.263   2.121   2.096 -1.0617 -0.6868 -0.0601
  209SOL     OW 1372   1.394   2.039   6.282  0.1028  0.4476 -0.8362
  209SOL    HW1 1373   1.412   1.945   6.280  3.7300  1.0022 -0.7266
  209SOL    HW2 1374   1.387   2.064   6.189  0.1068  0.2175 -0.8990
  210SOL     OW 1375   4.613   2.722   0.516  0.2640  0.0281  1.1426
  210SOL    HW1 1376   4.537   2.769   0.481  0.7294 -1.2072 -1.8651
  210SOL    HW2 1377   4.582   2.632   0.527  1.4608 -0.7300 -1.1251
  211SOL     OW 1378   0.870   2.725   2.839 -0.0098 -0.0285  0.0383
  211SOL    HW1 1379   0.819   2.729   2.920 -0.9003  0.4485 -0.5327
  211SOL    HW2 1380   0.876   2.632   2.818 -1.6130 -0.0426 -0.4757
  212SOL     OW 1381   0.567   4.936   0.728 -0.3139 -0.1875 -0.5053
  212SOL    HW1 1382   0.585   4.940   0.822  1.0199 -0.6583 -0.7268
  212SOL    HW2 1383   0.644   4.974   0.687 -1.0002  0.2579 -1.4187
  213SOL     OW 1384   0.303   1.602   5.372 -0.2555  0.3682  0.1127
  213SOL    HW1 1385   0.381   1.620   5.425  0.5210 -1.1189 -0.4662
  213SOL    HW2 1386   0.235   1.580   5.435  0.0895  0.5830  0.5690
  214SOL     OW 1387   2.388   4.380   2.639  0.4191  0.3151 -0.1680
  214SOL    HW1 1388   2.374   4.285   2.630 -0.2241  0.3614  0.2429
  214SOL    HW2 1389   2.464   4.398   2.585  0.2314 -0.3591 -0.6792
  215SOL     OW 1390   4.938   2.652   1.333  0.2737  0.7252  0.3831
  215SOL    HW1 1391   5.007   2.663   1.268 -0.1557  1.6553  0.0594
  215SOL    HW2 1392   4.983   2.653   1.417  0.5376  3.1046  0.2833
  216SOL     OW 1393   4.910   1.408   2.737  0.2640 -0.4889 -0.5231
  216SOL    HW1 1394   4.975   1.407   2.808  1.2471 -2.4846 -1.3839
  216SOL    HW2 1395   4.921   1.494   2.697  0.4204  0.2712  1.0530
  217SOL     OW 1396   1.164   0.720   1.622  0.2327 -0.2556  0.5635
  217SOL    HW1 1397   1.210   0.793   1.663  0.8766 -0.8271  0.8919
  217SOL    HW2 1398   1.234   0.659   1.596 -0.3653 -1.6657  2.0743
  218SOL     OW 1399   0.887   0.073   4.617  0.1077  0.1359 -0.9091
  218SOL    HW1 1400   0.948   0.018   4.569  1.6064  0.3554  0.6770
  218SOL    HW2 1401   0.827   0.011   4.660  2.0591 -0.3929  1.2417
  219SOL     OW 1402   3.223   2.743   1.271 -0.0960 -0.0984  0.0488
  219SOL    HW1 1403   3.230   2.653   1.305  0.0106 -0.3889 -0.7236
  219SOL    HW2 1404   3.235   2.734   1.177  1.1523  0.8720  0.0758
  220SOL     OW 1405   5.584   5.251   2.333 -0.4596  0.9137  0.6171
  220SOL    HW1 1406   5.493   5.279   2.335 -0.3575  1.5747 -1.5930
  220SOL    HW2 1407   5.632   5.326   2.298  0.9175  0.4891  1.4852
  221SOL     OW 1408   6.069   4.539   4.928 -0.1331 -0.3117  0.2597
  221SOL    HW1 1409   6.135   4.606   4.947  0.2614 -0.9242  1.0814
  221SOL    HW2 1410   5.993   4.589   4.898  1.3727  0.3326 -3.0300
  222SOL     OW 1411   2.872   5.810   5.007 -0.6906  0.5181 -0.2424
  222SOL    HW1 1412   2.960   5.773   5.018 -1.4439 -1.2747  0.1080
  222SOL    HW2 1413   2.837   5.767   4.929 -2.4392 -1.3889  1.4468
  223SOL     OW 1414   6.274   6.081   0.664  0.2415  0.0309  0.2211
  223SOL    HW1 1415   6.321   6.102   0.745 -1.7348  4.3248  0.5252
  223SOL    HW2 1416   6.333   6.107   0.594  0.2655  0.5539  0.4347
  224SOL     OW 1417   3.311   5.469   4.572  0.5143 -0.1615  0.3239
  224SOL    HW1 1418   3.354   5.434   4.650  1.3416  1.5171  0.6776
  224SOL    HW2 1419   3.331   5.563   4.574 -2.2576  0.5122 -0.1167
  225SOL     OW 1420   3.674   5.418   2.634 -0.0257  0.2972 -0.2921
  225SOL    HW1 1421   3.660   5.510   2.614 -1.6957 -0.1517 -1.4725
  225SOL    HW2 1422   3.758   5.397   2.593 -1.3000  0.5002 -3.2603
  226SOL     OW 1423   3.865   1.015   5.135  0.0956  0.1238 -0.4941
  226SOL    HW1 1424   3.936   1.020   5.199  1.4111 -0.4631 -1.8418
  226SOL    HW2 1425   3.804   0.950   5.171  1.7731 -1.6285 -0.6968
  227SOL     OW 1426   1.969   5.881   3.684 -0.0528 -0.0644 -0.4530
  227SOL    HW1 1427   1.934   5.860   3.770 -2.0307 -0.4793 -1.3066
  227SOL    HW2 1428   1.968   5.798   3.637 -0.9461  0.5083 -1.5009
  228SOL     OW 1429   3.422   3.912   1.177 -0.1555 -0.0600  0.0102
  228SOL    HW1 1430   3.331   3.914   1.206  0.2369  0.9390  1.2624
  228SOL    HW2 1431   3.445   3.819   1.174 -1.2319 -0.3192 -0.4185
  229SOL     OW 1432   4.363   4.558   1.798  0.7397  0.1214  0.0332
  229SOL    HW1 1433   4.419   4.487   1.768  0.2721 -0.1701 -0.1539
  229SOL    HW2 1434   4.412   4.599   1.870  1.3914  0.1550 -0.4208
  230SOL     OW 1435   4.402   5.562   1.091 -0.0067  0.3163  0.0779
  230SOL    HW1 1436   4.476   5.511   1.059 -0.8365 -1.5661  0.9834
  230SOL    HW2 1437   4.346   5.574   1.014  0.4477  0.3185 -0.2581
  231SOL     OW 1438   6.236   5.391   2.906 -0.9279  0.0296 -0.0102
  231SOL    HW1 1439   6.215   5.434   2.989 -1.8199 -1.1080  0.3853
  231SOL    HW2 1440   6.152   5.387   2.859 -0.5846 -0.0183 -0.6271
  232SOL     OW 1441   5.613   2.220   3.470 -0.4716  0.4010 -0.6819
  232SOL    HW1 1442   5.665   2.291   3.506 -1.1268 -0.8417  3.1880
  232SOL    HW2 1443   5.676   2.150   3.452 -0.3593  0.0103  1.0270
  233SOL     OW 1444   3.911   1.297   5.466  0.0753  0.5853  0.0631
  233SOL    HW1 1445   3.828   1.328   5.428 -0.6626  0.2573  1.3356
  233SOL    HW2 1446   3.891   1.286   5.559  1.5269  0.3626  0.3599
  234SOL     OW 1447   0.014   4.469   1.902  0.1380 -0.1250  0.1165
  234SOL    HW1 1448   0.051   4.489   1.989 -0.3110 -1.6201  0.6780
  234SOL    HW2 1449  -0.070   4.429   1.921  0.4273 -1.3064 -0.9832
  235SOL     OW 1450   0.189   5.110   5.050  0.4592 -0.6547 -0.2604
  235SOL    HW1 1451   0.284   5.104   5.060  0.5775 -1.7437 -1.6091
  235SOL    HW2 1452   0.155   5.032   5.094  0.1230  0.0394  0.7375
  236SOL     OW 1453   4.806   3.658   3.035  0.1663 -0.0284 -0.3738
  236SOL    HW1 1454   4.832   3.609   3.114  0.2668 -0.5541 -0.7305
  236SOL    HW2 1455   4.724   3.700   3.059 -0.4547 -1.1835 -0.3855
  237SOL     OW 1456   2.023   2.225   5.972 -0.6425 -0.5828 -0.2534
  237SOL    HW1 1457   1.931   2.207   5.951 -1.1470  1.9178 -0.5946
  237SOL    HW2 1458   2.019   2.284   6.048  0.5318  1.1040 -1.4202
  238SOL     OW 1459   0.695   4.792   4.856  0.0888  0.0626  0.1077
  238SOL    HW1 1460   0.712   4.717   4.913  0.1849  0.4006  0.5305
  238SOL    HW2 1461   0.631   4.845   4.905  2.0398  1.6501  1.0800
  239SOL     OW 1462   4.271   5.429   5.975  0.0569  0.1162 -0.0209
  239SOL    HW1 1463   4.298   5.399   5.888  0.6083  1.5481 -0.3640
  239SOL    HW2 1464   4.178   5.406   5.980 -0.5181  1.7969 -1.8155
  240SOL     OW 1465   0.671   4.057   4.355  0.3983  0.2693 -0.2614
  240SOL    HW1 1466   0.667   4.119   4.282  0.2325 -0.1283 -0.5913
  240SOL    HW2 1467   0.723   3.984   4.322 -0.4491 -0.3351 -0.3075
  241SOL     OW 1468   0.035   0.222   0.245 -0.6125 -0.3477  0.1510
  241SOL    HW1 1469   0.047   0.136   0.203  0.3222  0.1655 -0.6859
  241SOL    HW2 1470   0.090   0.219   0.323 -1.5224 -0.9317  0.7774
  242SOL     OW 1471   1.815   2.453   4.039  0.1900 -0.3784  0.0868
  242SOL    HW1 1472   1.893   2.488   4.081  0.2179  1.7658 -1.5725
  242SOL    HW2 1473   1.843   2.430   3.951 -0.9881  0.2709 -0.4785
  243SOL     OW 1474   3.386   5.097   2.931 -0.0720  0.3648 -0.0460
  243SOL    HW1 1475   3.295   5.086   2.903  0.4803 -2.8938 -1.0422
  243SOL    HW2 1476   3.436   5.043   2.870  2.5767  1.9625  0.5449
  244SOL     OW 1477   2.719   4.120   1.273 -0.6748  0.3198  0.0766
  244SOL    HW1 1478   2.694   4.095   1.184 -0.6670  0.6844 -0.0327
  244SOL    HW2 1479   2.772   4.047   1.305  0.0011  0.5383 -0.5139
  245SOL     OW 1480   4.383   2.678   6.262 -0.1078 -0.1302  0.4743
  245SOL    HW1 1481   4.288   2.686   6.265 -0.4457 -2.9987  0.9808
  245SOL    HW2 1482   4.412   2.706   6.349 -0.7800 -1.3962  1.1391
  246SOL     OW 1483   3.427   0.656   2.283  0.1727 -0.0835  0.0245
  246SOL    HW1 1484   3.363   0.611   2.339  0.6406 -2.5440 -1.2562
  246SOL    HW2 1485   3.511   0.617   2.306  0.7428  0.7179 -0.6233
  247SOL     OW 1486   0.900   4.691   5.680 -0.3779 -0.2753  0.1063
  247SOL    HW1 1487   0.912   4.767   5.737 -1.2505  0.3235 -0.4822
  247SOL    HW2 1488   0.828   4.716   5.622  0.2583 -1.0036 -1.0297
  248SOL     OW 1489   2.855   5.548   1.057  0.5764  0.1961  0.0889
  248SOL    HW1 1490   2.787   5.606   1.022 -0.5049 -0.4952  0.9659
  248SOL    HW2 1491   2.807   5.484   1.109  1.5693 -2.2773 -1.8534
  249SOL     OW 1492   1.534   5.986   3.028  0.3652 -0.3311 -0.0107
  249SOL    HW1 1493   1.576   5.989   3.114 -2.2508 -0.0120  1.3582
  249SOL    HW2 1494   1.455   5.935   3.042 -0.4289  0.2225 -2.1188
  250SOL     OW 1495   0.706   0.466   4.083 -0.3453  0.4680 -0.2875
  250SOL    HW1 1496   0.796   0.454   4.114 -0.0610  0.2587 -1.1655
  250SOL    HW2 1497   0.702   0.418   4.000 -0.9649  1.3340 -0.7824
  251SOL     OW 1498   4.921   3.338   5.365 -0.0314 -0.0886  0.2166
  251SOL    HW1 1499   4.853   3.273   5.347 -0.2429  0.1697  0.0836
  251SOL    HW2 1500   4.874   3.421   5.374  0.2789  0.1151 -0.0112
  252SOL     OW 1501   1.968   5.144   0.721  0.2125 -0.7004 -0.4470
  252SOL    HW1 1502   1.905   5.160   0.791  1.4405 -2.2122  1.0987
  252SOL    HW2 1503   1.941   5.060   0.684  1.1178 -1.2491  0.0810
  253SOL     OW 1504   2.562   2.656   4.952 -0.4791  0.2486 -0.2068
  253SOL    HW1 1505   2.500   2.707   4.901 -0.7113 -0.1145 -0.2948
  253SOL    HW2 1506   2.558   2.568   4.914 -1.6007 -0.3722  1.2234
  254SOL     OW 1507   4.715   0.113   3.007  0.5543  0.1877  0.1820
  254SOL    HW1 1508   4.715   0.124   3.102 -0.9496 -0.9457  0.3476
  254SOL    HW2 1509   4.624   0.127   2.981  1.4773  4.3770 -1.6555
  255SOL     OW 1510   3.867   4.296   2.906  0.3306  0.5204  0.4865
  255SOL    HW1 1511   3.820   4.269   2.827  0.5179 -2.0214  1.1413
  255SOL    HW2 1512   3.829   4.381   2.930  1.0346  1.9465 -2.8936
  256SOL     OW 1513   0.320   5.349   5.595 -0.5305 -0.1533 -0.1682
  256SOL    HW1 1514   0.228   5.369   5.612 -0.8715 -2.6286  1.3761
  256SOL    HW2 1515   0.367   5.382   5.672 -0.7663 -2.5817  1.1239
  257SOL     OW 1516   6.263   1.313   0.871  0.2049  0.0839  0.3561
  257SOL    HW1 1517   6.324   1.383   0.847  1.9746 -1.3232  0.5265
  257SOL    HW2 1518   6.276   1.246   0.804 -1.5156 -0.0924  0.1508
  258SOL     OW 1519   3.405   1.194   0.055  0.0497  0.5897  0.4519
  258SOL    HW1 1520   3.381   1.121   0.112 -0.8613 -0.9812 -1.8066
  258SOL    HW2 1521   3.331   1.255   0.063 -0.8730 -0.3913 -0.2334
  259SOL     OW 1522   0.219   4.742   0.677 -0.1024 -0.1123 -0.0141
  259SOL    HW1 1523   0.202   4.767   0.586  1.0948 -0.0771 -0.2370
  259SOL    HW2 1524   0.202   4.648   0.679  0.1054 -0.1575 -0.3276
  260SOL     OW 1525   2.524   0.056   0.610 -0.2420  0.2024  0.4755
  260SOL    HW1 1526   2.574  -0.010   0.563  1.5570  0.7585  1.4879
  260SOL    HW2 1527   2.433   0.031   0.599  0.3320 -1.7065 -0.2121
  261SOL     OW 1528   3.575   5.852   6.148 -0.5023 -0.1338  0.2323
  261SOL    HW1 1529   3.502   5.859   6.086 -0.5454 -0.5002  0.2423
  261SOL    HW2 1530   3.558   5.921   6.213 -0.3379  0.4016 -0.2832
  262SOL     OW 1531   3.097   1.139   2.319  0.2914 -0.3653 -0.3265
  262SOL    HW1 1532   3.119   1.179   2.234  0.2787  1.8231  0.6282
  262SOL    HW2 1533   3.181   1.137   2.366 -0.1641  1.1076  0.6159
  263SOL     OW 1534   2.545   3.498   1.517  0.3494 -0.3099  0.2976
  263SOL    HW1 1535   2.551   3.433   1.588  1.9316 -3.0416 -2.0987
  263SOL    HW2 1536   2.628   3.545   1.520  0.3823 -0.3689  0.3217
  264SOL     OW 1537   4.848   0.636   2.716  0.6091  0.2289 -0.0689
  264SOL    HW1 1538   4.853   0.541   2.707 -0.7892  0.1755 -0.4705
  264SOL    HW2 1539   4.851   0.652   2.810  0.9089 -0.2084 -0.0025
  265SOL     OW 1540   1.330   3.962   5.550  0.0392  0.1321  0.0248
  265SOL    HW1 1541   1.421   3.979   5.576 -0.4047  1.8996  0.6070
  265SOL    HW2 1542   1.279   3.976   5.630 -0.8159 -0.0786 -0.4694
  266SOL     OW 1543   4.841   5.143   0.708  0.0797  0.5486 -0.2642
  266SOL    HW1 1544   4.879   5.061   0.739  1.5815  0.4557 -2.1935
  266SOL    HW2 1545   4.905   5.178   0.647 -0.7563  2.9378  0.1109
  267SOL     OW 1546   2.930   4.055   2.086  0.3639 -0.0250 -0.3231
  267SOL    HW1 1547   2.987   4.020   2.156  0.3585 -0.4588 -0.5308
  267SOL    HW2 1548   2.988   4.066   2.011  0.2530 -0.1082 -0.4220
  268SOL     OW 1549   3.524   2.847   5.958  0.3337 -0.3908 -0.5039
  268SOL    HW1 1550   3.497   2.756   5.969 -0.0128 -0.1636  0.6415
  268SOL    HW2 1551   3.490   2.872   5.872 -1.9635 -0.5336  0.2979
  269SOL     OW 1552   5.972   1.203   5.075 -0.1686  0.0829  0.2105
  269SOL    HW1 1553   6.031   1.273   5.046 -0.3542  0.2908  0.3274
  269SOL    HW2 1554   5.965   1.216   5.170 -0.2859 -0.0329  0.2182
  270SOL     OW 1555   4.310   6.027   2.189 -0.1765  0.0072  0.6058
  270SOL    HW1 1556   4.387   6.031   2.132  0.1668  2.2820  1.1220
  270SOL    HW2 1557   4.333   5.964   2.256  0.9287  0.0573  0.2880
  271SOL     OW 1558   0.615   3.859   5.299  0.2956 -0.4111  0.3236
  271SOL    HW1 1559   0.613   3.763   5.300 -1.0307 -0.4064  0.2334
  271SOL    HW2 1560   0.698   3.882   5.339  1.1326 -1.6086 -0.6497
  272SOL     OW 1561   5.057   5.497   5.080  0.4829 -0.1311 -0.4224
  272SOL    HW1 1562   5.129   5.436   5.101 -0.0446 -0.2214  1.2733
  272SOL    HW2 1563   5.058   5.560   5.152 -1.5627 -0.5479  0.0287
  273SOL     OW 1564   3.450   3.653   1.122 -0.3252 -0.5716 -0.0933
  273SOL    HW1 1565   3.489   3.570   1.150  0.0746 -0.2568  0.2890
  273SOL    HW2 1566   3.374   3.627   1.070 -0.5234 -1.1731  0.4891
  274SOL     OW 1567   1.355   2.176   0.948  0.1407 -0.0334  0.0336
  274SOL    HW1 1568   1.404   2.258   0.945 -1.4680  1.0057  0.7208
  274SOL    HW2 1569   1.326   2.162   0.858  1.8692 -0.8334 -0.4550
  275SOL     OW 1570   0.864   4.579   4.516  0.1263 -0.2753  0.5643
  275SOL    HW1 1571   0.771   4.590   4.539 -0.4772 -0.3534 -1.5973
  275SOL    HW2 1572   0.884   4.655   4.461  0.2456 -2.0034 -1.9838
  276SOL     OW 1573   4.199   3.034   0.552 -0.7004 -0.2901 -0.1703
  276SOL    HW1 1574   4.118   3.077   0.580 -0.5994 -0.2480  0.0664
  276SOL    HW2 1575   4.257   3.040   0.629 -0.3708 -0.0610 -0.4320
  277SOL     OW 1576   0.406   5.089   5.655 -0.0593 -0.1239 -0.6013
  277SOL    HW1 1577   0.363   5.173   5.641  1.0231  0.5813  0.1434
  277SOL    HW2 1578   0.488   5.095   5.606 -1.0240 -1.6983 -2.5429
  278SOL     OW 1579   0.052   3.834   4.108 -0.7667  0.4901 -0.1149
  278SOL    HW1 1580  -0.013   3.780   4.064 -1.8464  2.7925 -1.5275
  278SOL    HW2 1581   0.125   3.840   4.046  0.2120 -0.8676  0.8479
  279SOL     OW 1582   5.203   3.459   3.112  0.0169  0.0415 -0.1262
  279SOL    HW1 1583   5.136   3.430   3.049  1.9365 -3.6365 -0.7254
  279SOL    HW2 1584   5.174   3.424   3.196  0.4084 -0.2177 -0.0971
  280SOL     OW 1585   1.058   4.788   2.315 -0.2896 -0.2191  0.4466
  280SOL    HW1 1586   0.987   4.830   2.266 -0.3468 -0.0987  0.6334
  280SOL    HW2 1587   1.123   4.767   2.248  0.7701  2.1923  0.5904
  281SOL     OW 1588   0.553   0.072   5.553 -0.0531  0.6666 -0.1599
  281SOL    HW1 1589   0.550   0.013   5.478  0.8441 -0.1636  0.4321
  281SOL    HW2 1590   0.585   0.017   5.625 -0.1596  1.6352  0.6436
  282SOL     OW 1591   5.134   5.688   1.436  0.1841  0.2126  0.1808
  282SOL    HW1 1592   5.183   5.613   1.470 -1.2339 -0.2491  1.2991
  282SOL    HW2 1593   5.200   5.741   1.390  1.4062 -1.1806  0.2458
  283SOL     OW 1594   2.512   1.564   5.831 -0.2704  0.6803 -0.2355
  283SOL    HW1 1595   2.483   1.511   5.757  0.5405 -0.3763  0.1916
  283SOL    HW2 1596   2.582   1.619   5.796  0.9172 -0.6534  0.0038
  284SOL     OW 1597   3.690   3.010   3.541 -0.7707 -0.3407  0.6641
  284SOL    HW1 1598   3.764   2.961   3.578  0.1442  1.7025  1.7855
  284SOL    HW2 1599   3.613   2.957   3.561  0.3204 -2.3715 -0.2152
  285SOL     OW 1600   6.071   5.849   4.132  0.4505  0.2345 -0.0643
  285SOL    HW1 1601   6.055   5.754   4.133 -0.5836  0.3147  2.8911
  285SOL    HW2 1602   6.008   5.883   4.069  0.0854 -0.9503 -0.3727
  286SOL     OW 1603   0.861   3.061   0.511  0.4848  0.3133 -0.1159
  286SOL    HW1 1604   0.930   3.046   0.576  2.2937 -1.0564 -2.2042
  286SOL    HW2 1605   0.905   3.104   0.438 -1.0588  0.1935 -1.1675
  287SOL     OW 1606   2.786   5.742   2.094 -0.0276 -0.4658 -1.0453
  287SOL    HW1 1607   2.776   5.801   2.019 -0.2682  1.5224  0.4527
  287SOL    HW2 1608   2.877   5.753   2.121 -0.3334  0.0419 -0.1561
  288SOL     OW 1609   4.336   3.979   1.355  0.0237 -0.0754 -0.0680
  288SOL    HW1 1610   4.308   3.895   1.317  1.1849 -0.7194  0.4622
  288SOL    HW2 1611   4.265   4.002   1.415 -0.9678  0.0452 -1.2502
  289SOL     OW 1612   2.871   4.455   5.364  0.2843 -0.0093 -0.0125
  289SOL    HW1 1613   2.927   4.532   5.361 -0.3185  0.4111 -1.4136
  289SOL    HW2 1614   2.905   4.403   5.436  3.6355 -0.6498 -1.8319
  290SOL     OW 1615   1.004   2.477   3.973  0.1555  0.1603 -0.0080
  290SOL    HW1 1616   1.054   2.420   3.914 -0.4174  0.5452 -0.8876
  290SOL    HW2 1617   1.068   2.508   4.036  1.1206  0.9146 -1.3071
  291SOL     OW 1618   0.541   2.392   1.055  0.2450  0.4851 -0.5671
  291SOL    HW1 1619   0.496   2.343   0.986 -0.6961  0.9066 -0.2678
  291SOL    HW2 1620   0.476   2.456   1.085 -0.1452 -1.0908  2.2338
  292SOL     OW 1621   3.358   4.437   2.287 -0.6654 -0.0355  0.3045
  292SOL    HW1 1622   3.296   4.508   2.270 -1.9417 -1.0568  0.6238
  292SOL    HW2 1623   3.308   4.357   2.273  1.0015 -0.9154 -1.0151
  293SOL     OW 1624   3.603   0.313   3.476 -0.4189 -0.9181  0.0918
  293SOL    HW1 1625   3.690   0.276   3.494 -0.9597 -1.3317  2.0675
  293SOL    HW2 1626   3.614   0.360   3.393  1.0310 -3.1000 -1.0735
  294SOL     OW 1627   3.800   5.108   5.539 -0.3660  0.1644 -0.1611
  294SOL    HW1 1628   3.871   5.053   5.573 -1.6222  0.6166  3.8047
  294SOL    HW2 1629   3.839   5.195   5.529  0.6836 -0.5176 -2.7327
  295SOL     OW 1630   4.148   4.042   4.949 -0.0611 -0.4452  0.2150
  295SOL    HW1 1631   4.168   3.948   4.948  0.5816 -0.3202 -0.7960
  295SOL    HW2 1632   4.234   4.084   4.939 -0.1538  0.3092  2.1694
  296SOL     OW 1633   4.060   0.185   4.919 -0.1885  0.3213 -0.0371
  296SOL    HW1 1634   4.060   0.228   5.005 -2.9233  0.7927 -0.1746
  296SOL    HW2 1635   4.152   0.172   4.899  0.5739 -0.5731  3.3438
  297SOL     OW 1636   6.254   1.387   3.763 -0.0656  0.3636 -0.0540
  297SOL    HW1 1637   6.279   1.315   3.821 -0.0276  1.2282  1.0466
  297SOL    HW2 1638   6.162   1.370   3.742 -0.7335  1.1161  1.9939
  298SOL     OW 1639   5.327   1.478   1.230 -0.5639 -0.0394 -0.7333
  298SOL    HW1 1640   5.374   1.400   1.199 -0.0944 -0.8919  1.8742
  298SOL    HW2 1641   5.389   1.550   1.216  0.8106 -0.8544  0.8150
  299SOL     OW 1642   2.293   2.468   1.447  0.1548 -0.5885 -0.0367
  299SOL    HW1 1643   2.298   2.494   1.355 -0.8675 -0.9696 -0.2154
  299SOL    HW2 1644   2.263   2.546   1.493 -1.3828 -0.9435 -0.3521
  300SOL     OW 1645   4.692   1.985   6.044  0.2649 -0.0486  0.0719
  300SOL    HW1 1646   4.756   1.990   6.115 -0.1034  0.8265  0.3531
  300SOL    HW2 1647   4.621   2.043   6.071 -0.2839 -0.3854 -0.6091
  301SOL     OW 1648   0.352   1.550   5.653 -0.3261  0.1642 -0.4233
  301SOL    HW1 1649   0.349   1.474   5.710 -1.3740  0.1323 -0.4986
  301SOL    HW2 1650   0.304   1.618   5.701 -1.6633 -0.0170 -1.4681
  302SOL     OW 1651   0.505   3.571   5.217 -0.4698  0.1931  0.2492
  302SOL    HW1 1652   0.505   3.486   5.261  1.2293  0.0893  0.1076
  302SOL    HW2 1653   0.441   3.561   5.146  0.4536 -1.3492 -0.4203
  303SOL     OW 1654   6.125   4.308   3.650 -0.1729 -0.0821  0.3214
  303SOL    HW1 1655   6.146   4.317   3.743 -1.2338 -0.5438  0.6185
  303SOL    HW2 1656   6.209   4.321   3.605  0.4904 -0.6056  1.3765
  304SOL     OW 1657   4.716   1.921   2.225  0.3358 -0.0498 -0.3380
  304SOL    HW1 1658   4.748   2.004   2.259  0.2996  0.5696 -1.7544
  304SOL    HW2 1659   4.657   1.887   2.293 -0.1342  1.3836 -0.0107
  305SOL     OW 1660   5.303   5.388   3.713  0.0926  0.0394 -0.1555
  305SOL    HW1 1661   5.352   5.405   3.632  0.7289 -0.2589  0.1597
  305SOL    HW2 1662   5.370   5.363   3.777 -0.3988  0.3371  0.4845
  306SOL     OW 1663   0.285   4.510   3.844  0.0580 -0.1271  0.4742
  306SOL    HW1 1664   0.288   4.601   3.872  1.0627  0.5099 -1.5115
  306SOL    HW2 1665   0.335   4.463   3.910  0.1099  0.8686  1.1634
  307SOL     OW 1666   0.620   4.618   4.593  0.2088  0.3621 -0.0668
  307SOL    HW1 1667   0.573   4.699   4.614  0.2058  0.2067  0.5529
  307SOL    HW2 1668   0.566   4.548   4.631  0.5038  0.1147 -0.0961
  308SOL     OW 1669   3.702   3.191   1.532 -0.1550 -0.1326  0.5249
  308SOL    HW1 1670   3.696   3.110   1.481  0.3034  0.8745 -1.2390
  308SOL    HW2 1671   3.732   3.164   1.618  1.9062 -1.6782 -0.5902
  309SOL     OW 1672   5.027   4.015   2.676 -0.5161  0.0897  0.0153
  309SOL    HW1 1673   5.060   4.099   2.709 -0.6614  0.1659 -0.0361
  309SOL    HW2 1674   5.084   3.950   2.717  0.5277  0.2858 -1.0624
  310SOL     OW 1675   1.613   3.337   3.371  0.4882 -0.2171 -0.2358
  310SOL    HW1 1676   1.667   3.345   3.449 -0.3088 -1.2462  0.4448
  310SOL    HW2 1677   1.652   3.265   3.321  0.5742 -0.0317 -0.4385
  311SOL     OW 1678   4.617   2.704   3.103  0.4521 -0.0470  0.2496
  311SOL    HW1 1679   4.706   2.684   3.133  1.3718  0.1435 -2.1349
  311SOL    HW2 1680   4.617   2.799   3.089  0.4630 -0.2598 -1.3900
  312SOL     OW 1681   5.802   2.233   4.219  0.5228  0.3234 -0.3413
  312SOL    HW1 1682   5.803   2.319   4.178 -1.4521  0.6449  0.1665
  312SOL    HW2 1683   5.819   2.250   4.311 -1.7000  0.4520  0.0962
  313SOL     OW 1684   0.922   5.048   1.751  0.3972  0.0190 -0.2530
  313SOL    HW1 1685   0.958   5.106   1.684  0.7646 -0.5445 -0.5499
  313SOL    HW2 1686   0.967   4.964   1.737 -1.1254 -0.7570 -0.7443
  314SOL     OW 1687   5.712   5.270   3.676  0.1978  0.0255 -0.6366
  314SOL    HW1 1688   5.709   5.245   3.583  1.2791 -1.5934 -0.2761
  314SOL    HW2 1689   5.636   5.225   3.714  0.7589 -0.7839 -0.4384
  315SOL     OW 1690   0.426   0.191   2.029 -0.7127 -0.2436 -0.1993
  315SOL    HW1 1691   0.457   0.280   2.044 -0.7756 -0.5235  1.9407
  315SOL    HW2 1692   0.335   0.202   2.001 -0.4560  0.3754 -0.8241
  316SOL     OW 1693   0.968   0.367   5.081  0.3004  0.1396  0.0213
  316SOL    HW1 1694   1.036   0.312   5.121 -0.2255  0.0837  0.8735
  316SOL    HW2 1695   0.991   0.456   5.107  0.1772  0.1424  0.1227
  317SOL     OW 1696   6.129   5.864   2.464  0.1773  0.3210 -0.1066
  317SOL    HW1 1697   6.081   5.835   2.386  2.4748  0.2483 -1.6141
  317SOL    HW2 1698   6.128   5.960   2.458  1.0083  0.3074 -0.7120
  318SOL     OW 1699   1.538   0.758   0.072 -0.9280  0.1714  0.2764
  318SOL    HW1 1700   1.584   0.780   0.153 -0.9889  0.0748  0.3375
  318SOL    HW2 1701   1.469   0.699   0.099 -2.4018  1.9092  0.4875
  319SOL     OW 1702   4.555   0.644   4.660  0.0646 -0.4613  0.5100
  319SOL    HW1 1703   4.564   0.654   4.755  0.1621 -1.0052  0.5578
  319SOL    HW2 1704   4.467   0.611   4.647  0.3366 -1.1970  0.4752
  320SOL     OW 1705   1.129   5.496   4.359 -0.2772 -0.6248 -0.2613
  320SOL    HW1 1706   1.073   5.422   4.382 -0.7067 -0.9546 -2.1499
  320SOL    HW2 1707   1.214   5.474   4.395 -1.2613 -0.1747  2.5436
  321SOL     OW 1708   3.924   1.726   0.931  0.8026  0.2153 -0.0365
  321SOL    HW1 1709   3.957   1.638   0.951 -0.0297 -0.0730  0.0823
  321SOL    HW2 1710   3.858   1.712   0.863  0.9199  0.7892 -0.2721
  322SOL     OW 1711   1.503   0.849   1.670  0.3806  0.0827 -0.4748
  322SOL    HW1 1712   1.547   0.838   1.754  0.4261  0.5287 -0.4391
  322SOL    HW2 1713   1.497   0.760   1.634  0.4897 -0.0902 -0.0682
  323SOL     OW 1714   5.957   0.131   1.342 -0.1157 -0.4875 -0.0318
  323SOL    HW1 1715   6.010   0.059   1.376 -0.6244  0.1495  2.2740
  323SOL    HW2 1716   6.021   0.196   1.313  0.3589 -1.8881 -2.4266
  324SOL     OW 1717   3.627   2.283   1.381  0.5493 -0.5583  0.3511
  324SOL    HW1 1718   3.718   2.264   1.363  1.0608  1.8252  0.0211
  324SOL    HW2 1719   3.581   2.263   1.299  0.6257 -2.4001  0.7284
  325SOL     OW 1720   4.584   2.263   5.665  0.0647 -0.0060 -0.3662
  325SOL    HW1 1721   4.538   2.180   5.655  1.5935 -0.8880 -0.3598
  325SOL    HW2 1722   4.639   2.270   5.587 -1.3438  1.8925 -1.2619
  326SOL     OW 1723   6.134   3.204   0.241  0.3560 -0.2704 -0.0903
  326SOL    HW1 1724   6.138   3.295   0.270 -0.6420  0.1828 -1.3195
  326SOL    HW2 1725   6.215   3.190   0.192  0.0880  0.2544 -0.6960
  327SOL     OW 1726   1.148   4.119   3.786  0.4545  0.1160  0.2405
  327SOL    HW1 1727   1.162   4.132   3.880  0.9407 -0.7438  0.2924
  327SOL    HW2 1728   1.211   4.178   3.745  0.7935 -0.0911  0.4601
  328SOL     OW 1729   3.035   3.827   2.435 -0.5201  0.0734 -0.1245
  328SOL    HW1 1730   3.074   3.847   2.349 -0.9144  0.9429 -0.1084
  328SOL    HW2 1731   3.046   3.732   2.444 -0.4921 -0.0366 -1.1463
  329SOL     OW 1732   1.771   2.479   4.720  0.1142  0.0537  0.3907
  329SOL    HW1 1733   1.747   2.478   4.812 -0.6716 -1.1169  0.1978
  329SOL    HW2 1734   1.828   2.402   4.710  0.9923  0.7234  0.0883
  330SOL     OW 1735   3.691   4.852   0.811 -0.2609  0.1665 -0.0355
  330SOL    HW1 1736   3.696   4.881   0.720  0.3426 -0.1554 -0.1108
  330SOL    HW2 1737   3.602   4.874   0.839 -0.2080  0.9691 -0.4647
  331SOL     OW 1738   0.953   1.725   4.924 -0.3556 -0.3076 -0.4816
  331SOL    HW1 1739   0.895   1.663   4.969 -1.7527 -1.3457 -3.4288
  331SOL    HW2 1740   0.928   1.717   4.832  1.4633  2.5510 -1.3251
  332SOL     OW 1741   2.613   4.640   4.208  0.2782 -0.3828 -0.0392
  332SOL    HW1 1742   2.674   4.608   4.142 -0.1201 -0.1188 -0.5453
  332SOL    HW2 1743   2.578   4.721   4.170  1.1889  0.6260  1.1549
  333SOL     OW 1744   6.118   5.527   1.839  0.1642  0.2652  0.2035
  333SOL    HW1 1745   6.165   5.551   1.918  1.6453 -2.7782  0.4087
  333SOL    HW2 1746   6.159   5.578   1.769 -1.0674  2.8745  1.2667
  334SOL     OW 1747   2.328   0.425   5.801  0.8188  0.2108  0.2210
  334SOL    HW1 1748   2.336   0.369   5.724 -0.7412  1.0500 -0.6145
  334SOL    HW2 1749   2.338   0.514   5.767 -3.9054  0.9551  0.0651
  335SOL     OW 1750   4.041   4.800   6.271  0.1320  0.3071 -0.0433
  335SOL    HW1 1751   3.954   4.784   6.308  0.4615  0.2842  0.7430
  335SOL    HW2 1752   4.069   4.882   6.312  0.3839  0.4411 -0.4796
  336SOL     OW 1753   3.911   6.050   5.358  0.4896 -0.5354  0.2558
  336SOL    HW1 1754   3.956   6.039   5.275 -0.0347 -0.2967 -0.0606
  336SOL    HW2 1755   3.915   6.143   5.376 -0.6586 -0.3764 -0.2262
  337SOL     OW 1756   1.972   5.213   3.706 -0.2071 -0.1000  0.5970
  337SOL    HW1 1757   1.936   5.135   3.748  0.9921 -2.7967 -2.8757
  337SOL    HW2 1758   1.896   5.262   3.676 -0.9835  0.0754  2.7024
  338SOL     OW 1759   2.824   5.497   5.889  0.0652  0.0772  0.6215
  338SOL    HW1 1760   2.799   5.436   5.820 -0.9185  0.2518  0.8098
  338SOL    HW2 1761   2.787   5.459   5.969  1.8651 -0.5392  1.2061
  339SOL     OW 1762   0.937   3.407   4.163  0.4710 -0.1430  0.0360
  339SOL    HW1 1763   0.860   3.368   4.203  0.7472  0.0861  0.8066
  339SOL    HW2 1764   1.010   3.351   4.189  0.9039  0.9596  1.3447
  340SOL     OW 1765   1.182   0.176   0.387 -0.3410 -0.3248 -0.2978
  340SOL    HW1 1766   1.168   0.177   0.293  0.0898 -0.9118 -0.3716
  340SOL    HW2 1767   1.117   0.237   0.422 -0.1979  0.2404 -1.0084
  341SOL     OW 1768   5.524   6.071   5.777  0.2321  0.6442 -0.2244
  341SOL    HW1 1769   5.472   5.993   5.759  0.5806  0.3942 -0.1638
  341SOL    HW2 1770   5.485   6.107   5.857  0.2314  0.3860 -0.1061
  342SOL     OW 1771   1.898   4.008   4.807 -0.2002  0.1724  0.1645
  342SOL    HW1 1772   1.928   4.035   4.893  0.7246  1.3412 -0.4917
  342SOL    HW2 1773   1.972   4.027   4.749 -0.5060 -1.3162 -0.7753
  343SOL     OW 1774   0.189   0.221   1.908  0.3372  0.2030  0.5095
  343SOL    HW1 1775   0.133   0.149   1.878 -0.8263  0.7160  1.3751
  343SOL    HW2 1776   0.150   0.299   1.869  0.8894  0.4985  0.5434
  344SOL     OW 1777   3.014   1.611   3.114  0.4505  0.0999  0.3945
  344SOL    HW1 1778   3.047   1.524   3.091  0.5536 -0.0513  1.0809
  344SOL    HW2 1779   2.919   1.604   3.100  0.4268 -0.2039  0.6904
  345SOL     OW 1780   3.294   4.994   0.424  0.9395  0.0758  0.9961
  345SOL    HW1 1781   3.305   5.065   0.362 -0.1071 -0.2862  0.3752
  345SOL    HW2 1782   3.226   5.024   0.485 -2.8678 -1.9334 -1.8155
  346SOL     OW 1783   1.841   3.716   2.204  0.3642  0.8075  0.1622
  346SOL    HW1 1784   1.793   3.772   2.264 -0.2893  1.2132 -0.7145
  346SOL    HW2 1785   1.862   3.638   2.255 -0.3965  1.0322  0.8376
  347SOL     OW 1786   3.001   0.799   0.402  0.1081 -0.4306 -0.0819
  347SOL    HW1 1787   3.082   0.842   0.376 -0.1858 -0.3289 -0.8774
  347SOL    HW2 1788   2.932   0.845   0.352 -0.1723 -2.0313 -1.2710
  348SOL     OW 1789   5.464   2.978   3.405  0.2957 -0.1368  0.0332
  348SOL    HW1 1790   5.541   2.921   3.400  0.6601  0.3646 -0.1538
  348SOL    HW2 1791   5.415   2.946   3.480  0.0662 -1.2237 -0.5557
  349SOL     OW 1792   3.794   1.139   0.637  0.5977  0.3767 -0.1744
  349SOL    HW1 1793   3.796   1.235   0.630  1.4595  0.2688 -2.0199
  349SOL    HW2 1794   3.884   1.115   0.659  0.0506  0.0427  1.8531
  350SOL     OW 1795   2.363   1.417   3.616  0.3079 -0.6278 -0.2739
  350SOL    HW1 1796   2.336   1.404   3.707 -0.4363  1.2832 -0.1644
  350SOL    HW2 1797   2.443   1.470   3.623 -0.9851  1.4869 -0.7063
  351SOL     OW 1798   2.255   2.946   4.492 -0.6510 -0.2006  0.3123
  351SOL    HW1 1799   2.208   2.966   4.573 -0.7551  2.5339 -0.3188
  351SOL    HW2 1800   2.333   3.001   4.495  0.0133 -1.0252 -0.8718
  352SOL     OW 1801   5.165   1.475   3.503 -0.2239  0.6089  0.3052
  352SOL    HW1 1802   5.180   1.390   3.462 -0.2531 -0.5037  2.4394
  352SOL    HW2 1803   5.075   1.498   3.480 -0.1465  0.1759 -0.4573
  353SOL     OW 1804   3.722   0.679   5.361  0.1964 -0.4426 -0.3983
  353SOL    HW1 1805   3.797   0.737   5.373  1.2731 -1.7508 -0.6516
  353SOL    HW2 1806   3.653   0.737   5.328  1.3162  0.6539 -0.9201
  354SOL     OW 1807   5.458   0.616   6.198  0.2965 -0.0038  0.2650
  354SOL    HW1 1808   5.423   0.688   6.251  2.7182  2.6073 -1.3907
  354SOL    HW2 1809   5.391   0.599   6.132 -1.2172 -0.8459  1.9492
  355SOL     OW 1810   6.201   5.449   3.192 -0.1920 -0.1086  0.5255
  355SOL    HW1 1811   6.158   5.383   3.246  0.1035 -0.4854  0.3043
  355SOL    HW2 1812   6.286   5.463   3.233  0.5985 -1.4123 -0.6062
  356SOL     OW 1813   2.677   2.566   1.479 -0.0100  0.5814 -0.0134
  356SOL    HW1 1814   2.768   2.594   1.489  0.1662 -0.3198  1.1194
  356SOL    HW2 1815   2.638   2.631   1.420  0.9022  1.9916  0.8881
  357SOL     OW 1816   0.005   5.739   5.434  0.4354  0.1706  0.0270
  357SOL    HW1 1817   0.043   5.793   5.364  0.2677  2.3897  1.5703
  357SOL    HW2 1818   0.080   5.698   5.475  0.7198  0.5086 -0.1465
  358SOL     OW 1819   2.799   2.673   6.011  0.0430  0.1634 -0.0444
  358SOL    HW1 1820   2.722   2.692   5.957 -0.1106  0.0577  0.1381
  358SOL    HW2 1821   2.804   2.746   6.073 -0.3475 -0.2127  0.4331
  359SOL     OW 1822   1.138   5.421   1.171 -0.3496  0.0072 -0.2215
  359SOL    HW1 1823   1.224   5.413   1.130  0.2784 -0.2140  1.0947
  359SOL    HW2 1824   1.134   5.512   1.201 -0.2136 -0.2061  0.4666
  360SOL     OW 1825   1.060   2.915   2.966 -0.2496  0.3658  0.1070
  360SOL    HW1 1826   0.992   2.979   2.986 -1.3581 -0.5086 -0.7596
  360SOL    HW2 1827   1.015   2.847   2.917  1.6574  0.8436 -2.5385
  361SOL     OW 1828   3.105   2.987   5.005 -0.8348  0.4658 -0.0013
  361SOL    HW1 1829   3.107   3.014   4.914 -0.3470 -0.7618 -0.3778
  361SOL    HW2 1830   3.192   2.952   5.021 -1.7324 -1.8640  0.1139
  362SOL     OW 1831   2.163   2.396   3.302  0.5133  0.1734 -0.1076
  362SOL    HW1 1832   2.214   2.365   3.227  0.0731  0.9301 -0.7278
  362SOL    HW2 1833   2.227   2.443   3.356  0.8283 -0.3563 -0.0122
  363SOL     OW 1834   0.169   1.511   3.634 -0.0032 -0.3466 -0.6352
  363SOL    HW1 1835   0.142   1.596   3.600  0.7976 -0.5300 -1.7666
  363SOL    HW2 1836   0.088   1.473   3.670 -0.4345  0.7336 -0.4140
  364SOL     OW 1837   0.379   5.330   3.322 -0.4725  0.0487  0.3853
  364SOL    HW1 1838   0.289   5.297   3.321 -0.4819 -0.0801  2.2443
  364SOL    HW2 1839   0.369   5.425   3.316 -0.8319  0.1201  1.7321
  365SOL     OW 1840   5.876   3.505   3.926  0.1574  0.0134 -0.3173
  365SOL    HW1 1841   5.815   3.432   3.909  1.3282 -1.0173 -0.2176
  365SOL    HW2 1842   5.875   3.555   3.844 -2.3459  1.2302  0.3436
  366SOL     OW 1843   2.050   0.463   2.598  1.3659 -0.6239 -0.7630
  366SOL    HW1 1844   2.105   0.535   2.568  2.1245 -0.3087  1.1846
  366SOL    HW2 1845   2.085   0.442   2.685 -1.4261 -0.6100  0.4725
  367SOL     OW 1846   3.963   4.524   5.399 -0.1612 -0.3192 -0.6974
  367SOL    HW1 1847   3.868   4.522   5.382 -0.3701  0.0327  0.3441
  367SOL    HW2 1848   3.971   4.574   5.480  0.8118 -1.5007 -0.0436
  368SOL     OW 1849   5.568   6.072   3.801 -0.7912 -0.2609 -0.5663
  368SOL    HW1 1850   5.633   6.094   3.735  0.7204 -0.8081  0.6851
  368SOL    HW2 1851   5.575   6.142   3.866 -0.3348 -1.1229  0.3369
  369SOL     OW 1852   3.156   4.612   2.229 -0.0916  0.7648  0.5232
  369SOL    HW1 1853   3.159   4.653   2.142 -2.1296 -0.7416 -0.3490
  369SOL    HW2 1854   3.096   4.667   2.280 -0.5078  0.5331  0.2935
  370SOL     OW 1855   1.452   3.401   5.338 -0.4872 -0.0545 -0.3700
  370SOL    HW1 1856   1.488   3.447   5.262  0.6960 -0.2473  0.0490
  370SOL    HW2 1857   1.442   3.311   5.308  2.3561 -0.7223  0.3646
  371SOL     OW 1858   0.405   0.432   5.972  0.2336 -0.2041 -0.1838
  371SOL    HW1 1859   0.415   0.350   6.021  2.5863 -0.2014 -0.5659
  371SOL    HW2 1860   0.335   0.415   5.910 -0.8035 -1.1757  1.1838
  372SOL     OW 1861   0.310   2.858   1.640 -0.0970 -0.6702  0.2161
  372SOL    HW1 1862   0.250   2.843   1.713  0.2749 -1.7039  0.3313
  372SOL    HW2 1863   0.270   2.815   1.566 -0.0906 -0.2945 -0.0097
  373SOL     OW 1864   5.779   5.015   3.084  0.5231  0.3628 -0.3573
  373SOL    HW1 1865   5.777   5.027   3.179  2.2320  0.7921 -0.3392
  373SOL    HW2 1866   5.788   4.921   3.071  0.2716  0.3041 -0.0876
  374SOL     OW 1867   2.825   3.951   0.303 -0.6274 -0.1692 -0.5868
  374SOL    HW1 1868   2.828   3.997   0.387  1.1967  0.1792 -0.7990
  374SOL    HW2 1869   2.768   3.876   0.319 -0.5746  0.0643  0.8659
  375SOL     OW 1870   0.252   3.239   0.526 -0.5745 -0.0871 -0.0577
  375SOL    HW1 1871   0.302   3.234   0.607 -0.3387  1.0708 -0.1142
  375SOL    HW2 1872   0.173   3.288   0.549 -1.3935 -1.3197 -0.1269
  376SOL     OW 1873   5.304   1.230   0.131 -0.4464 -0.3304  0.5827
  376SOL    HW1 1874   5.381   1.174   0.126 -1.2747 -1.7432  2.2653
  376SOL    HW2 1875   5.251   1.206   0.055  1.1778  1.4497 -1.2245
  377SOL     OW 1876   3.713   0.081   0.497  0.5483 -0.6076 -0.5576
  377SOL    HW1 1877   3.646   0.080   0.566 -0.4397  0.1703 -1.4712
  377SOL    HW2 1878   3.757  -0.004   0.505  0.7021 -0.4075  1.2384
  378SOL     OW 1879   3.074   5.953   2.624 -0.0222  0.2068  0.0236
  378SOL    HW1 1880   3.030   5.893   2.684 -0.8972  0.4694 -0.3314
  378SOL    HW2 1881   3.156   5.976   2.668 -0.3088 -0.1782  0.7768
  379SOL     OW 1882   0.986   1.649   3.632  0.2083 -0.0750  0.2617
  379SOL    HW1 1883   1.022   1.628   3.546  0.7692 -0.0231  0.4797
  379SOL    HW2 1884   0.921   1.581   3.649  2.0826 -1.7915  1.0219
  380SOL     OW 1885   6.132   6.197   1.470 -0.2509  0.3470 -0.0949
  380SOL    HW1 1886   6.222   6.173   1.448  0.0707  1.6206 -0.2582
  380SOL    HW2 1887   6.090   6.114   1.495  0.9012 -0.2911 -0.2138
  381SOL     OW 1888   4.093   6.231   0.664 -0.0589 -0.2375 -0.5091
  381SOL    HW1 1889   4.151   6.307   0.656  0.6701 -0.6834  0.3973
  381SOL    HW2 1890   4.005   6.269   0.659  0.2753  0.8066  0.9038
  382SOL     OW 1891   2.693   3.662   1.841 -0.2989  0.5202  0.5681
  382SOL    HW1 1892   2.689   3.723   1.767 -1.0631  0.0535  0.2070
  382SOL    HW2 1893   2.786   3.654   1.861  0.0125 -0.1516 -1.0235
  383SOL     OW 1894   5.057   2.389   0.241 -0.1440 -0.1706 -0.1939
  383SOL    HW1 1895   4.998   2.448   0.195  0.0869  0.8599  0.7710
  383SOL    HW2 1896   5.007   2.309   0.255 -0.6540 -0.0058 -1.0426
  384SOL     OW 1897   5.206   0.516   0.800  0.0094 -0.4421  0.1974
  384SOL    HW1 1898   5.239   0.446   0.743  0.2467 -0.3198  0.1836
  384SOL    HW2 1899   5.124   0.544   0.759 -0.2870 -0.9792  0.4151
  385SOL     OW 1900   5.244   3.027   5.579  0.2045 -0.0163 -0.3093
  385SOL    HW1 1901   5.198   3.110   5.567 -0.7406 -0.5574 -0.5323
  385SOL    HW2 1902   5.202   2.967   5.518  1.7050 -0.3565 -1.0659
  386SOL     OW 1903   3.346   0.312   4.708 -0.0396  0.5821  0.2249
  386SOL    HW1 1904   3.432   0.328   4.669  0.5931 -1.5312  0.6185
  386SOL    HW2 1905   3.290   0.287   4.635  0.0276  0.7037  0.1328
  387SOL     OW 1906   1.654   4.340   5.483  0.5065 -0.3740  0.8603
  387SOL    HW1 1907   1.577   4.300   5.524 -0.6743  0.0457 -0.8376
  387SOL    HW2 1908   1.683   4.405   5.546 -1.7053  0.7653  0.8250
  388SOL     OW 1909   2.874   1.375   5.883  0.1647  0.3485 -0.0879
  388SOL    HW1 1910   2.835   1.311   5.823  0.3478 -1.0337  1.1971
  388SOL    HW2 1911   2.802   1.402   5.940  0.3086  0.5240  0.0143
  389SOL     OW 1912   0.788   2.458   1.528 -0.1652 -0.2175 -0.4621
  389SOL    HW1 1913   0.851   2.530   1.531 -0.3539 -0.0521 -0.4565
  389SOL    HW2 1914   0.827   2.394   1.469 -0.2838  0.1566 -0.9492
  390SOL     OW 1915   1.990   4.928   2.621 -0.1841  0.5419  0.1155
  390SOL    HW1 1916   2.002   4.931   2.526 -0.1357  0.9352  0.1349
  390SOL    HW2 1917   2.079   4.917   2.656 -0.3145 -0.9434  0.0632
  391SOL     OW 1918   5.624   2.409   5.562  0.0647  0.1670 -0.4017
  391SOL    HW1 1919   5.677   2.444   5.491  1.4910  0.6246  0.8333
  391SOL    HW2 1920   5.685   2.356   5.613 -1.0096 -0.4403  0.2723
  392SOL     OW 1921   4.923   2.277   1.642  0.2199 -0.2798 -0.3167
  392SOL    HW1 1922   4.843   2.260   1.691 -0.6013 -0.8615 -1.8032
  392SOL    HW2 1923   4.897   2.335   1.571  1.2704  0.1280 -0.3851
  393SOL     OW 1924   0.182   4.210   2.854  0.7581  0.2268  0.5507
  393SOL    HW1 1925   0.107   4.162   2.819 -0.2504  1.2378  1.2281
  393SOL    HW2 1926   0.257   4.177   2.806 -0.3358  0.3466 -1.3253
  394SOL     OW 1927   4.231   5.906   4.284  0.2116 -0.4558 -0.2359
  394SOL    HW1 1928   4.231   5.847   4.360 -1.0395  1.1256  1.0703
  394SOL    HW2 1929   4.139   5.927   4.271  0.5582  0.4429 -1.2832
  395SOL     OW 1930   5.515   1.686   1.199  0.5049 -0.4598 -0.4465
  395SOL    HW1 1931   5.483   1.766   1.241  0.7399 -0.9041  0.5927
  395SOL    HW2 1932   5.550   1.633   1.270  1.8559 -0.7924 -1.3135
  396SOL     OW 1933   4.405   4.989   3.081  0.3647  0.1258  0.0003
  396SOL    HW1 1934   4.462   5.045   3.135 -2.0881  1.5752  1.2845
  396SOL    HW2 1935   4.438   4.900   3.096  3.0327  0.9659 -0.3571
  397SOL     OW 1936   0.851   5.693   3.596  0.2652  0.0904  0.1600
  397SOL    HW1 1937   0.883   5.773   3.638  0.2150  1.1108 -1.6523
  397SOL    HW2 1938   0.817   5.722   3.511 -1.5200 -1.5820  0.2228
  398SOL     OW 1939   5.310   4.539   2.856  0.8402 -0.2205 -0.3281
  398SOL    HW1 1940   5.387   4.484   2.844  0.4093 -0.5727 -1.6506
  398SOL    HW2 1941   5.244   4.479   2.892  0.4765 -0.5301 -1.4483
  399SOL     OW 1942   1.089   1.322   2.075 -0.3814  0.4332 -0.4971
  399SOL    HW1 1943   1.127   1.242   2.040  1.9735  1.6046 -0.8027
  399SOL    HW2 1944   1.086   1.308   2.170  0.2591  0.0648 -0.5264
  400SOL     OW 1945   1.995   3.195   3.304  0.2195  0.2201  0.1994
  400SOL    HW1 1946   2.043   3.124   3.347  0.4795 -1.9477 -3.2983
  400SOL    HW2 1947   1.908   3.159   3.290 -0.3795  1.5356  0.3805
  401SOL     OW 1948   3.161   5.389   4.932 -0.0346 -0.0348  0.1030
  401SOL    HW1 1949   3.228   5.327   4.959  0.6356  0.9437  0.7608
  401SOL    HW2 1950   3.210   5.467   4.905 -0.8613  0.2795 -0.5463
  402SOL     OW 1951   4.819   3.062   0.930  0.2176 -0.1849  0.4939
  402SOL    HW1 1952   4.782   3.129   0.873  2.8245  0.6558 -0.3953
  402SOL    HW2 1953   4.850   3.110   1.007  0.9633 -0.5241  0.4236
  403SOL     OW 1954   2.999   2.178   2.091  0.2553 -0.3772 -0.6954
  403SOL    HW1 1955   3.043   2.234   2.027  1.9047 -0.4982  0.2656
  403SOL    HW2 1956   3.065   2.113   2.115 -1.0538 -1.6749 -0.4953
  404SOL     OW 1957   0.846   6.161   3.353  0.1322 -0.0523 -0.2316
  404SOL    HW1 1958   0.900   6.113   3.416  1.0221  1.0912 -0.0874
  404SOL    HW2 1959   0.897   6.240   3.334 -0.1371 -0.3493 -2.3593
  405SOL     OW 1960   5.132   3.154   4.358  0.1681  0.0518  0.5636
  405SOL    HW1 1961   5.192   3.203   4.414  0.2442  1.0866 -0.3925
  405SOL    HW2 1962   5.089   3.220   4.305  0.7622 -0.9400 -1.2406
  406SOL     OW 1963   3.522   2.735   3.176 -0.0148  0.2895  0.0010
  406SOL    HW1 1964   3.495   2.700   3.261  0.9986  1.1165  0.6857
  406SOL    HW2 1965   3.616   2.749   3.184 -0.2847  2.6507 -0.4135
  407SOL     OW 1966   4.210   2.919   4.753  0.6525  0.2483 -0.6506
  407SOL    HW1 1967   4.166   2.979   4.692  1.4935  0.4921 -1.0276
  407SOL    HW2 1968   4.283   2.883   4.703 -0.7243 -2.3391 -0.9741
  408SOL     OW 1969   4.157   2.430   1.948 -0.0213 -0.9414  0.8979
  408SOL    HW1 1970   4.067   2.461   1.951 -0.9322 -3.2088 -0.7925
  408SOL    HW2 1971   4.208   2.504   1.982 -2.1155  1.9009 -1.5950
  409SOL     OW 1972   2.672   3.334   4.214 -0.4173 -0.3427  0.8153
  409SOL    HW1 1973   2.614   3.408   4.232  0.2658  0.5443 -0.4981
  409SOL    HW2 1974   2.760   3.369   4.227 -0.1014 -1.1662  0.9573
  410SOL     OW 1975   6.199   6.201   0.103 -0.0317 -0.0365 -0.0527
  410SOL    HW1 1976   6.275   6.203   0.161  0.1179 -1.9867 -0.1067
  410SOL    HW2 1977   6.229   6.239   0.021  1.1208 -1.4230 -0.3011
  411SOL     OW 1978   3.710   0.918   3.270  0.0118 -0.4601 -0.6035
  411SOL    HW1 1979   3.745   0.984   3.330 -0.1220 -0.9623  0.0370
  411SOL    HW2 1980   3.695   0.841   3.325 -3.8164  0.2424 -0.4056
  412SOL     OW 1981   3.203   0.924   3.772  0.4174  0.2161 -0.7192
  412SOL    HW1 1982   3.235   0.888   3.689  2.8584 -1.3175  0.7390
  412SOL    HW2 1983   3.149   0.855   3.809  1.1440 -0.0281 -0.0823
  413SOL     OW 1984   0.614   5.084   5.497 -0.4330 -0.2595 -0.4750
  413SOL    HW1 1985   0.663   5.165   5.482 -0.1279 -0.4413 -0.4681
  413SOL    HW2 1986   0.605   5.045   5.410  1.2855 -1.2841 -0.2282
  414SOL     OW 1987   3.647   5.875   2.530 -0.4472  0.8997  0.2611
  414SOL    HW1 1988   3.678   5.787   2.550  1.4990  1.5502  0.2949
  414SOL    HW2 1989   3.594   5.899   2.607 -0.2641  0.1054  0.6468
  415SOL     OW 1990   3.427   6.014   5.710 -0.1559  0.0506 -0.7548
  415SOL    HW1 1991   3.513   6.044   5.680  0.5527 -0.7118  0.4199
  415SOL    HW2 1992   3.411   5.932   5.663  0.4768 -0.5976  0.1198
  416SOL     OW 1993   0.705   1.681   1.360  1.3606  0.4629  0.4862
  416SOL    HW1 1994   0.634   1.649   1.416  1.5368  1.3012  1.2047
  416SOL    HW2 1995   0.661   1.711   1.280  1.0996 -0.6458  0.1874
  417SOL     OW 1996   4.264   2.804   5.432  0.6403 -0.0628 -0.5123
  417SOL    HW1 1997   4.198   2.845   5.489  0.0841 -1.2312 -0.2963
  417SOL    HW2 1998   4.323   2.876   5.410  0.9825  0.4073  1.6706
  418SOL     OW 1999   0.517   5.845   5.934  0.0324  0.0284 -0.0518
  418SOL    HW1 2000   0.569   5.768   5.911  0.1375  0.1151 -0.1007
  418SOL    HW2 2001   0.426   5.814   5.930  0.0739 -0.0867 -0.0957
  419SOL     OW 2002   5.521   4.076   0.494 -0.3876  0.1033  0.1587
  419SOL    HW1 2003   5.444   4.086   0.438  0.9130 -0.0926 -1.7859
  419SOL    HW2 2004   5.589   4.129   0.451  0.6488  0.0179  1.6266
  420SOL     OW 2005   3.016   5.115   5.693  0.4372 -0.6233  0.7459
  420SOL    HW1 2006   3.109   5.137   5.688  0.2272  0.7522  1.9768
  420SOL    HW2 2007   3.014   5.022   5.715  1.5205 -0.6773  0.6577
  421SOL     OW 2008   0.241   3.692   3.155 -0.2804 -0.7642  0.2144
  421SOL    HW1 2009   0.214   3.628   3.220 -0.3495 -0.3666  0.5822
  421SOL    HW2 2010   0.318   3.734   3.193 -0.9412  0.1971  0.5110
  422SOL     OW 2011   3.506   3.467   0.338 -0.1924  0.0284 -0.1762
  422SOL    HW1 2012   3.583   3.469   0.282 -0.7682  1.4659 -0.9851
  422SOL    HW2 2013   3.438   3.429   0.283 -0.6256  0.9438 -0.3020
  423SOL     OW 2014   0.764   5.111   5.875  0.0955  0.0083  0.0588
  423SOL    HW1 2015   0.670   5.102   5.887  0.0795  0.4517  0.2858
  423SOL    HW2 2016   0.775   5.198   5.837  0.3814 -0.2110 -0.3667
  424SOL     OW 2017   2.552   2.088   5.821 -0.0028 -0.1682  0.7958
  424SOL    HW1 2018   2.515   2.038   5.894 -0.2726 -1.2882 -0.0743
  424SOL    HW2 2019   2.640   2.052   5.811  0.1917  0.2890  0.8394
  425SOL     OW 2020   0.154   5.309   0.652 -0.1660 -0.0866 -0.4343
  425SOL    HW1 2021   0.063   5.308   0.623 -0.7979 -1.9768  1.3354
  425SOL    HW2 2022   0.148   5.311   0.748  1.6667 -0.0410 -0.2928
  426SOL     OW 2023   5.927   2.686   3.445 -0.3558 -0.5495  0.1275
  426SOL    HW1 2024   5.946   2.593   3.437  2.4951 -0.1780  1.4274
  426SOL    HW2 2025   5.953   2.723   3.360 -0.2641 -0.7644  0.0617
  427SOL     OW 2026   1.977   1.299   4.416 -0.6656  0.0445  0.2261
  427SOL    HW1 2027   1.934   1.382   4.434 -0.5296  0.2448 -0.3834
  427SOL    HW2 2028   1.961   1.282   4.324  1.7856  0.8577 -0.4311
  428SOL     OW 2029   4.990   1.652   1.353 -0.3780  0.1840  0.3942
  428SOL    HW1 2030   4.919   1.618   1.408 -0.1850 -0.9486 -0.0226
  428SOL    HW2 2031   4.952   1.659   1.265  0.4268 -2.0527 -0.2097
  429SOL     OW 2032   2.294   4.564   5.195 -0.0973  0.0074  0.2626
  429SOL    HW1 2033   2.280   4.644   5.246 -0.0841 -1.3576  2.5677
  429SOL    HW2 2034   2.209   4.548   5.153 -0.4156  0.6871  0.6140
  430SOL     OW 2035   2.594   2.688   5.841  0.5697  0.0320  0.5368
  430SOL    HW1 2036   2.648   2.756   5.802 -2.6461  1.0462 -2.7452
  430SOL    HW2 2037   2.618   2.608   5.794 -0.1582  0.3342 -0.3894
  431SOL     OW 2038   0.983   3.875   3.982 -0.1244 -0.3329  0.0025
  431SOL    HW1 2039   1.049   3.806   3.971  0.0869 -0.1131 -0.1229
  431SOL    HW2 2040   0.954   3.865   4.073 -1.1630 -1.5247 -0.4276
  432SOL     OW 2041   3.681   3.893   0.485 -0.3970  0.3488 -0.2390
  432SOL    HW1 2042   3.645   3.924   0.402 -0.5779  1.3398  0.1943
  432SOL    HW2 2043   3.761   3.944   0.498 -0.5778  0.4876  0.3777
  433SOL     OW 2044   3.558   6.209   6.154 -0.5088  0.8008 -0.0428
  433SOL    HW1 2045   3.610   6.290   6.148  0.5307  0.2611  1.2187
  433SOL    HW2 2046   3.496   6.215   6.081 -1.2827  3.3091  0.7313
  434SOL     OW 2047   5.006   4.262   6.284  0.4426  0.0469 -0.3032
  434SOL    HW1 2048   4.938   4.286   6.221 -0.9872 -0.6552  0.8983
  434SOL    HW2 2049   5.028   4.172   6.263 -0.2197 -0.2754  0.2953
  435SOL     OW 2050   0.010   0.933   4.669  0.1423  0.4614  0.0964
  435SOL    HW1 2051   0.007   1.021   4.707 -0.1498 -0.0062  1.1820
  435SOL    HW2 2052  -0.082   0.908   4.659  0.2294 -0.0353  0.5341
  436SOL     OW 2053   1.299   0.886   4.756  0.1981  0.0157 -0.6852
  436SOL    HW1 2054   1.355   0.883   4.833  3.6791 -1.4010 -3.0302
  436SOL    HW2 2055   1.302   0.978   4.728  0.7801  0.0981 -0.3651
  437SOL     OW 2056   5.455   0.350   3.015 -0.4035  0.1731 -0.1744
  437SOL    HW1 2057   5.547   0.351   3.044 -0.2947 -0.7078 -0.4820
  437SOL    HW2 2058   5.437   0.258   2.994 -1.9029 -0.0150  1.6379
  438SOL     OW 2059   4.027   0.570   3.659  0.2749 -0.3335  0.0088
  438SOL    HW1 2060   3.962   0.502   3.672 -1.0981  1.1259  1.2028
  438SOL    HW2 2061   3.979   0.643   3.620  1.7844 -0.1384 -1.6004
  439SOL     OW 2062   0.756   5.764   5.247 -0.0247 -0.6612  0.1096
  439SOL    HW1 2063   0.807   5.732   5.321  1.9993 -1.6742 -1.6344
  439SOL    HW2 2064   0.778   5.857   5.241  0.1974 -0.6917  0.4609
  440SOL     OW 2065   5.338   5.664   2.057  0.0665  0.3664  0.0893
  440SOL    HW1 2066   5.269   5.730   2.050  0.0605  0.3962  0.3935
  440SOL    HW2 2067   5.324   5.606   1.982  1.3863  1.9272 -1.4451
  441SOL     OW 2068   1.631   5.248   6.300  0.5223 -0.1554  0.1996
  441SOL    HW1 2069   1.697   5.183   6.274  1.7130  0.8030  0.7256
  441SOL    HW2 2070   1.595   5.215   6.382  1.0008 -0.2463  0.3758
  442SOL     OW 2071   2.567   0.990   2.992  0.2071 -0.0569  0.1109
  442SOL    HW1 2072   2.580   1.021   3.081  0.3248  1.1300 -0.3050
  442SOL    HW2 2073   2.496   0.926   2.999  1.2045 -1.0799  1.2595
  443SOL     OW 2074   3.338   5.327   1.062 -0.1798  0.4487 -0.6857
  443SOL    HW1 2075   3.338   5.253   1.123  0.1735  1.9746  1.2613
  443SOL    HW2 2076   3.245   5.344   1.046 -0.2725 -1.0024 -1.9965
  444SOL     OW 2077   0.810   1.199   3.740  0.0726  0.2624 -0.4230
  444SOL    HW1 2078   0.817   1.148   3.659 -0.3815 -0.3042 -0.1119
  444SOL    HW2 2079   0.776   1.137   3.804  0.4922  0.6964  0.2201
  445SOL     OW 2080   0.979   0.339   0.459  0.2260  0.0468  0.0745
  445SOL    HW1 2081   0.981   0.380   0.545 -1.5053  3.0272 -1.1084
  445SOL    HW2 2082   0.889   0.306   0.450  0.2160  0.2554 -0.7417
  446SOL     OW 2083   1.457   4.388   0.182 -0.1600  0.3849  0.7386
  446SOL    HW1 2084   1.453   4.316   0.118 -0.7645 -0.5409  1.7747
  446SOL    HW2 2085   1.373   4.384   0.228  0.7507  0.1173  2.4981
  447SOL     OW 2086   1.004   2.736   0.493  0.0892  0.1144  0.3653
  447SOL    HW1 2087   0.985   2.739   0.587  0.7217  0.3149  0.4927
  447SOL    HW2 2088   0.920   2.754   0.451 -0.2038 -0.0088  0.8942
  448SOL     OW 2089   4.242   0.920   2.564  0.6057 -0.0512 -0.4788
  448SOL    HW1 2090   4.232   0.915   2.469  0.1078  1.2130 -0.5122
  448SOL    HW2 2091   4.153   0.919   2.598  0.4810  3.6597 -0.3231
  449SOL     OW 2092   0.515   3.060   0.529  0.0282  0.0682  0.0196
  449SOL    HW1 2093   0.473   3.009   0.459 -0.8187 -0.3790  0.8379
  449SOL    HW2 2094   0.532   3.145   0.490 -0.2744 -0.2336 -0.7905
  450SOL     OW 2095   3.324   5.568   3.141  0.4182 -0.1217 -0.2037
  450SOL    HW1 2096   3.247   5.539   3.092  1.0020 -2.4572  0.1776
  450SOL    HW2 2097   3.398   5.528   3.096  1.3090  0.9269  0.2819
  451SOL     OW 2098   1.656   3.049   0.094 -0.8934 -0.2345 -0.0185
  451SOL    HW1 2099   1.689   3.044   0.184  0.6925  0.2505 -0.5459
  451SOL    HW2 2100   1.606   2.968   0.083  0.8262 -1.4607  0.5953
  452SOL     OW 2101   3.125   3.620   3.622  0.0062  0.4319  0.4018
  452SOL    HW1 2102   3.199   3.639   3.564 -0.4508  2.7599  0.4984
  452SOL    HW2 2103   3.048   3.641   3.569 -0.5404 -0.5690  0.7865
  453SOL     OW 2104   5.872   3.720   4.757 -0.3443  0.1365 -0.1730
  453SOL    HW1 2105   5.859   3.631   4.726  2.2066 -0.4122  0.1262
  453SOL    HW2 2106   5.907   3.768   4.682 -1.1595  0.7481 -0.1735
  454SOL     OW 2107   2.022   5.846   0.785  0.2426  0.3902 -0.0012
  454SOL    HW1 2108   2.084   5.838   0.858 -0.4736 -2.4931  0.4126
  454SOL    HW2 2109   1.952   5.784   0.807 -0.0847 -0.4448 -3.0355
  455SOL     OW 2110   5.838   0.420   1.303 -0.2710 -0.1085 -0.0631
  455SOL    HW1 2111   5.783   0.488   1.342  0.4728 -0.4445  1.6423
  455SOL    HW2 2112   5.918   0.421   1.355  1.3735  0.2906 -2.4043
  456SOL     OW 2113   1.286   3.418   3.883 -0.4800  0.3504 -0.4643
  456SOL    HW1 2114   1.220   3.474   3.924 -0.3425  0.2533 -0.1094
  456SOL    HW2 2115   1.339   3.387   3.956 -0.5554 -0.2439 -0.6626
  457SOL     OW 2116   4.118   1.298   4.184 -0.5278 -0.6372 -0.0929
  457SOL    HW1 2117   4.090   1.265   4.098 -0.0994 -0.4329 -0.3136
  457SOL    HW2 2118   4.037   1.314   4.231 -0.7609 -1.5513 -0.1543
  458SOL     OW 2119   4.819   4.444   2.940  0.5557  0.1501 -0.4113
  458SOL    HW1 2120   4.822   4.538   2.920 -0.7801  0.0802 -1.0308
  458SOL    HW2 2121   4.741   4.434   2.996  0.4843 -0.6379 -0.6480
  459SOL     OW 2122   2.188   4.963   3.641 -0.3079  0.1718  0.2703
  459SOL    HW1 2123   2.163   5.056   3.645 -0.0130  0.3252 -0.9109
  459SOL    HW2 2124   2.132   4.920   3.705 -2.0150  0.8397 -0.7008
  460SOL     OW 2125   2.795   4.722   5.926 -0.0953  0.3156 -0.1732
  460SOL    HW1 2126   2.885   4.708   5.953 -0.1455 -1.1756 -0.6932
  460SOL    HW2 2127   2.757   4.776   5.995  1.2212  1.0865 -0.0232
  461SOL     OW 2128   3.785   0.462   4.911  0.8495  0.1313  0.7777
  461SOL    HW1 2129   3.754   0.371   4.904 -1.3584  0.9129 -0.7668
  461SOL    HW2 2130   3.844   0.472   4.836  0.9715  0.0299  0.8587
  462SOL     OW 2131   4.782   0.997   1.986  0.1965  0.3688  0.1505
  462SOL    HW1 2132   4.805   0.952   1.905 -0.9297  0.8329 -0.4437
  462SOL    HW2 2133   4.736   0.931   2.038 -0.4154  0.4854 -0.2305
  463SOL     OW 2134   1.400   3.708   3.293 -0.3745  0.3651 -0.2118
  463SOL    HW1 2135   1.334   3.774   3.316 -0.2715  0.6634 -0.7479
  463SOL    HW2 2136   1.414   3.659   3.374 -0.8943  0.6143  0.0363
  464SOL     OW 2137   6.198   3.329   0.742  0.5734  0.1953  0.1807
  464SOL    HW1 2138   6.198   3.307   0.835  0.4773  0.8984  0.3493
  464SOL    HW2 2139   6.193   3.244   0.698 -0.9405 -0.0796  0.8267
  465SOL     OW 2140   5.273   2.754   6.078 -0.0958  0.2150 -0.2066
  465SOL    HW1 2141   5.305   2.702   6.152 -1.1176  0.1267  0.1896
  465SOL    HW2 2142   5.218   2.821   6.118  1.0258  1.4966 -0.7284
  466SOL     OW 2143   0.813   0.743   4.953  0.0005  1.0675 -0.3287
  466SOL    HW1 2144   0.883   0.737   4.888  0.1777  2.6218 -0.3183
  466SOL    HW2 2145   0.776   0.655   4.958 -1.2812  1.2717 -3.9092
  467SOL     OW 2146   2.313   0.090   0.911 -0.5293  0.2217  0.0152
  467SOL    HW1 2147   2.312  -0.006   0.912  0.6958  0.1823 -0.4526
  467SOL    HW2 2148   2.369   0.114   0.985 -2.2461  0.6617  1.2394
  468SOL     OW 2149   6.146   6.232   5.952 -0.3712  0.3023  0.0013
  468SOL    HW1 2150   6.083   6.296   5.986 -1.5339  0.2417 -1.9047
  468SOL    HW2 2151   6.099   6.189   5.881  2.0621  0.7488 -1.9832
  469SOL     OW 2152   1.000   5.360   0.763 -0.3590 -0.5878 -0.4207
  469SOL    HW1 2153   1.073   5.299   0.756  0.3392 -0.1682  2.2417
  469SOL    HW2 2154   1.038   5.441   0.796 -1.7752  0.2601 -0.7543
  470SOL     OW 2155   2.796   2.093   1.298 -0.5696  0.2147 -0.6031
  470SOL    HW1 2156   2.737   2.128   1.366  0.7391 -0.5556  0.9990
  470SOL    HW2 2157   2.809   2.002   1.322  1.7308  0.4984 -0.5281
  471SOL     OW 2158   0.504   4.849   1.896  0.3690 -0.1829  0.4055
  471SOL    HW1 2159   0.496   4.821   1.805 -1.0939 -0.4452  0.5884
  471SOL    HW2 2160   0.518   4.767   1.945 -0.1845 -0.1926  0.5517
  472SOL     OW 2161   0.880   0.485   2.585 -0.3392 -0.0071  0.2068
  472SOL    HW1 2162   0.802   0.540   2.591 -0.3588 -0.0077 -0.0636
  472SOL    HW2 2163   0.943   0.527   2.644 -0.6966 -0.2613  0.7895
  473SOL     OW 2164   4.811   5.422   0.078 -0.3238  0.7500 -0.2669
  473SOL    HW1 2165   4.768   5.493   0.029  0.6325  1.5860  0.0609
  473SOL    HW2 2166   4.904   5.443   0.072 -0.0326 -0.4420 -0.0760
  474SOL     OW 2167   0.041   0.019   3.782  0.0191  0.2285  0.2784
  474SOL    HW1 2168   0.137   0.017   3.787  0.1552  1.8198 -0.9884
  474SOL    HW2 2169   0.014  -0.064   3.822  2.0060 -1.3081 -1.3194
  475SOL     OW 2170   0.521   5.301   4.895 -0.7200 -0.1329 -0.9653
  475SOL    HW1 2171   0.512   5.368   4.963 -1.1565 -0.7593 -0.4005
  475SOL    HW2 2172   0.533   5.219   4.943  1.0233 -0.3152 -1.6598
  476SOL     OW 2173   5.723   0.790   6.003 -0.0613 -0.2282  0.5646
  476SOL    HW1 2174   5.651   0.792   5.940  1.7719 -0.1392 -1.6895
  476SOL    HW2 2175   5.777   0.866   5.980 -1.0240  1.9483  4.6045
  477SOL     OW 2176   2.074   0.611   5.444 -0.0998 -0.0967  0.5425
  477SOL    HW1 2177   2.161   0.615   5.484  0.5880  1.3907 -0.9728
  477SOL    HW2 2178   2.041   0.701   5.451 -0.8525 -0.2976 -0.2923
  478SOL     OW 2179   4.316   2.457   3.311 -0.8004  0.2210  0.5917
  478SOL    HW1 2180   4.303   2.391   3.379 -0.7511  0.2379  0.6174
  478SOL    HW2 2181   4.397   2.501   3.335  0.0227 -0.7629 -0.2739
  479SOL     OW 2182   1.413   3.733   1.558 -0.3290  0.2638  0.1545
  479SOL    HW1 2183   1.319   3.722   1.575 -0.2140 -0.2885  0.4676
  479SOL    HW2 2184   1.420   3.734   1.463 -0.5133 -1.0526  0.1088
  480SOL     OW 2185   5.748   0.897   1.340  0.2076  0.0791 -0.3496
  480SOL    HW1 2186   5.660   0.902   1.376 -0.4468 -1.8853 -1.5468
  480SOL    HW2 2187   5.800   0.857   1.410  0.2666  1.4936  0.4627
  481SOL     OW 2188   1.112   0.019   5.668  0.4026 -0.2757  0.3054
  481SOL    HW1 2189   1.044   0.052   5.727 -0.0694 -0.8020  0.0691
  481SOL    HW2 2190   1.169  -0.034   5.724  0.8183  0.4260  0.5670
  482SOL     OW 2191   4.971   5.862   3.530 -0.2121 -0.0015 -0.0450
  482SOL    HW1 2192   4.966   5.957   3.528  0.0045 -0.0061 -2.1072
  482SOL    HW2 2193   4.920   5.837   3.608 -1.4822  1.7034 -0.2861
  483SOL     OW 2194   3.929   3.420   4.575  0.3263  0.1078  0.2406
  483SOL    HW1 2195   3.917   3.350   4.511  1.2938 -0.1273  0.2978
  483SOL    HW2 2196   4.022   3.444   4.567  0.2770  0.5936  1.0240
  484SOL     OW 2197   5.937   4.740   0.239  0.8563  1.3555 -0.1579
  484SOL    HW1 2198   5.895   4.824   0.257 -0.4601  0.9542 -1.1874
  484SOL    HW2 2199   5.981   4.753   0.156 -0.2022  0.7691 -0.8397
  485SOL     OW 2200   5.006   1.272   1.424 -0.2012  0.1848  0.1720
  485SOL    HW1 2201   4.997   1.263   1.519 -2.8481  1.6868  0.1616
  485SOL    HW2 2202   4.920   1.247   1.389  0.4442  0.4833 -1.7759
  486SOL     OW 2203   4.406   5.615   3.536  0.2481  0.0295  0.3515
  486SOL    HW1 2204   4.344   5.680   3.569 -2.0590 -1.1824 -1.3220
  486SOL    HW2 2205   4.360   5.532   3.542  1.0730 -0.7258 -2.3716
  487SOL     OW 2206   3.059   1.091   5.671 -0.3131  0.2448 -0.5416
  487SOL    HW1 2207   3.065   1.050   5.757  0.9322  0.0776 -0.6834
  487SOL    HW2 2208   2.967   1.082   5.646 -0.3263 -1.3300 -0.0137
  488SOL     OW 2209   1.838   2.427   5.579  0.4341  0.0727 -0.6844
  488SOL    HW1 2210   1.929   2.400   5.566  0.1433 -0.7002 -1.2179
  488SOL    HW2 2211   1.788   2.345   5.575 -0.2246  0.4034  0.2664
  489SOL     OW 2212   5.002   2.256   4.925  0.0263  0.0031 -0.0348
  489SOL    HW1 2213   4.975   2.293   5.008 -1.9982  2.7531 -1.7545
  489SOL    HW2 2214   5.098   2.259   4.927 -0.0078  1.4389  1.5909
  490SOL     OW 2215   1.290   0.576   5.897 -0.1496  0.0787 -0.4087
  490SOL    HW1 2216   1.360   0.525   5.857 -0.2896  0.4775 -1.1810
  490SOL    HW2 2217   1.231   0.597   5.825  0.6731  2.6325 -0.4260
  491SOL     OW 2218   3.272   6.134   1.520  0.4770  0.4550 -0.1188
  491SOL    HW1 2219   3.265   6.051   1.567  1.9876  0.7054  0.5989
  491SOL    HW2 2220   3.248   6.113   1.430  1.7402 -0.9772 -0.1591
  492SOL     OW 2221   4.062   0.632   2.390 -0.2695  0.3885 -0.2296
  492SOL    HW1 2222   4.025   0.675   2.468 -0.9598  0.9196 -0.8351
  492SOL    HW2 2223   4.059   0.700   2.322  1.4371  0.3128 -0.4124
  493SOL     OW 2224   2.118   1.719   4.516 -0.0241  0.2511  0.5337
  493SOL    HW1 2225   2.191   1.780   4.500 -1.5454  1.7189 -1.2128
  493SOL    HW2 2226   2.071   1.716   4.433 -2.9864  0.7627  2.0457
  494SOL     OW 2227   1.240   3.766   0.389  0.1103 -0.2648 -0.1642
  494SOL    HW1 2228   1.221   3.792   0.299 -0.1934  2.8047  0.6943
  494SOL    HW2 2229   1.203   3.678   0.396 -2.2043  0.4022 -2.3013
  495SOL     OW 2230   3.326   5.179   0.818  0.1882 -0.4456  0.1839
  495SOL    HW1 2231   3.238   5.192   0.783  0.9019  0.5607 -1.3518
  495SOL    HW2 2232   3.330   5.235   0.896 -0.6035 -0.6868  0.3992
  496SOL     OW 2233   0.925   3.040   3.965  0.1671 -0.4097  0.6163
  496SOL    HW1 2234   1.006   3.064   3.919 -0.0121 -0.0096  0.5125
  496SOL    HW2 2235   0.855   3.060   3.903 -0.0184 -0.6951  0.7313
  497SOL     OW 2236   1.757   2.221   5.938  0.1494  0.0373 -0.0613
  497SOL    HW1 2237   1.707   2.236   6.018  0.7715  0.4114  0.2650
  497SOL    HW2 2238   1.701   2.163   5.885 -0.8317  0.8098  0.0863
  498SOL     OW 2239   2.691   5.152   1.619  0.6228  0.1520  0.0575
  498SOL    HW1 2240   2.770   5.192   1.582  0.0374 -0.7625 -2.3471
  498SOL    HW2 2241   2.631   5.143   1.545 -1.1488 -0.6574  1.4974
  499SOL     OW 2242   3.725   4.218   1.780 -0.2776  0.2177 -0.3201
  499SOL    HW1 2243   3.819   4.223   1.793 -0.3812  0.8795  0.2290
  499SOL    HW2 2244   3.698   4.137   1.825  0.1853 -0.6431 -1.5404
  500SOL     OW 2245   1.826   6.141   0.320  0.4114 -0.2094 -0.1973
  500SOL    HW1 2246   1.919   6.138   0.342  0.6350  0.2851 -1.0607
  500SOL    HW2 2247   1.816   6.217   0.263 -0.6098  0.0204  0.2612
  501SOL     OW 2248   5.162   1.449   4.570 -0.0113  0.1761  0.5441
  501SOL    HW1 2249   5.187   1.453   4.478 -1.8745 -0.1212 -0.0167
  501SOL    HW2 2250   5.071   1.478   4.571  0.8634  3.3882  2.7400
  502SOL     OW 2251   4.058   3.889   0.235  0.2251 -0.4841  0.0197
  502SOL    HW1 2252   4.040   3.941   0.314  0.9102 -1.0503  0.5691
  502SOL    HW2 2253   3.995   3.818   0.238 -0.2759 -0.0601 -0.3763
  503SOL     OW 2254   1.915   5.143   0.217  0.1859 -0.7782  0.0106
  503SOL    HW1 2255   2.006   5.120   0.195  0.0396 -2.9336  1.2696
  503SOL    HW2 2256   1.864   5.114   0.142  0.6034  1.8598 -1.3931
  504SOL     OW 2257   4.763   5.836   4.360 -0.4871  0.4877 -0.1495
  504SOL    HW1 2258   4.842   5.834   4.414 -0.1967 -0.2658 -0.5738
  504SOL    HW2 2259   4.762   5.923   4.320  0.8010  0.1008 -1.0899
  505SOL     OW 2260   5.781   1.397   1.973  0.1631 -0.1525  0.6697
  505SOL    HW1 2261   5.806   1.460   1.905 -0.2126 -0.6914  0.0153
  505SOL    HW2 2262   5.687   1.382   1.958 -0.2503  0.7758  2.1933
  506SOL     OW 2263   4.497   2.434   6.212 -0.8276 -0.4821 -0.8177
  506SOL    HW1 2264   4.469   2.523   6.233  0.9266  0.0588 -0.5387
  506SOL    HW2 2265   4.508   2.433   6.117 -1.7028 -0.6827 -0.9209
  507SOL     OW 2266   6.107   2.192   1.045 -1.1191  0.1836 -0.2710
  507SOL    HW1 2267   6.105   2.284   1.070  0.6715 -0.5698  3.2679
  507SOL    HW2 2268   6.199   2.167   1.055 -1.4715 -1.9266 -1.6637
  508SOL     OW 2269   3.609   4.545   2.747 -0.5873  0.3635  0.2183
  508SOL    HW1 2270   3.699   4.574   2.764 -0.7119  0.5209  0.6101
  508SOL    HW2 2271   3.555   4.623   2.757 -0.8160  0.1872  0.3896
  509SOL     OW 2272   5.526   2.088   3.204  0.4302 -0.3122  0.6397
  509SOL    HW1 2273   5.555   2.110   3.293 -0.1908  0.4975  0.6543
  509SOL    HW2 2274   5.586   2.135   3.146 -0.6697  1.1996  0.6685
  510SOL     OW 2275   3.238   1.031   4.181  0.5858  0.4888  0.0732
  510SOL    HW1 2276   3.174   0.960   4.174 -0.4318  1.3542  0.4013
  510SOL    HW2 2277   3.241   1.050   4.275 -0.2154  1.8210 -0.1492
  511SOL     OW 2278   0.693   4.592   1.151 -0.4449 -0.6096 -0.3792
  511SOL    HW1 2279   0.777   4.622   1.117 -0.7794 -0.3638 -1.0028
  511SOL    HW2 2280   0.704   4.593   1.246 -0.2701  1.0347 -0.3797
  512SOL     OW 2281   0.103   5.082   3.638  0.2931  1.2327 -0.7889
  512SOL    HW1 2282   0.055   5.056   3.717 -1.7335  0.0892 -2.2782
  512SOL    HW2 2283   0.057   5.160   3.608  1.1317  1.7316 -0.7770
  513SOL     OW 2284   3.939   5.303   1.641 -0.6168 -0.2535  0.1719
  513SOL    HW1 2285   4.032   5.285   1.630 -0.6558 -0.4398  0.1395
  513SOL    HW2 2286   3.927   5.319   1.734 -1.0012 -2.8750  0.6561
  514SOL     OW 2287   1.140   5.676   1.333  0.2895  0.7182 -0.5276
  514SOL    HW1 2288   1.222   5.724   1.346  0.4649  1.6221 -4.0510
  514SOL    HW2 2289   1.088   5.731   1.275 -1.9358 -0.8448 -0.1580
  515SOL     OW 2290   5.579   1.463   5.334  0.0441  0.3085  0.5005
  515SOL    HW1 2291   5.638   1.490   5.263 -1.9846 -0.8666 -1.8137
  515SOL    HW2 2292   5.546   1.545   5.370 -0.7803  1.0410 -1.7108
  516SOL     OW 2293   6.228   1.060   5.855  0.0906  0.1635 -0.0203
  516SOL    HW1 2294   6.248   0.999   5.785 -0.6275  0.8506 -0.8487
  516SOL    HW2 2295   6.314   1.090   5.886  0.4972 -1.8079  0.9533
  517SOL     OW 2296   5.461   3.356   3.099 -0.0437  0.5114 -0.5707
  517SOL    HW1 2297   5.371   3.377   3.074 -0.3296 -1.1648 -1.1135
  517SOL    HW2 2298   5.452   3.295   3.172  0.5684 -1.1187 -1.8066
  518SOL     OW 2299   2.906   2.819   4.563  0.0796 -0.1628 -0.3074
  518SOL    HW1 2300   2.938   2.729   4.559  2.0422  0.4271  0.7965
  518SOL    HW2 2301   2.849   2.820   4.640 -2.3755 -1.0965 -1.9956
  519SOL     OW 2302   6.045   5.522   5.934  0.0789 -0.0268 -0.0320
  519SOL    HW1 2303   5.961   5.484   5.958  0.7055 -1.0689  0.5699
  519SOL    HW2 2304   6.022   5.601   5.885 -1.2413 -0.0511  0.5027
  520SOL     OW 2305   2.873   4.554   1.191 -0.2280 -0.6125  0.5942
  520SOL    HW1 2306   2.923   4.472   1.188 -0.7707 -0.9257 -0.7441
  520SOL    HW2 2307   2.783   4.526   1.208 -0.2699 -0.2163  1.0219
  521SOL     OW 2308   2.266   0.305   1.789 -0.1535 -0.4165 -0.5552
  521SOL    HW1 2309   2.274   0.399   1.772 -0.9312  0.0394  1.3860
  521SOL    HW2 2310   2.344   0.267   1.748  1.3557  1.3624  0.4955
  522SOL     OW 2311   0.880   2.319   4.945 -0.2751  0.0660  0.2933
  522SOL    HW1 2312   0.949   2.383   4.961  2.0376 -1.8501 -1.3632
  522SOL    HW2 2313   0.821   2.364   4.883  1.7219  0.4308 -1.4743
  523SOL     OW 2314   0.034   1.331   5.305  0.2845  0.0461 -0.3579
  523SOL    HW1 2315   0.069   1.407   5.258 -1.1956  2.1052  1.5995
  523SOL    HW2 2316  -0.060   1.346   5.308 -0.1360 -2.2808 -0.4895
  524SOL     OW 2317   4.429   3.047   1.850  0.0743 -0.4135  1.1555
  524SOL    HW1 2318   4.449   3.139   1.834 -0.4047 -0.3218  1.0580
  524SOL    HW2 2319   4.376   3.021   1.774 -0.3748 -0.5761  1.5196
  525SOL     OW 2320   6.258   2.113   6.300 -0.1756 -0.0072 -0.0248
  525SOL    HW1 2321   6.248   2.179   6.369  0.6052 -2.3085  2.4450
  525SOL    HW2 2322   6.184   2.128   6.242  0.3766  3.4811 -0.0645
  526SOL     OW 2323   3.608   3.635   2.266  0.3583 -0.4675  0.0115
  526SOL    HW1 2324   3.674   3.623   2.334  0.5505 -0.7080 -0.2146
  526SOL    HW2 2325   3.654   3.684   2.197 -0.2823  1.2289  0.7348
  527SOL     OW 2326   3.651   0.841   3.804  0.1807 -0.4374 -0.2624
  527SOL    HW1 2327   3.668   0.900   3.730  0.0974  0.7732  0.6371
  527SOL    HW2 2328   3.599   0.895   3.864  1.3784 -0.9328  1.2750
  528SOL     OW 2329   5.443   0.003   6.292  0.6844 -0.3676 -0.1641
  528SOL    HW1 2330   5.479  -0.086   6.287 -0.7290 -0.9661 -0.0618
  528SOL    HW2 2331   5.353  -0.009   6.321  0.3949  1.0917 -0.3835
  529SOL     OW 2332   3.200   3.527   1.048  0.0910 -0.2067  0.3144
  529SOL    HW1 2333   3.125   3.569   1.006 -1.8560 -2.2462  1.5443
  529SOL    HW2 2334   3.211   3.445   0.999  0.0585 -0.9627  1.5512
  530SOL     OW 2335   2.663   2.118   1.910 -1.1228  0.1660 -0.3882
  530SOL    HW1 2336   2.691   2.140   1.999 -1.6600 -1.0014  0.0927
  530SOL    HW2 2337   2.714   2.176   1.854 -0.3183  0.4911  0.6456
  531SOL     OW 2338   0.089   2.752   5.080  0.3163 -0.2629 -0.2221
  531SOL    HW1 2339   0.139   2.797   5.148 -0.0708  0.9876 -0.7413
  531SOL    HW2 2340   0.003   2.793   5.082  0.3974  0.0289 -1.6789
  532SOL     OW 2341   4.778   4.724   3.759 -0.0146 -0.1784  0.1341
  532SOL    HW1 2342   4.793   4.817   3.739 -0.5128 -0.2241 -0.4874
  532SOL    HW2 2343   4.688   4.708   3.729 -0.8914 -0.2232  2.5525
  533SOL     OW 2344   3.646   5.426   6.107 -0.6070 -0.7144 -0.3582
  533SOL    HW1 2345   3.632   5.344   6.153 -1.3343  0.6233  1.9643
  533SOL    HW2 2346   3.666   5.489   6.176 -2.3473  1.5550 -1.7690
  534SOL     OW 2347   0.481   2.003   3.009 -0.3430 -0.4648  0.4797
  534SOL    HW1 2348   0.547   2.052   2.961 -1.2775  1.7449  1.3091
  534SOL    HW2 2349   0.450   1.937   2.947  0.5866  0.3626 -0.9088
  535SOL     OW 2350   4.833   6.239   1.658 -0.1268 -0.2325  0.2409
  535SOL    HW1 2351   4.836   6.145   1.675  0.2748 -0.2466  0.0952
  535SOL    HW2 2352   4.784   6.248   1.577  1.6385 -0.4783 -0.9024
  536SOL     OW 2353   6.162   4.539   4.025  0.1853 -0.5269  0.0312
  536SOL    HW1 2354   6.135   4.609   3.966  0.5140  0.5480  1.1074
  536SOL    HW2 2355   6.106   4.465   4.003 -2.1155  0.9349  0.6904
  537SOL     OW 2356   2.503   6.146   2.042 -0.2728 -0.2853  0.3660
  537SOL    HW1 2357   2.567   6.106   1.983 -0.7936 -1.3927  0.5283
  537SOL    HW2 2358   2.424   6.158   1.988 -0.0207  0.9029  0.2170
  538SOL     OW 2359   6.037   2.337   4.808 -0.1625 -0.1012 -0.7767
  538SOL    HW1 2360   6.047   2.430   4.829 -1.2887 -0.2980  0.8153
  538SOL    HW2 2361   6.126   2.307   4.790  0.9683  0.3424  3.0343
  539SOL     OW 2362   5.808   6.198   2.054  0.2924 -0.0189 -0.2175
  539SOL    HW1 2363   5.854   6.186   1.971  0.8047 -0.7401  0.1544
  539SOL    HW2 2364   5.772   6.111   2.074 -0.8971  0.4406 -0.2999
  540SOL     OW 2365   3.308   2.853   3.027  0.0094 -0.1411  0.1061
  540SOL    HW1 2366   3.387   2.817   3.067 -1.0069 -1.9134  0.6615
  540SOL    HW2 2367   3.237   2.819   3.081 -1.1740  0.7060 -0.8766
  541SOL     OW 2368   3.744   1.832   3.759  0.6858  0.3474  0.2387
  541SOL    HW1 2369   3.696   1.901   3.712  0.6852  0.2110  0.0365
  541SOL    HW2 2370   3.799   1.791   3.692  2.3089  1.5571  0.7821
  542SOL     OW 2371   2.787   3.124   1.744  0.7322 -0.0455  0.0087
  542SOL    HW1 2372   2.751   3.202   1.703  0.1024 -0.1961  0.2549
  542SOL    HW2 2373   2.812   3.067   1.671 -1.5236 -0.8336 -0.2301
  543SOL     OW 2374   0.429   1.043   4.477 -0.2751  0.2806  0.4424
  543SOL    HW1 2375   0.438   0.981   4.405 -2.3090 -0.1164  0.4801
  543SOL    HW2 2376   0.366   1.002   4.536  0.2457  1.2654  1.7244
  544SOL     OW 2377   2.862   0.780   6.237  0.1110  0.1135  0.0163
  544SOL    HW1 2378   2.781   0.782   6.288 -0.1960  0.1107 -0.4632
  544SOL    HW2 2379   2.873   0.869   6.205 -0.4330 -0.1608 -1.0224
  545SOL     OW 2380   4.535   5.014   4.175 -0.1767  0.1379  0.0308
  545SOL    HW1 2381   4.482   4.972   4.243 -0.4354  1.0757  0.4301
  545SOL    HW2 2382   4.489   5.095   4.155 -0.2847 -0.2781 -1.5299
  546SOL     OW 2383   0.900   5.308   3.416 -0.3359  0.3268  1.1915
  546SOL    HW1 2384   0.888   5.214   3.433  0.1267  0.4184  2.0791
  546SOL    HW2 2385   0.913   5.346   3.503  0.7963  1.0278  0.7287
  547SOL     OW 2386   1.705   0.634   1.386  0.2497 -0.2172  0.3745
  547SOL    HW1 2387   1.799   0.616   1.387  1.0023  3.0196  1.0758
  547SOL    HW2 2388   1.698   0.725   1.416 -2.9609  0.2941 -1.4533
  548SOL     OW 2389   0.360   0.477   0.556  0.1557 -0.6050 -0.0925
  548SOL    HW1 2390   0.268   0.505   0.552  0.5335  0.6396 -0.9956
  548SOL    HW2 2391   0.372   0.445   0.645 -0.7826  0.6244  0.5128
  549SOL     OW 2392   5.247   3.033   4.654 -0.2183 -0.3033  0.1245
  549SOL    HW1 2393   5.317   2.984   4.611 -0.4618  0.7144 -1.5383
  549SOL    HW2 2394   5.254   3.121   4.617  0.0533  0.9047  2.8172
  550SOL     OW 2395   2.070   4.780   3.817  0.0841  0.3911  0.4566
  550SOL    HW1 2396   2.131   4.712   3.844 -0.6773 -0.7206 -0.5358
  550SOL    HW2 2397   1.998   4.774   3.880  1.1168  2.0011  1.9057
  551SOL     OW 2398   5.760   4.010   5.888  0.5074 -0.1412  0.6604
  551SOL    HW1 2399   5.782   3.997   5.980  0.3074 -1.4701  0.5300
  551SOL    HW2 2400   5.819   4.080   5.859 -0.0575  0.9608  2.0218
  552SOL     OW 2401   1.832   0.636   2.766  0.5962  1.0161  0.4040
  552SOL    HW1 2402   1.753   0.681   2.796  0.6883  0.0653  2.2509
  552SOL    HW2 2403   1.799   0.564   2.711  0.2458  1.2045  0.3638
  553SOL     OW 2404   1.214   1.630   5.243 -0.2571  0.1988 -0.1623
  553SOL    HW1 2405   1.254   1.629   5.330  0.4533  0.0257 -0.4822
  553SOL    HW2 2406   1.211   1.723   5.220  0.2953  0.1925 -0.2788
  554SOL     OW 2407   0.987   1.780   5.630 -0.0776  0.3093  0.6013
  554SOL    HW1 2408   0.929   1.728   5.574  0.2102 -0.2144  0.7816
  554SOL    HW2 2409   0.944   1.780   5.715 -0.2601  0.6814  0.5134
  555SOL     OW 2410   4.637   2.574   2.250 -0.1021 -0.4335  0.1444
  555SOL    HW1 2411   4.577   2.640   2.284  0.3373 -0.2017  0.4716
  555SOL    HW2 2412   4.580   2.506   2.214 -0.6025 -1.1170  2.1263
  556SOL     OW 2413   5.303   0.197   0.624  0.1611 -0.5863  0.3222
  556SOL    HW1 2414   5.276   0.139   0.695  0.4184 -0.0321  0.8934
  556SOL    HW2 2415   5.364   0.258   0.666  0.8868 -0.7039 -0.5431
  557SOL     OW 2416   4.854   0.498   5.932  0.0177 -0.0893  0.2208
  557SOL    HW1 2417   4.897   0.552   5.865 -0.5117  0.3447  0.2296
  557SOL    HW2 2418   4.776   0.548   5.957 -0.8871 -1.2030 -0.3170
  558SOL     OW 2419   4.830   0.020   0.335 -0.1936 -0.1214  0.6627
  558SOL    HW1 2420   4.838  -0.075   0.330  2.4237  0.0764 -1.0972
  558SOL    HW2 2421   4.915   0.049   0.369 -0.0870  1.6471 -0.9244
  559SOL     OW 2422   4.147   5.211   6.262  0.2826  0.0656 -0.5134
  559SOL    HW1 2423   4.217   5.148   6.246  2.8639  1.5271  3.3926
  559SOL    HW2 2424   4.078   5.160   6.305  0.3517 -0.8265 -1.4357
  560SOL     OW 2425   0.235   3.559   5.118  0.2562 -0.0015  0.7239
  560SOL    HW1 2426   0.280   3.624   5.064  0.1272 -1.1137 -0.7660
  560SOL    HW2 2427   0.145   3.590   5.122  0.2401  0.0232  0.2071
  561SOL     OW 2428   0.025   2.347   4.467 -0.5783  0.2392 -0.3807
  561SOL    HW1 2429   0.048   2.256   4.486 -0.3931  0.1379 -1.0374
  561SOL    HW2 2430   0.024   2.390   4.552 -1.2065 -0.4962  0.0005
  562SOL     OW 2431   5.916   2.773   3.147  0.3443 -0.1948 -0.2212
  562SOL    HW1 2432   5.831   2.815   3.138 -0.6301 -1.8551  0.7097
  562SOL    HW2 2433   5.927   2.723   3.066  0.4633  0.0702 -0.3686
  563SOL     OW 2434   1.701   4.108   5.116 -0.3311  0.3437  0.1900
  563SOL    HW1 2435   1.671   4.056   5.042  1.7561  0.1671 -0.5884
  563SOL    HW2 2436   1.793   4.084   5.127 -0.1705  1.5445  1.8397
  564SOL     OW 2437   0.268   1.078   5.430 -0.0044 -0.0068  0.3368
  564SOL    HW1 2438   0.278   1.091   5.336  0.4812 -0.8631  0.2627
  564SOL    HW2 2439   0.295   0.988   5.445 -2.6078 -0.7594  0.9298
  565SOL     OW 2440   1.724   3.967   5.640  0.1823 -0.2313 -0.7658
  565SOL    HW1 2441   1.789   4.036   5.645 -0.0286 -0.0447 -0.5773
  565SOL    HW2 2442   1.703   3.960   5.547 -1.0235  1.1176 -0.6214
  566SOL     OW 2443   4.567   0.147   5.971  0.2429 -0.2184  0.3003
  566SOL    HW1 2444   4.648   0.193   5.994  0.9036 -0.1812 -1.8723
  566SOL    HW2 2445   4.507   0.216   5.943  0.7521 -0.4674 -1.5782
  567SOL     OW 2446   0.706   1.401   0.216  0.1673 -0.4528  0.3846
  567SOL    HW1 2447   0.643   1.461   0.177  0.0934 -0.8722 -0.1661
  567SOL    HW2 2448   0.653   1.339   0.266  0.1449 -0.7211  0.0365
  568SOL     OW 2449   5.623   1.035   4.149  0.0693 -0.0330 -0.0569
  568SOL    HW1 2450   5.653   1.019   4.239 -1.0528 -0.5095  0.2589
  568SOL    HW2 2451   5.595   0.948   4.118  0.7660  0.0694 -0.9959
  569SOL     OW 2452   5.954   0.270   0.044  0.1133  1.0193  0.1652
  569SOL    HW1 2453   5.982   0.188   0.084  1.2037  0.9299 -0.7271
  569SOL    HW2 2454   5.882   0.301   0.099 -0.2848 -0.5084  0.5410
  570SOL     OW 2455   4.185   4.439   0.042 -0.0122 -0.3726  0.3452
  570SOL    HW1 2456   4.142   4.472  -0.037 -0.2530 -2.3580 -0.4304
  570SOL    HW2 2457   4.114   4.428   0.105  0.0493  0.3969  0.5616
  571SOL     OW 2458   5.109   4.510   0.970 -0.0055  0.1129  0.1875
  571SOL    HW1 2459   5.191   4.531   0.925 -0.5185  0.0604 -0.7999
  571SOL    HW2 2460   5.129   4.521   1.063  1.0000  0.5179 -0.0655
  572SOL     OW 2461   3.507   0.363   1.806 -0.0508  0.2114 -0.0033
  572SOL    HW1 2462   3.449   0.297   1.769  2.1356 -1.6011 -0.4407
  572SOL    HW2 2463   3.461   0.395   1.883 -2.4591  0.3384 -1.3728
  573SOL     OW 2464   3.346   0.269   0.321  0.5068 -0.2821 -0.0558
  573SOL    HW1 2465   3.347   0.330   0.248  1.8947  0.1739  0.3031
  573SOL    HW2 2466   3.427   0.219   0.312  1.0029  0.1843  1.4728
  574SOL     OW 2467   5.386   6.162   6.002 -0.3384 -0.1971  0.1173
  574SOL    HW1 2468   5.368   6.113   6.082  1.0556  1.7001  1.7040
  574SOL    HW2 2469   5.326   6.237   6.006 -0.3192 -0.1345 -0.6688
  575SOL     OW 2470   5.046   0.454   2.126 -0.2324 -0.1536  0.1228
  575SOL    HW1 2471   5.052   0.362   2.102  1.4662  0.2194 -1.0462
  575SOL    HW2 2472   4.999   0.495   2.053  0.9824  0.2428 -0.4661
  576SOL     OW 2473   4.303   4.753   5.400 -0.7499  0.1099  0.5398
  576SOL    HW1 2474   4.262   4.817   5.459 -0.0053 -0.4889  1.7478
  576SOL    HW2 2475   4.244   4.749   5.325 -0.8927  2.1002  0.4865
  577SOL     OW 2476   0.391   4.408   1.425  0.4908  0.2775 -0.2540
  577SOL    HW1 2477   0.308   4.421   1.469  0.8229  0.5953  0.2954
  577SOL    HW2 2478   0.378   4.332   1.369 -0.0369  0.0674  0.1532
  578SOL     OW 2479   4.003   6.151   1.888 -0.0207 -0.4738  0.0115
  578SOL    HW1 2480   3.993   6.134   1.981 -1.5340 -0.2498 -0.0926
  578SOL    HW2 2481   4.045   6.072   1.854  0.3620 -0.6394  0.8417
  579SOL     OW 2482   3.225   4.204   4.928  0.4109 -0.1902  0.1802
  579SOL    HW1 2483   3.225   4.180   5.021  1.0106 -1.2624 -0.0783
  579SOL    HW2 2484   3.314   4.236   4.912  0.5306 -0.6955 -0.1849
  580SOL     OW 2485   1.391   5.737   1.088 -0.2226 -0.2928  0.2062
  580SOL    HW1 2486   1.362   5.809   1.033  2.0276 -0.3292 -1.1343
  580SOL    HW2 2487   1.377   5.768   1.178 -1.2649  0.9173 -0.3464
  581SOL     OW 2488   3.820   2.264   0.234  0.5169  0.3263 -0.3031
  581SOL    HW1 2489   3.905   2.301   0.255  1.4178 -0.5195 -2.2467
  581SOL    HW2 2490   3.838   2.193   0.173 -1.6100  0.4455 -1.1795
  582SOL     OW 2491   2.714   2.588   5.166  0.0107 -0.4885 -0.1279
  582SOL    HW1 2492   2.783   2.649   5.138  0.1167  0.3074  1.7524
  582SOL    HW2 2493   2.643   2.602   5.103  1.0015 -0.2718 -1.2333
  583SOL     OW 2494   1.771   0.858   1.537  0.4127 -0.1755 -0.4743
  583SOL    HW1 2495   1.698   0.901   1.581 -0.4978 -0.7047 -1.4140
  583SOL    HW2 2496   1.822   0.818   1.607 -0.4863 -0.2323  0.1569
  584SOL     OW 2497   2.875   4.313   4.249 -0.5844  0.0950  0.9787
  584SOL    HW1 2498   2.795   4.363   4.267 -1.2181 -0.8784  0.9165
  584SOL    HW2 2499   2.922   4.365   4.184 -2.3011 -0.4412 -0.7916
  585SOL     OW 2500   5.218   4.315   0.682 -0.4827  0.0392  0.2964
  585SOL    HW1 2501   5.251   4.374   0.614 -1.2091 -0.5357 -0.5787
  585SOL    HW2 2502   5.281   4.323   0.753 -0.2054  1.3618 -0.0653
  586SOL     OW 2503   0.353   4.201   4.162 -0.1088 -0.3978 -0.1537
  586SOL    HW1 2504   0.351   4.118   4.210 -0.4655 -0.6434 -0.5849
  586SOL    HW2 2505   0.444   4.210   4.133  0.3809  0.3133  1.5192
  587SOL     OW 2506   2.586   0.494   3.330  0.0776 -0.0631  0.1880
  587SOL    HW1 2507   2.639   0.514   3.253 -2.1552  1.3665 -1.0888
  587SOL    HW2 2508   2.611   0.405   3.354  0.8402 -0.5563 -2.2004
  588SOL     OW 2509   5.578   2.535   3.435 -0.3124  0.1238 -0.0150
  588SOL    HW1 2510   5.515   2.489   3.380  0.5672 -0.9645 -0.1345
  588SOL    HW2 2511   5.551   2.515   3.525 -0.2901 -0.1361 -0.0650
  589SOL     OW 2512   4.245   3.047   2.795  0.0016  0.2738  0.3213
  589SOL    HW1 2513   4.204   3.131   2.772  1.4324  0.7002 -0.8760
  589SOL    HW2 2514   4.254   3.050   2.890  0.9472  1.9690  0.2263
  590SOL     OW 2515   5.703   5.952   2.088 -0.0141 -0.6940  0.0895
  590SOL    HW1 2516   5.678   5.923   2.175 -1.6275  1.8481  0.5903
  590SOL    HW2 2517   5.655   5.895   2.028 -0.5732 -1.1103  0.9185
  591SOL     OW 2518   4.240   5.784   2.076  0.0375  0.0972  0.6483
  591SOL    HW1 2519   4.153   5.818   2.053  0.3612 -0.0484 -0.8820
  591SOL    HW2 2520   4.290   5.861   2.101 -0.0957  0.3943  0.0304
  592SOL     OW 2521   0.047   4.332   3.805 -0.3496  0.1083 -0.6301
  592SOL    HW1 2522   0.116   4.400   3.803  0.3359 -0.5836 -1.7034
  592SOL    HW2 2523   0.075   4.272   3.874 -0.3268  0.2796 -0.4890
  593SOL     OW 2524   3.194   4.683   4.974 -0.3900 -0.1916  0.0700
  593SOL    HW1 2525   3.257   4.626   5.019  1.0005  1.1618 -0.1008
  593SOL    HW2 2526   3.109   4.647   4.999  0.3980 -1.3720  1.2568
  594SOL     OW 2527   0.303   3.851   2.523 -0.3967  0.5210  0.1412
  594SOL    HW1 2528   0.220   3.876   2.564 -0.4849  0.5515 -0.0566
  594SOL    HW2 2529   0.360   3.829   2.597 -0.7168  0.0803  0.2634
  595SOL     OW 2530   0.359   0.585   6.249 -0.7091  0.0179 -0.4019
  595SOL    HW1 2531   0.371   0.541   6.164  1.2039 -0.0876 -0.1260
  595SOL    HW2 2532   0.298   0.529   6.297 -1.3909 -0.2062 -1.4893
  596SOL     OW 2533   1.666   0.113   5.875  0.8224 -0.3667 -0.5144
  596SOL    HW1 2534   1.631   0.120   5.786  2.0218  0.0796 -0.9811
  596SOL    HW2 2535   1.593   0.081   5.927 -0.1547  0.1721 -1.4986
  597SOL     OW 2536   0.033   5.852   0.275 -0.0286 -0.0204  0.3654
  597SOL    HW1 2537  -0.020   5.814   0.346 -0.7999 -2.6042 -1.4709
  597SOL    HW2 2538  -0.029   5.864   0.203  0.6496  2.9870  0.1541
  598SOL     OW 2539   2.973   1.091   3.319 -0.7331 -0.6590 -0.6726
  598SOL    HW1 2540   2.932   1.091   3.406 -0.5296  0.4487 -0.5701
  598SOL    HW2 2541   3.050   1.035   3.330 -1.1898 -1.2461 -0.3782
  599SOL     OW 2542   5.869   5.005   1.518  0.3065  0.3581 -0.4977
  599SOL    HW1 2543   5.795   5.063   1.499  0.3818  0.2826 -1.0527
  599SOL    HW2 2544   5.855   4.978   1.608  0.7332  1.9140  0.0692
  600SOL     OW 2545   5.963   1.075   4.551 -0.3192 -0.0892  0.3809
  600SOL    HW1 2546   6.013   1.142   4.597  3.2017 -0.5175 -2.3329
  600SOL    HW2 2547   5.966   0.998   4.608 -2.4687  1.3007  2.5174
  601SOL     OW 2548   1.561   3.298   5.959 -0.2251  0.2269  0.5722
  601SOL    HW1 2549   1.471   3.310   5.990 -1.5749 -0.9416 -2.5421
  601SOL    HW2 2550   1.588   3.214   5.994 -1.2541 -0.5050 -0.3407
  602SOL     OW 2551   2.687   4.694   5.642  0.3795  0.1708 -0.2578
  602SOL    HW1 2552   2.769   4.733   5.613  1.2107 -0.7874  0.7272
  602SOL    HW2 2553   2.708   4.651   5.725 -1.0637 -0.2744 -0.0913
  603SOL     OW 2554   2.733   3.582   5.147 -0.0730  0.0690  0.5207
  603SOL    HW1 2555   2.751   3.638   5.071  0.2209  0.9137  1.1926
  603SOL    HW2 2556   2.758   3.636   5.222 -2.3960  0.1077  1.3542
  604SOL     OW 2557   0.793   6.170   6.183 -0.4862  0.4398  0.1054
  604SOL    HW1 2558   0.725   6.137   6.124  0.6303  1.5576 -1.9219
  604SOL    HW2 2559   0.866   6.109   6.173 -0.0925  0.9344 -0.1329
  605SOL     OW 2560   2.952   2.538   2.719 -0.6618  0.1778  0.6894
  605SOL    HW1 2561   2.945   2.571   2.809 -1.1816  0.6728  0.4708
  605SOL    HW2 2562   2.868   2.497   2.701 -1.0464  1.2374 -0.0179
  606SOL     OW 2563   4.233   4.671   3.953 -0.3555  0.1416  0.2524
  606SOL    HW1 2564   4.207   4.597   4.008  3.1559 -1.2311  0.3075
  606SOL    HW2 2565   4.249   4.742   4.015 -0.1028 -0.2219  0.6060
  607SOL     OW 2566   3.713   4.022   1.994  0.3665 -0.1589  0.4851
  607SOL    HW1 2567   3.687   4.075   2.070  0.9350  0.3976  0.2919
  607SOL    HW2 2568   3.717   3.933   2.028 -0.0729 -0.0138  0.9403
  608SOL     OW 2569   1.202   0.532   2.202  0.3296  0.7564  0.2796
  608SOL    HW1 2570   1.171   0.443   2.186  1.8912  0.1771  0.3267
  608SOL    HW2 2571   1.126   0.587   2.184 -0.8365 -0.6067  0.7831
  609SOL     OW 2572   0.104   0.521   0.617 -0.3467 -0.0469 -0.2393
  609SOL    HW1 2573   0.034   0.582   0.594 -0.3436  0.4447  0.9810
  609SOL    HW2 2574   0.060   0.439   0.640 -0.5042  0.1555  0.1850
  610SOL     OW 2575   0.708   5.733   2.898  0.1272 -0.1895 -0.1628
  610SOL    HW1 2576   0.767   5.758   2.827  0.5881 -0.2147  0.2032
  610SOL    HW2 2577   0.706   5.810   2.955  0.8323 -0.6478  0.4942
  611SOL     OW 2578   2.744   6.187   2.607  0.3309 -0.4256 -0.6192
  611SOL    HW1 2579   2.825   6.223   2.644 -0.1165 -0.2359  0.1842
  611SOL    HW2 2580   2.674   6.231   2.654 -0.2464 -2.3178  0.3935
  612SOL     OW 2581   3.276   5.205   5.609  0.2226 -0.1531  0.4937
  612SOL    HW1 2582   3.245   5.194   5.519 -0.5174  1.0486  0.5867
  612SOL    HW2 2583   3.285   5.299   5.620  0.2888 -0.2868  1.6996
  613SOL     OW 2584   0.487   1.430   4.167  0.4524  0.1157  0.1683
  613SOL    HW1 2585   0.481   1.451   4.073  1.0449 -2.0069 -0.3925
  613SOL    HW2 2586   0.408   1.379   4.185 -0.3369  1.6308  1.1847
  614SOL     OW 2587   5.743   0.298   0.512  0.0541 -0.0987 -0.3749
  614SOL    HW1 2588   5.736   0.222   0.570 -0.8158  0.3626  0.1437
  614SOL    HW2 2589   5.836   0.301   0.488 -0.1419 -2.2849 -1.7339
  615SOL     OW 2590   2.439   3.368   1.288  0.0873  0.2502 -0.0954
  615SOL    HW1 2591   2.354   3.343   1.324 -0.4992  1.5475 -0.5260
  615SOL    HW2 2592   2.493   3.388   1.364 -1.1621  3.0324  0.1815
  616SOL     OW 2593   2.187   0.833   2.412  0.1499 -0.0101 -0.2751
  616SOL    HW1 2594   2.244   0.757   2.424  1.2823  0.7880 -0.4108
  616SOL    HW2 2595   2.104   0.807   2.452  0.9703 -0.7765  1.0073
  617SOL     OW 2596   5.166   5.735   4.092  0.5323 -0.2537  0.1673
  617SOL    HW1 2597   5.229   5.807   4.085  0.7428 -0.5493 -1.2227
  617SOL    HW2 2598   5.193   5.673   4.025 -0.9525 -0.6105 -0.1320
  618SOL     OW 2599   4.696   4.986   5.032 -0.4060 -0.7053 -0.1253
  618SOL    HW1 2600   4.762   4.918   5.021  1.3416  1.0902 -1.4477
  618SOL    HW2 2601   4.636   4.974   4.959 -0.2998 -1.0140 -0.1632
  619SOL     OW 2602   1.344   0.430   3.615  0.0588 -0.8676 -0.5390
  619SOL    HW1 2603   1.337   0.504   3.555 -1.8326  0.9668  1.7625
  619SOL    HW2 2604   1.436   0.429   3.642 -0.0200  1.2365 -0.0100
  620SOL     OW 2605   4.156   5.155   3.560 -0.2915  0.5408 -0.0190
  620SOL    HW1 2606   4.213   5.118   3.493 -0.6921  2.0922 -1.2659
  620SOL    HW2 2607   4.094   5.084   3.579  0.4700 -0.2803 -0.5207
  621SOL     OW 2608   2.942   2.076   0.318 -0.3166  0.1509 -0.3197
  621SOL    HW1 2609   2.959   2.034   0.234 -3.8450 -0.4763 -0.9026
  621SOL    HW2 2610   3.007   2.146   0.323  0.5230 -0.2643 -3.2231
  622SOL     OW 2611   4.775   2.137   5.847  0.5219 -0.8016 -0.0203
  622SOL    HW1 2612   4.727   2.088   5.914 -0.9841 -0.1025 -0.5209
  622SOL    HW2 2613   4.751   2.095   5.765 -1.7890  1.3546 -0.5996
  623SOL     OW 2614   6.141   0.317   4.777 -0.3713 -0.0068  0.0437
  623SOL    HW1 2615   6.161   0.223   4.782 -0.6330 -0.0354  0.5888
  623SOL    HW2 2616   6.114   0.330   4.686  0.2492 -0.3426 -0.1928
  624SOL     OW 2617   1.433   3.916   0.977 -0.4823 -0.5979  0.1549
  624SOL    HW1 2618   1.416   3.836   1.026 -1.5534  0.2948  1.3226
  624SOL    HW2 2619   1.356   3.928   0.922 -0.1953 -0.5217 -0.2361
  625SOL     OW 2620   3.806   1.289   5.709  0.6332 -0.6970 -0.6863
  625SOL    HW1 2621   3.864   1.360   5.735  0.2387 -1.0472  1.2936
  625SOL    HW2 2622   3.724   1.332   5.683  1.2495 -0.2996 -2.0682
  626SOL     OW 2623   0.661   5.591   0.982 -0.3909  0.2508 -0.1406
  626SOL    HW1 2624   0.735   5.530   0.983 -0.5686  0.0349 -0.1074
  626SOL    HW2 2625   0.591   5.544   1.027 -0.7148  0.2446 -0.6426
  627SOL     OW 2626   4.161   1.773   4.249  0.1347 -0.8892 -0.1321
  627SOL    HW1 2627   4.169   1.796   4.342  2.3909  2.2376 -0.9324
  627SOL    HW2 2628   4.068   1.783   4.229 -0.4794 -2.0907  1.8233
  628SOL     OW 2629   3.789   5.786   4.065  0.3959 -0.1918 -0.3326
  628SOL    HW1 2630   3.735   5.798   4.143  0.2479 -1.3825 -0.2374
  628SOL    HW2 2631   3.752   5.709   4.022  0.6311  0.3121 -1.4518
  629SOL     OW 2632   2.373   5.803   2.660 -0.1802  0.4308 -0.2740
  629SOL    HW1 2633   2.460   5.786   2.696  0.3377  2.8696 -0.2078
  629SOL    HW2 2634   2.389   5.857   2.582 -1.5681 -0.3948 -1.1812
  630SOL     OW 2635   3.100   5.322   0.132 -0.2745  0.2069  0.4244
  630SOL    HW1 2636   3.053   5.268   0.196  0.5310  0.1013  0.9292
  630SOL    HW2 2637   3.156   5.260   0.086 -0.3546  0.3979  0.0704
  631SOL     OW 2638   0.152   4.936   4.714  0.3757 -0.1658 -0.6068
  631SOL    HW1 2639   0.096   4.858   4.708  0.1403 -0.0836  0.2539
  631SOL    HW2 2640   0.092   5.007   4.737  0.5488  0.3352 -1.6723
  632SOL     OW 2641   5.253   3.841   2.595 -0.1975  0.4149 -0.0228
  632SOL    HW1 2642   5.299   3.852   2.679 -1.1903  0.0867  0.5848
  632SOL    HW2 2643   5.284   3.757   2.562 -0.4783  0.1091  0.4734
  633SOL     OW 2644   3.770   4.917   3.271 -0.2202 -0.1508 -0.0468
  633SOL    HW1 2645   3.787   4.856   3.343 -0.2220 -0.9619 -0.7102
  633SOL    HW2 2646   3.812   4.998   3.297  0.7476 -0.7673  0.3633
  634SOL     OW 2647   1.437   0.810   3.696 -1.1004 -0.6829 -0.0863
  634SOL    HW1 2648   1.514   0.791   3.749  0.1716 -0.6292 -1.8159
  634SOL    HW2 2649   1.377   0.855   3.755  0.0575 -0.9986  1.3838
  635SOL     OW 2650   3.986   2.451   4.941 -0.5384  0.6537 -0.2145
  635SOL    HW1 2651   4.039   2.413   5.011 -1.0187  1.1288  0.4172
  635SOL    HW2 2652   3.900   2.464   4.980 -0.8122  0.9485 -0.8915
  636SOL     OW 2653   6.261   4.738   4.355 -0.5128  0.3948  0.3967
  636SOL    HW1 2654   6.325   4.675   4.385 -1.0322  0.6947  2.2288
  636SOL    HW2 2655   6.205   4.689   4.295  0.6299 -0.1908 -0.2127
  637SOL     OW 2656   2.526   5.083   2.299 -0.4036  0.0049  0.2477
  637SOL    HW1 2657   2.543   5.086   2.393 -0.2028  2.7448  0.1840
  637SOL    HW2 2658   2.607   5.048   2.261  0.2839  0.8079  0.9463
  638SOL     OW 2659   0.618   2.024   0.660 -0.0451  0.5414 -0.3977
  638SOL    HW1 2660   0.657   2.107   0.689  3.3152 -0.9808 -0.1529
  638SOL    HW2 2661   0.656   2.008   0.574 -0.0394 -1.0896 -0.1216
  639SOL     OW 2662   1.827   5.136   4.407 -1.0640 -0.1159 -0.1098
  639SOL    HW1 2663   1.825   5.182   4.490  1.4149  0.1775 -0.1418
  639SOL    HW2 2664   1.864   5.050   4.427  0.5140  0.3049 -0.9813
  640SOL     OW 2665   2.790   4.260   2.149  0.1737 -0.2806 -0.1854
  640SOL    HW1 2666   2.846   4.329   2.113 -2.0115  1.4739 -0.4594
  640SOL    HW2 2667   2.821   4.179   2.109  1.3616  0.8609 -1.6584
  641SOL     OW 2668   4.798   6.211   5.257  0.1654  0.5523 -0.5945
  641SOL    HW1 2669   4.858   6.284   5.275 -0.3132  0.7437  0.2148
  641SOL    HW2 2670   4.730   6.217   5.324  1.0969 -1.7334  0.6798
  642SOL     OW 2671   3.888   1.012   5.758  0.4607 -0.1689 -0.0869
  642SOL    HW1 2672   3.966   1.015   5.703  1.1253  2.1370  0.8721
  642SOL    HW2 2673   3.838   1.090   5.733 -0.6035 -0.5848  0.6643
  643SOL     OW 2674   0.419   2.502   2.557  0.1501  0.3933 -0.2033
  643SOL    HW1 2675   0.353   2.504   2.488 -0.0116  1.5161 -0.0266
  643SOL    HW2 2676   0.449   2.593   2.565  0.6434  0.1638  0.7487
  644SOL     OW 2677   5.186   3.357   4.009  0.1081 -0.1831  0.2880
  644SOL    HW1 2678   5.142   3.414   3.946  0.0266 -1.0534 -0.4697
  644SOL    HW2 2679   5.181   3.404   4.092  0.3361  1.0493 -0.3762
  645SOL     OW 2680   1.728   4.675   4.334 -0.3367  0.1065  0.2880
  645SOL    HW1 2681   1.698   4.765   4.321  1.4397  0.7977  0.7168
  645SOL    HW2 2682   1.793   4.681   4.404 -0.7388 -1.6400  0.8606
  646SOL     OW 2683   3.015   4.494   2.862 -0.2546 -0.0163  0.3209
  646SOL    HW1 2684   2.927   4.473   2.891 -0.4724 -0.3157 -0.5188
  646SOL    HW2 2685   3.066   4.501   2.943 -1.1818  0.8511  0.8532
  647SOL     OW 2686   2.580   2.437   4.318 -0.5876  0.3983 -0.7488
  647SOL    HW1 2687   2.661   2.390   4.304 -0.9827 -0.2760 -0.7964
  647SOL    HW2 2688   2.594   2.523   4.277 -0.1482  0.0440 -1.3468
  648SOL     OW 2689   1.139   2.573   6.061 -0.4195 -0.4923  0.6710
  648SOL    HW1 2690   1.219   2.602   6.105 -1.6724  1.8989  1.5298
  648SOL    HW2 2691   1.076   2.561   6.132 -2.5313  3.5840 -0.1866
  649SOL     OW 2692   5.420   4.402   3.592 -0.3447 -0.9469 -0.4545
  649SOL    HW1 2693   5.465   4.472   3.639  0.5269 -2.1976  0.6430
  649SOL    HW2 2694   5.425   4.429   3.500  1.2887 -0.2674 -0.2195
  650SOL     OW 2695   0.589   0.772   2.549 -0.2386  0.6049 -0.1365
  650SOL    HW1 2696   0.641   0.786   2.470 -0.6998  0.1096 -0.5426
  650SOL    HW2 2697   0.513   0.829   2.538 -1.8247 -1.5914 -1.5168
  651SOL     OW 2698   5.593   2.758   0.030 -0.5614 -0.0329 -0.4872
  651SOL    HW1 2699   5.584   2.853   0.033 -0.0687  0.0129 -0.4198
  651SOL    HW2 2700   5.553   2.728   0.111 -1.3535  0.0612 -0.8343
  652SOL     OW 2701   5.140   0.505   6.082 -0.1448  0.5834 -0.3435
  652SOL    HW1 2702   5.048   0.498   6.109 -0.0924  0.9086 -0.0640
  652SOL    HW2 2703   5.189   0.468   6.156 -0.0735 -0.0873 -0.7222
  653SOL     OW 2704   0.705   3.019   1.462 -0.4420 -0.3230 -0.2470
  653SOL    HW1 2705   0.797   3.000   1.445 -0.4267 -1.5808  1.0094
  653SOL    HW2 2706   0.706   3.105   1.504  0.1265 -0.1933 -0.5173
  654SOL     OW 2707   3.400   2.084   3.919 -0.0086 -0.4727 -0.1805
  654SOL    HW1 2708   3.425   1.995   3.946 -1.3222 -0.2602  1.9845
  654SOL    HW2 2709   3.476   2.138   3.941 -0.4252 -0.5830  1.6792
  655SOL     OW 2710   5.053   0.254   0.958 -0.1936 -0.5082 -0.6580
  655SOL    HW1 2711   4.972   0.278   1.003 -0.3075 -2.5709  0.3380
  655SOL    HW2 2712   5.027   0.247   0.866 -0.8538  0.0203 -0.5261
  656SOL     OW 2713   5.994   3.279   5.166 -0.3997  0.0615  0.1759
  656SOL    HW1 2714   6.028   3.255   5.080  1.0917  0.5895  0.5975
  656SOL    HW2 2715   5.917   3.333   5.148 -0.6456 -0.5917 -0.8002
  657SOL     OW 2716   2.635   4.443   1.175 -0.9524 -0.2369 -0.0783
  657SOL    HW1 2717   2.575   4.387   1.125 -0.6662 -0.7962  0.1875
  657SOL    HW2 2718   2.625   4.414   1.265 -0.4775 -0.1640  0.0012
  658SOL     OW 2719   0.072   4.719   1.778  0.4228  0.3816  0.2417
  658SOL    HW1 2720   0.051   4.625   1.777  1.5323  0.1200  0.1501
  658SOL    HW2 2721   0.136   4.729   1.848  0.5766  1.0126  0.0182
  659SOL     OW 2722   0.828   1.783   4.678 -0.2073 -0.0238  0.2172
  659SOL    HW1 2723   0.886   1.858   4.669 -3.0253  2.1712 -1.3194
  659SOL    HW2 2724   0.794   1.769   4.589 -1.7765 -1.4048  0.9825
  660SOL     OW 2725   5.115   2.566   5.058 -0.3263  0.3754 -0.0724
  660SOL    HW1 2726   5.177   2.495   5.038  0.2164  1.2169 -1.5546
  660SOL    HW2 2727   5.171   2.639   5.085 -0.9141  0.0924  2.1129
  661SOL     OW 2728   6.299   3.105   1.307 -0.1300 -0.4209 -0.7905
  661SOL    HW1 2729   6.234   3.146   1.364 -0.1186  1.9080 -2.3010
  661SOL    HW2 2730   6.275   3.132   1.219  2.2300 -0.3571 -1.5048
  662SOL     OW 2731   0.778   4.359   0.589 -0.3246  0.9797 -0.5006
  662SOL    HW1 2732   0.859   4.340   0.543  1.2121 -0.3670  2.5084
  662SOL    HW2 2733   0.754   4.277   0.631 -0.4618  2.4991  2.7003
  663SOL     OW 2734   0.239   3.922   1.595 -0.2134  0.3084 -0.0442
  663SOL    HW1 2735   0.155   3.892   1.560 -0.2872  0.5437 -0.0698
  663SOL    HW2 2736   0.220   4.009   1.631  0.3375  0.9995 -1.3496
  664SOL     OW 2737   4.207   1.760   4.520  0.1816  0.3498  0.5651
  664SOL    HW1 2738   4.207   1.675   4.563  1.4457  0.7985  1.4981
  664SOL    HW2 2739   4.292   1.799   4.542 -0.0732  1.5593 -0.4376
  665SOL     OW 2740   1.463   1.760   6.254 -0.1624 -0.0634 -0.3370
  665SOL    HW1 2741   1.483   1.713   6.173 -0.4687 -0.8199  0.0134
  665SOL    HW2 2742   1.544   1.757   6.304 -0.3227 -0.6962 -0.0968
  666SOL     OW 2743   3.782   0.823   6.085 -0.2651  0.2375  0.4480
  666SOL    HW1 2744   3.717   0.814   6.016 -1.7818  0.7302  1.7364
  666SOL    HW2 2745   3.744   0.887   6.145  1.1630  0.1057  1.5539
  667SOL     OW 2746   3.670   5.184   0.968 -0.3460  0.0178  0.1421
  667SOL    HW1 2747   3.599   5.192   1.030  1.0294  1.7261  1.6176
  667SOL    HW2 2748   3.688   5.274   0.940  0.5011 -0.4884 -1.0662
  668SOL     OW 2749   5.205   3.712   1.725  0.0349  0.3095  0.2954
  668SOL    HW1 2750   5.178   3.778   1.789  0.4310  1.1588 -0.4069
  668SOL    HW2 2751   5.293   3.739   1.699  0.9186 -1.4500  1.2643
  669SOL     OW 2752   0.180   6.248   4.064  0.1739  0.5532  0.2564
  669SOL    HW1 2753   0.147   6.167   4.102 -0.2529  0.8206  0.4623
  669SOL    HW2 2754   0.131   6.317   4.108  0.7221  0.9390  0.2715
  670SOL     OW 2755   5.378   0.989   3.669 -0.2752  0.4413 -0.2458
  670SOL    HW1 2756   5.324   0.973   3.746  0.0601 -1.8130 -0.4082
  670SOL    HW2 2757   5.395   1.083   3.670 -1.3481  0.6540  1.6970
  671SOL     OW 2758   3.768   3.637   2.491 -0.5311  0.5149  0.9149
  671SOL    HW1 2759   3.814   3.718   2.516 -1.2052  0.8801  1.0087
  671SOL    HW2 2760   3.704   3.623   2.561 -1.1076  0.4659  0.3899
  672SOL     OW 2761   0.183   1.822   4.961  0.5313  0.2420  0.2315
  672SOL    HW1 2762   0.256   1.869   5.002  0.0576 -1.4689  3.3984
  672SOL    HW2 2763   0.224   1.745   4.922  0.5560 -0.3483  1.3806
  673SOL     OW 2764   5.509   4.972   1.099  0.1966  0.4090 -0.5019
  673SOL    HW1 2765   5.520   4.918   1.021  2.2740  1.2978 -0.8942
  673SOL    HW2 2766   5.598   4.994   1.126 -0.4677  0.4183  1.9480
  674SOL     OW 2767   1.538   2.207   0.178 -0.1220 -0.0739  0.5101
  674SOL    HW1 2768   1.565   2.161   0.258 -1.6082  0.0423  1.1226
  674SOL    HW2 2769   1.491   2.140   0.128  1.3775 -0.3264 -0.6079
  675SOL     OW 2770   2.200   5.116   2.197 -0.2998  0.5209  0.1378
  675SOL    HW1 2771   2.148   5.141   2.273  0.2889  1.9593  0.0975
  675SOL    HW2 2772   2.266   5.056   2.231 -0.9681 -0.0453  0.4681
  676SOL     OW 2773   0.345   3.519   2.837 -0.0002  0.1070 -0.6438
  676SOL    HW1 2774   0.304   3.604   2.854 -1.6630 -0.9224  0.9297
  676SOL    HW2 2775   0.282   3.474   2.780  1.3746  0.2885 -2.3576
  677SOL     OW 2776   0.599   6.165   3.230  0.1531 -0.3185 -0.1192
  677SOL    HW1 2777   0.584   6.248   3.186 -1.1190 -0.8397 -0.7081
  677SOL    HW2 2778   0.690   6.170   3.262  1.1155  0.1128 -2.7121
  678SOL     OW 2779   2.447   4.131   5.704 -0.4195  0.3170 -0.2218
  678SOL    HW1 2780   2.365   4.086   5.686  0.8666 -2.0551 -0.4967
  678SOL    HW2 2781   2.466   4.180   5.624 -1.6292  1.0363 -0.0839
  679SOL     OW 2782   6.013   3.160   4.124 -0.1224  0.2483 -0.7338
  679SOL    HW1 2783   6.059   3.233   4.083 -1.3235  0.1539 -2.3346
  679SOL    HW2 2784   5.957   3.200   4.191 -0.0196  0.6718 -0.9007
  680SOL     OW 2785   1.336   4.898   5.883  0.2599  0.0975 -0.0119
  680SOL    HW1 2786   1.327   4.840   5.808  0.7010  0.0236 -0.0099
  680SOL    HW2 2787   1.290   4.853   5.954  1.0413 -0.5058  0.1275
  681SOL     OW 2788   2.964   2.877   0.500 -0.2211  0.2755  0.3457
  681SOL    HW1 2789   2.957   2.782   0.493  2.1530  0.0647  0.0893
  681SOL    HW2 2790   2.929   2.897   0.587 -1.5011 -0.6983  0.0914
  682SOL     OW 2791   1.691   5.870   5.249 -0.2300 -0.4947 -0.0723
  682SOL    HW1 2792   1.768   5.904   5.205 -0.1517 -0.3456  0.1800
  682SOL    HW2 2793   1.712   5.873   5.342 -0.2979 -1.0361 -0.0322
  683SOL     OW 2794   5.169   1.434   0.643 -0.1441 -0.1079 -0.1673
  683SOL    HW1 2795   5.115   1.493   0.696 -0.2546 -0.7211  0.4340
  683SOL    HW2 2796   5.141   1.346   0.671 -0.3684 -0.4474 -1.4268
  684SOL     OW 2797   5.425   1.444   5.673 -0.0023  0.3335 -0.4496
  684SOL    HW1 2798   5.379   1.435   5.757  0.0659  1.1867 -0.3093
  684SOL    HW2 2799   5.372   1.395   5.611 -1.0279  1.1640 -0.2625
  685SOL     OW 2800   3.863   1.105   3.422  0.7508 -0.5797  0.1618
  685SOL    HW1 2801   3.936   1.045   3.434  1.9357 -0.0562 -3.3179
  685SOL    HW2 2802   3.903   1.186   3.390 -1.2882 -0.1818 -1.6265
  686SOL     OW 2803   0.555   0.314   5.666  0.4942  0.3732 -0.0467
  686SOL    HW1 2804   0.578   0.277   5.751 -0.4675  1.5916  0.7889
  686SOL    HW2 2805   0.529   0.239   5.613 -1.1071 -0.2005  1.4769
  687SOL     OW 2806   2.822   1.783   0.861  0.5170  0.3594  0.2460
  687SOL    HW1 2807   2.898   1.740   0.821  0.4608  0.2235  0.2820
  687SOL    HW2 2808   2.805   1.732   0.940  0.7337  0.7318  0.5331
  688SOL     OW 2809   3.078   5.048   3.158  0.1020 -0.1333 -0.0674
  688SOL    HW1 2810   2.992   5.087   3.172 -0.2515 -0.3312 -1.5031
  688SOL    HW2 2811   3.134   5.121   3.131 -0.0408 -0.2652 -0.7392
  689SOL     OW 2812   3.348   1.671   5.569  0.1452 -0.0410 -0.1315
  689SOL    HW1 2813   3.416   1.733   5.544  0.4384 -0.5477 -0.5954
  689SOL    HW2 2814   3.315   1.636   5.486 -0.6265  0.1306  0.0871
  690SOL     OW 2815   1.438   4.913   2.073  0.4702  0.1284  0.3177
  690SOL    HW1 2816   1.518   4.864   2.091  0.4069 -0.7178 -1.5117
  690SOL    HW2 2817   1.451   4.997   2.115  1.4352 -0.7293  1.8198
  691SOL     OW 2818   2.270   5.315   4.918  0.3460  0.1480  0.4572
  691SOL    HW1 2819   2.192   5.263   4.896  1.1288 -0.1789 -1.8062
  691SOL    HW2 2820   2.314   5.264   4.986 -0.8430 -0.1904  1.0063
  692SOL     OW 2821   0.694   0.996   4.733  0.5342 -0.1248 -0.1538
  692SOL    HW1 2822   0.756   0.999   4.806  1.3768  2.5083 -0.8769
  692SOL    HW2 2823   0.750   0.991   4.655 -0.2050  0.8275 -0.7563
  693SOL     OW 2824   5.358   2.324   0.966  0.8113 -0.0062 -0.2158
  693SOL    HW1 2825   5.331   2.301   0.877  0.2884  0.5588 -0.2151
  693SOL    HW2 2826   5.350   2.243   1.016  0.7246 -0.2326 -0.5996
  694SOL     OW 2827   4.678   0.119   4.574  0.3538 -0.3087  0.1657
  694SOL    HW1 2828   4.742   0.066   4.526 -0.1733  0.7914 -1.9205
  694SOL    HW2 2829   4.724   0.201   4.593  0.4686 -0.6372  1.3363
  695SOL     OW 2830   2.755   4.170   5.651 -0.2274 -1.0484 -0.1916
  695SOL    HW1 2831   2.838   4.203   5.616  0.8457 -0.3017  2.8072
  695SOL    HW2 2832   2.697   4.246   5.650  0.8275 -0.0869  2.4563
  696SOL     OW 2833   2.309   4.048   4.090 -0.2486 -0.3356 -0.3626
  696SOL    HW1 2834   2.232   3.992   4.079 -1.4259  1.5779 -2.6073
  696SOL    HW2 2835   2.323   4.087   4.004  1.2559  1.8931  0.8108
  697SOL     OW 2836   2.069   6.164   1.378  0.3317 -0.1974 -0.2383
  697SOL    HW1 2837   2.025   6.120   1.306 -0.4338  0.9309 -0.4807
  697SOL    HW2 2838   2.095   6.093   1.437 -1.2251 -0.9524 -0.4178
  698SOL     OW 2839   4.622   6.084   2.316  0.4921 -0.0276 -0.5853
  698SOL    HW1 2840   4.575   6.033   2.251 -2.1840  0.8089  0.5255
  698SOL    HW2 2841   4.681   6.022   2.359  0.0461 -1.2714 -1.7385
  699SOL     OW 2842   2.169   4.595   0.904 -0.4066  0.3339 -0.1931
  699SOL    HW1 2843   2.164   4.548   0.987  0.4891  2.6933  1.3028
  699SOL    HW2 2844   2.262   4.615   0.893 -0.6472  0.9501 -1.2017
  700SOL     OW 2845   1.187   2.939   0.457  0.0076 -0.0513  0.0212
  700SOL    HW1 2846   1.148   2.972   0.538  0.1719 -0.1151  0.1255
  700SOL    HW2 2847   1.147   2.853   0.445  0.1698 -0.1462  0.1653
  701SOL     OW 2848   5.699   4.219   0.364  0.2735  0.0036  0.2634
  701SOL    HW1 2849   5.699   4.261   0.279  2.0737 -0.5390 -0.0355
  701SOL    HW2 2850   5.776   4.253   0.409 -1.4360  1.4598  2.3357
  702SOL     OW 2851   1.908   1.445   1.457 -0.5159  0.0929 -0.3156
  702SOL    HW1 2852   1.943   1.469   1.543 -0.4962  1.0078 -0.5639
  702SOL    HW2 2853   1.831   1.392   1.477 -0.3062 -0.0066  0.2644
  703SOL     OW 2854   1.631   0.112   4.643 -0.6799  0.0062  0.1904
  703SOL    HW1 2855   1.656   0.046   4.578 -1.2012  0.6515 -0.6862
  703SOL    HW2 2856   1.561   0.163   4.600 -3.3278 -1.5119  2.4034
  704SOL     OW 2857   5.570   0.762   4.042  0.1924 -0.2482 -0.3137
  704SOL    HW1 2858   5.496   0.702   4.028 -0.7401  0.9557 -0.7657
  704SOL    HW2 2859   5.597   0.787   3.954 -0.1610  0.8524 -0.1167
  705SOL     OW 2860   0.826   1.045   5.791 -0.2265  0.4706 -0.2361
  705SOL    HW1 2861   0.753   1.107   5.795 -0.5443  0.0749  0.1030
  705SOL    HW2 2862   0.803   0.976   5.853 -1.4778 -1.7296 -2.9351
  706SOL     OW 2863   5.360   4.789   3.399 -0.3188  0.2149  0.4852
  706SOL    HW1 2864   5.346   4.695   3.386 -0.0805  0.2578 -0.0796
  706SOL    HW2 2865   5.445   4.795   3.443 -0.3399  0.1693  0.5330
  707SOL     OW 2866   1.838   3.172   4.547  0.0569 -0.0843 -0.7145
  707SOL    HW1 2867   1.914   3.113   4.545  1.1553  0.9015  2.9901
  707SOL    HW2 2868   1.763   3.113   4.560  0.6504 -0.8793 -0.7996
  708SOL     OW 2869   1.551   6.088   2.046  0.0304 -0.0032 -0.1355
  708SOL    HW1 2870   1.498   6.141   2.106  0.1413 -0.5035  0.4170
  708SOL    HW2 2871   1.503   6.005   2.040  0.3772 -0.2008 -0.1942
  709SOL     OW 2872   2.721   5.015   5.665 -0.2927 -0.2618  0.2506
  709SOL    HW1 2873   2.753   5.092   5.618 -2.2877  0.0152 -0.7810
  709SOL    HW2 2874   2.781   4.945   5.641  0.4967  0.5778 -0.2608
  710SOL     OW 2875   5.872   1.432   5.864  0.0827 -0.3398 -0.1519
  710SOL    HW1 2876   5.852   1.520   5.895  0.7874 -0.0549 -0.4742
  710SOL    HW2 2877   5.967   1.432   5.851 -0.1376 -0.4598 -2.1704
  711SOL     OW 2878   5.097   4.764   1.635 -0.3837  0.1581  0.2096
  711SOL    HW1 2879   5.044   4.813   1.572 -0.6783  2.1925  1.8947
  711SOL    HW2 2880   5.180   4.749   1.590 -0.3703  2.0847 -0.4997
  712SOL     OW 2881   2.434   2.207   3.334 -0.0072 -0.8610 -0.3585
  712SOL    HW1 2882   2.470   2.274   3.392  1.2704 -1.8282  0.0222
  712SOL    HW2 2883   2.416   2.253   3.252  0.6060 -0.0026 -0.0235
  713SOL     OW 2884   0.457   3.653   0.031  0.1216  0.0212 -0.0352
  713SOL    HW1 2885   0.422   3.570   0.065  1.0032 -0.2835  0.1499
  713SOL    HW2 2886   0.435   3.717   0.098 -0.8793  0.0157 -0.3418
  714SOL     OW 2887   3.935   5.404   5.634 -0.8093 -0.0617  0.0240
  714SOL    HW1 2888   3.864   5.432   5.691 -0.6487  1.9058 -0.6670
  714SOL    HW2 2889   3.983   5.340   5.686 -2.3119 -0.4624  0.9887
  715SOL     OW 2890   1.822   5.386   5.634 -1.0129  0.1746 -0.3744
  715SOL    HW1 2891   1.864   5.368   5.550 -1.2251 -2.2798 -0.0129
  715SOL    HW2 2892   1.768   5.309   5.651 -0.1824  0.1237  2.4924
  716SOL     OW 2893   0.478   2.055   2.614 -0.5959 -0.0943 -0.0570
  716SOL    HW1 2894   0.500   1.995   2.685  0.0891 -0.7697 -0.8274
  716SOL    HW2 2895   0.522   2.137   2.636  2.7701 -1.3335 -1.4671
  717SOL     OW 2896   4.356   2.370   5.926 -0.1747 -0.5732  0.3054
  717SOL    HW1 2897   4.326   2.330   5.844 -0.7156  0.2308  0.1054
  717SOL    HW2 2898   4.448   2.344   5.932  0.2328  0.3668 -1.2122
  718SOL     OW 2899   2.790   3.327   0.257 -0.3185  0.3925  0.1764
  718SOL    HW1 2900   2.718   3.271   0.287  0.4910 -0.1068  1.2308
  718SOL    HW2 2901   2.811   3.294   0.169 -1.8241  1.0072 -0.4557
  719SOL     OW 2902   1.562   5.501   3.565 -0.3288  0.1610  0.4085
  719SOL    HW1 2903   1.543   5.564   3.635  0.6559 -0.2177  1.0316
  719SOL    HW2 2904   1.545   5.549   3.484  1.6725  1.6821  0.8183
  720SOL     OW 2905   3.478   3.190   3.792 -0.0815  0.0229  0.6498
  720SOL    HW1 2906   3.572   3.177   3.778 -0.3074 -0.4743 -0.5341
  720SOL    HW2 2907   3.463   3.281   3.766  0.3864  0.7495  2.7435
  721SOL     OW 2908   3.113   5.282   4.136  0.0923 -0.8492 -0.0499
  721SOL    HW1 2909   3.103   5.215   4.204 -0.2706 -0.3025  0.4372
  721SOL    HW2 2910   3.140   5.360   4.183  2.0848 -1.0289 -0.7807
  722SOL     OW 2911   4.365   3.076   3.639  0.1489  0.6280  0.0993
  722SOL    HW1 2912   4.403   2.990   3.620  1.7954  0.8530  2.0501
  722SOL    HW2 2913   4.341   3.072   3.731 -0.8263  1.8915 -0.0757
  723SOL     OW 2914   0.170   0.738   4.924 -0.2110 -0.2040  0.0382
  723SOL    HW1 2915   0.178   0.697   4.838  0.3696 -1.4829  0.6778
  723SOL    HW2 2916   0.196   0.670   4.986  0.7895  1.1423  1.1543
  724SOL     OW 2917   3.714   5.658   0.437  0.0998  0.0794 -0.0947
  724SOL    HW1 2918   3.808   5.676   0.437 -0.0852  1.1754  0.8222
  724SOL    HW2 2919   3.706   5.567   0.468  0.8639 -0.2032 -0.7056
  725SOL     OW 2920   2.894   3.075   3.065  0.1149  0.0059 -0.2026
  725SOL    HW1 2921   2.912   3.047   2.976  1.1207  1.4479 -0.4968
  725SOL    HW2 2922   2.981   3.088   3.104 -0.2806 -1.3978  1.2843
  726SOL     OW 2923   3.199   2.625   4.299 -0.0017 -0.0363 -0.1039
  726SOL    HW1 2924   3.140   2.551   4.313 -1.7343  1.3516  0.2832
  726SOL    HW2 2925   3.145   2.692   4.257  1.3950  1.1802 -0.0664
  727SOL     OW 2926   1.499   3.754   5.234  0.3938 -0.1810  0.1183
  727SOL    HW1 2927   1.498   3.696   5.158  0.1686 -0.5971  0.4390
  727SOL    HW2 2928   1.458   3.835   5.203  2.4706  0.5601 -0.9039
  728SOL     OW 2929   1.706   5.253   3.709 -0.2852 -0.0466  0.6817
  728SOL    HW1 2930   1.663   5.236   3.625  0.6267 -0.1560  0.2263
  728SOL    HW2 2931   1.660   5.195   3.771 -1.9428  1.0896  0.5854
  729SOL     OW 2932   0.080   4.346   5.244  0.0679 -0.3642  0.1659
  729SOL    HW1 2933   0.164   4.341   5.290 -1.4106 -1.2439  3.0050
  729SOL    HW2 2934   0.056   4.438   5.249 -0.2426 -0.4993  1.6069
  730SOL     OW 2935   5.377   5.522   3.024  0.0574  0.1534  0.4904
  730SOL    HW1 2936   5.403   5.587   2.959  0.1084 -1.1585 -0.8753
  730SOL    HW2 2937   5.351   5.573   3.101  0.6815  1.7330 -0.3021
  731SOL     OW 2938   3.512   1.680   5.790  0.1718 -0.2785  0.3484
  731SOL    HW1 2939   3.448   1.624   5.746 -0.3501 -1.9167  2.9737
  731SOL    HW2 2940   3.459   1.749   5.830  0.2593 -0.4394  0.7540
  732SOL     OW 2941   2.250   4.642   2.845  0.4775 -0.2904  0.6876
  732SOL    HW1 2942   2.246   4.707   2.915  1.2083  0.9789 -0.3977
  732SOL    HW2 2943   2.182   4.668   2.783  2.7009  1.4103 -1.2792
  733SOL     OW 2944   1.192   2.231   2.566 -0.0036  0.1953 -0.0320
  733SOL    HW1 2945   1.279   2.237   2.603 -0.3194  1.2305  0.5616
  733SOL    HW2 2946   1.157   2.148   2.600  0.0850  0.6396  1.1664
  734SOL     OW 2947   5.376   3.198   2.820 -0.4191 -0.0450 -0.0389
  734SOL    HW1 2948   5.350   3.290   2.827  0.4025  0.1198  1.0773
  734SOL    HW2 2949   5.376   3.181   2.726  0.6441  1.4654 -0.3614
  735SOL     OW 2950   5.739   4.334   0.706 -0.0463 -0.0515 -0.2684
  735SOL    HW1 2951   5.784   4.372   0.781  0.6439 -0.8702 -0.2461
  735SOL    HW2 2952   5.793   4.357   0.630 -0.8735  0.9858 -0.5627
  736SOL     OW 2953   4.443   4.593   3.247 -0.2136 -0.2116  0.1744
  736SOL    HW1 2954   4.464   4.658   3.179  0.3161 -0.0413  0.4983
  736SOL    HW2 2955   4.474   4.510   3.211 -0.5777 -0.2367 -0.0923
  737SOL     OW 2956   5.628   4.686   2.862 -0.3362  0.1852  0.0541
  737SOL    HW1 2957   5.701   4.641   2.905 -1.1282 -1.2879 -0.0854
  737SOL    HW2 2958   5.641   4.669   2.768 -1.2696 -0.7480  0.0814
  738SOL     OW 2959   5.538   4.803   3.112  0.1235  0.1524  0.6657
  738SOL    HW1 2960   5.591   4.777   3.036 -1.7321  0.0838 -0.6625
  738SOL    HW2 2961   5.450   4.816   3.077 -1.4902 -2.6057  3.2278
  739SOL     OW 2962   5.168   0.902   1.996 -0.0456  0.1427 -0.1775
  739SOL    HW1 2963   5.133   0.985   2.029 -1.3035 -0.1297 -0.7542
  739SOL    HW2 2964   5.159   0.908   1.901  0.3736 -0.4274 -0.2567
  740SOL     OW 2965   0.673   3.810   1.033 -0.0424  0.9461 -0.9902
  740SOL    HW1 2966   0.732   3.743   0.999  2.8544  1.9138  1.6366
  740SOL    HW2 2967   0.706   3.892   0.997 -0.4648  1.4120 -0.3470
  741SOL     OW 2968   1.317   0.674   0.736  0.0037  0.2666  0.7980
  741SOL    HW1 2969   1.253   0.615   0.776  1.2550 -1.5070  0.2879
  741SOL    HW2 2970   1.402   0.635   0.755  0.8400  1.4382 -0.3390
  742SOL     OW 2971   2.274   5.770   5.636 -0.2479  0.1283  0.7112
  742SOL    HW1 2972   2.241   5.694   5.684 -2.1853  0.8143  0.5371
  742SOL    HW2 2973   2.355   5.739   5.596 -0.8075 -1.7458  0.9351
  743SOL     OW 2974   5.734   1.703   4.652  0.0377  0.5689 -0.0740
  743SOL    HW1 2975   5.655   1.710   4.598  0.6242 -1.1194 -1.2281
  743SOL    HW2 2976   5.806   1.717   4.590  0.6832  1.2456  0.8057
  744SOL     OW 2977   5.225   2.732   1.334  0.0386  0.1918 -0.6694
  744SOL    HW1 2978   5.245   2.746   1.427 -0.2554 -1.2432 -0.3753
  744SOL    HW2 2979   5.297   2.774   1.288  0.6718  0.1254  0.2265
  745SOL     OW 2980   5.464   1.992   1.818 -0.0965 -0.5924 -0.2063
  745SOL    HW1 2981   5.377   1.976   1.780 -1.1703  0.0294  1.8428
  745SOL    HW2 2982   5.524   1.944   1.761 -1.7181 -0.7047 -1.9398
  746SOL     OW 2983   0.611   2.448   5.592 -0.2740 -0.4249 -0.0722
  746SOL    HW1 2984   0.626   2.391   5.517 -0.9847 -1.4033  0.5093
  746SOL    HW2 2985   0.685   2.509   5.591  0.1353 -0.9146 -1.1029
  747SOL     OW 2986   2.587   5.451   1.438  0.1431  0.2154 -0.3613
  747SOL    HW1 2987   2.612   5.475   1.528  0.5652 -2.1453  0.2278
  747SOL    HW2 2988   2.667   5.413   1.401 -0.8069 -1.6191 -0.6532
  748SOL     OW 2989   1.656   3.820   0.841  0.1697 -0.2799  0.3715
  748SOL    HW1 2990   1.591   3.759   0.804  1.0010 -1.0481  0.1415
  748SOL    HW2 2991   1.619   3.847   0.924 -1.1400  0.4547 -0.4183
  749SOL     OW 2992   6.004   0.263   0.445  0.4990  0.6490  0.2972
  749SOL    HW1 2993   6.041   0.183   0.409 -0.9309 -0.3985  1.0630
  749SOL    HW2 2994   6.064   0.289   0.515  0.8632  0.1463  0.1728
  750SOL     OW 2995   2.562   1.812   5.358  0.1345  0.2619  0.4343
  750SOL    HW1 2996   2.580   1.721   5.382  0.0821  0.7288  2.3334
  750SOL    HW2 2997   2.639   1.839   5.308  1.8221  0.2329  2.8789
  751SOL     OW 2998   5.136   0.227   4.392 -0.2508  0.1690 -0.4259
  751SOL    HW1 2999   5.164   0.261   4.477  1.0749 -1.0087 -0.3601
  751SOL    HW2 3000   5.092   0.301   4.350 -0.4175  0.9384  1.0444
  752SOL     OW 3001   3.289   6.243   0.678 -0.4239 -0.3737 -0.2680
  752SOL    HW1 3002   3.217   6.299   0.709 -0.2952 -1.0183  1.2827
  752SOL    HW2 3003   3.246   6.169   0.637 -0.6045  0.3358 -1.3978
  753SOL     OW 3004   5.837   1.098   3.343 -0.0187 -0.6361  0.2705
  753SOL    HW1 3005   5.815   1.189   3.324 -1.1892 -0.7165  1.1805
  753SOL    HW2 3006   5.902   1.075   3.276 -0.1727  0.6657 -0.3540
  754SOL     OW 3007   2.672   1.515   5.168 -0.3601  0.0085  0.1110
  754SOL    HW1 3008   2.751   1.530   5.220  0.9469 -0.9617 -1.4918
  754SOL    HW2 3009   2.674   1.586   5.103 -1.6240  0.8253  0.9121
  755SOL     OW 3010   4.933   1.268   3.813  0.0678  0.2085  0.6694
  755SOL    HW1 3011   5.015   1.218   3.823 -0.5732 -1.6505 -2.2398
  755SOL    HW2 3012   4.864   1.205   3.834 -0.7343 -0.1417 -2.4954
  756SOL     OW 3013   4.648   4.098   2.874 -0.2057  0.0190 -0.4022
  756SOL    HW1 3014   4.725   4.074   2.926 -1.0882 -0.3217  0.8140
  756SOL    HW2 3015   4.595   4.152   2.934 -1.1536 -0.1896 -1.0293
  757SOL     OW 3016   5.685   3.102   5.214  0.2172 -0.0565 -0.1003
  757SOL    HW1 3017   5.747   3.105   5.141  0.1413 -0.5760 -0.1902
  757SOL    HW2 3018   5.739   3.118   5.291  0.5415 -0.8939 -0.1377
  758SOL     OW 3019   4.675   6.109   1.498 -0.1872 -0.2334 -0.3617
  758SOL    HW1 3020   4.598   6.067   1.458  0.9834 -2.5329 -0.3391
  758SOL    HW2 3021   4.700   6.050   1.569  1.0217  1.0126  0.2890
  759SOL     OW 3022   6.122   0.520   2.990  0.4842  0.5360  0.7653
  759SOL    HW1 3023   6.133   0.429   3.017 -0.1209  0.7109  1.6525
  759SOL    HW2 3024   6.058   0.556   3.052 -0.2299  1.2310 -0.3265
  760SOL     OW 3025   3.075   5.412   3.723  0.1694  0.3238  0.1030
  760SOL    HW1 3026   3.049   5.327   3.759  0.6100  0.5935  1.0878
  760SOL    HW2 3027   3.011   5.429   3.654  0.4625 -1.1043 -0.5719
  761SOL     OW 3028   3.942   0.215   1.541 -0.5862  0.7317 -0.0832
  761SOL    HW1 3029   3.889   0.248   1.614 -1.2215  0.4183 -0.3929
  761SOL    HW2 3030   3.886   0.225   1.464  1.5092  4.9829 -1.3420
  762SOL     OW 3031   1.025   3.783   2.095  0.0102 -0.2200  0.7796
  762SOL    HW1 3032   0.952   3.827   2.052 -1.0328 -1.5144  1.1715
  762SOL    HW2 3033   0.995   3.766   2.184  1.0072 -0.2686  1.1251
  763SOL     OW 3034   4.399   2.221   2.837  0.1249 -0.5157 -0.4177
  763SOL    HW1 3035   4.442   2.261   2.762 -1.1959  0.2373 -0.8138
  763SOL    HW2 3036   4.405   2.127   2.821  3.0790 -0.5565  0.4209
  764SOL     OW 3037   2.122   0.254   4.480  0.4652  0.3083 -0.5620
  764SOL    HW1 3038   2.158   0.227   4.565 -0.6081 -0.2497 -0.2663
  764SOL    HW2 3039   2.042   0.303   4.502  0.0046 -0.1093 -1.2470
  765SOL     OW 3040   0.963   6.130   0.453  0.8592  1.0186  0.3764
  765SOL    HW1 3041   0.968   6.205   0.512  1.2706  2.8968 -1.8825
  765SOL    HW2 3042   0.922   6.165   0.374 -1.1437 -1.7584  0.0501
  766SOL     OW 3043   3.871   2.897   5.490  1.2964  0.3507 -0.1795
  766SOL    HW1 3044   3.799   2.880   5.429  1.0461 -1.2972  0.5308
  766SOL    HW2 3045   3.907   2.811   5.510  2.8383  1.0596  0.2640
  767SOL     OW 3046   2.517   1.524   4.668 -0.4377 -0.2832  0.2756
  767SOL    HW1 3047   2.500   1.474   4.587 -0.8030 -2.0422  1.3793
  767SOL    HW2 3048   2.437   1.515   4.719  0.2816 -0.3911  1.4227
  768SOL     OW 3049   5.248   1.317   5.525 -0.2083 -0.4010  0.2562
  768SOL    HW1 3050   5.276   1.227   5.509  0.1544 -0.4872  1.2521
  768SOL    HW2 3051   5.178   1.308   5.590 -0.9757 -0.0283 -0.4980
  769SOL     OW 3052   2.589   2.801   1.348 -0.1716 -0.0060  0.2169
  769SOL    HW1 3053   2.505   2.808   1.302 -0.2648 -2.1763 -0.0671
  769SOL    HW2 3054   2.567   2.814   1.440 -0.9682 -1.2418  0.2198
  770SOL     OW 3055   2.443   3.581   0.865 -0.5029  0.0618 -0.6627
  770SOL    HW1 3056   2.389   3.653   0.836  1.6276  1.1091 -2.3052
  770SOL    HW2 3057   2.441   3.518   0.793 -0.9092 -0.7120  0.0051
  771SOL     OW 3058   5.568   4.976   2.320 -0.4208 -1.0109 -0.2382
  771SOL    HW1 3059   5.507   4.993   2.249  0.6270 -1.6546 -1.3360
  771SOL    HW2 3060   5.602   5.062   2.344 -0.1198 -0.8727 -1.1389
  772SOL     OW 3061   1.209   5.060   3.627 -0.4051 -0.6257  0.2539
  772SOL    HW1 3062   1.281   5.004   3.598 -0.0054  0.4428 -0.9662
  772SOL    HW2 3063   1.225   5.143   3.582 -1.3563  0.2421  1.4644
  773SOL     OW 3064   5.259   1.089   6.169 -0.1356 -0.2244 -0.2743
  773SOL    HW1 3065   5.338   1.142   6.162 -0.2100 -0.0946 -0.1288
  773SOL    HW2 3066   5.278   1.011   6.117  0.9107 -1.1914  1.4620
  774SOL     OW 3067   3.977   4.889   5.960  0.0426 -0.0177 -0.6011
  774SOL    HW1 3068   4.042   4.893   6.029 -2.1375  0.4331  1.5596
  774SOL    HW2 3069   3.909   4.831   5.994 -0.6101 -0.7163 -2.8746
  775SOL     OW 3070   1.672   0.480   0.573  0.6634 -0.2029 -0.2935
  775SOL    HW1 3071   1.721   0.534   0.636  0.5946  0.3057 -0.6708
  775SOL    HW2 3072   1.717   0.495   0.490  0.4010 -0.4261 -0.4745
  776SOL     OW 3073   1.564   4.462   3.546  1.0970  0.5848 -0.1685
  776SOL    HW1 3074   1.600   4.491   3.630  1.6767 -0.4875 -0.0330
  776SOL    HW2 3075   1.601   4.375   3.532 -2.9062 -1.5606  0.9460
  777SOL     OW 3076   1.984   4.661   5.935  0.3116  0.0557 -0.7451
  777SOL    HW1 3077   1.991   4.587   5.875 -0.6224 -0.3053 -0.4220
  777SOL    HW2 3078   1.890   4.673   5.947  0.4543  1.1417 -0.5976
  778SOL     OW 3079   4.431   0.222   1.377  0.7467  0.0965 -0.5728
  778SOL    HW1 3080   4.344   0.210   1.415  1.5231 -0.3517  1.1801
  778SOL    HW2 3081   4.416   0.277   1.300 -0.9756  0.8133  0.2131
  779SOL     OW 3082   5.889   2.862   4.164 -0.1600 -0.5286  0.0200
  779SOL    HW1 3083   5.836   2.834   4.090 -0.9122 -0.0067  0.3534
  779SOL    HW2 3084   5.847   2.941   4.196  0.9395  0.0190  0.1663
  780SOL     OW 3085   2.972   1.315   4.642  0.1353  0.1091 -0.2624
  780SOL    HW1 3086   3.051   1.346   4.599  2.4779 -1.7165  2.3801
  780SOL    HW2 3087   2.968   1.364   4.724 -1.8135  0.5175 -0.5450
  781SOL     OW 3088   1.309   2.864   4.405 -0.2553  0.0353  0.1198
  781SOL    HW1 3089   1.322   2.776   4.440  0.9680 -0.5710 -1.7056
  781SOL    HW2 3090   1.237   2.854   4.342  0.1550  0.2275 -0.3887
  782SOL     OW 3091   4.149   4.473   1.504  0.1869  0.5303 -0.5045
  782SOL    HW1 3092   4.228   4.457   1.453 -0.2028  0.0163 -0.9736
  782SOL    HW2 3093   4.093   4.397   1.485 -1.2968  1.8950 -1.9289
  783SOL     OW 3094   4.868   3.821   1.615 -0.3930  0.0047  0.4495
  783SOL    HW1 3095   4.778   3.853   1.610 -0.2733  0.2262 -0.4899
  783SOL    HW2 3096   4.918   3.894   1.650 -0.5890 -0.1457  1.0486
  784SOL     OW 3097   2.701   2.238   5.592  0.0671  0.0107 -0.1857
  784SOL    HW1 3098   2.734   2.305   5.652 -0.0976 -1.8426  2.1432
  784SOL    HW2 3099   2.630   2.195   5.640 -1.1156 -0.6129 -2.3517
  785SOL     OW 3100   2.073   1.452   6.066 -0.0851 -0.0661  0.4188
  785SOL    HW1 3101   2.123   1.370   6.058 -0.4317 -0.5763  2.9329
  785SOL    HW2 3102   2.004   1.444   6.000  0.9366 -0.9753 -0.5944
  786SOL     OW 3103   4.492   2.816   0.169 -0.6676  0.4539  0.2065
  786SOL    HW1 3104   4.584   2.802   0.147 -0.9590 -0.5833 -0.4045
  786SOL    HW2 3105   4.493   2.831   0.263  0.0168 -0.7537  0.4209
  787SOL     OW 3106   0.437   0.776   5.095 -0.0358  0.2063  0.5890
  787SOL    HW1 3107   0.496   0.848   5.118 -0.8995  0.7004  1.3382
  787SOL    HW2 3108   0.418   0.790   5.002  1.1509 -0.0648  0.2943
  788SOL     OW 3109   1.866   4.399   2.193  0.0714 -0.2719  0.0299
  788SOL    HW1 3110   1.861   4.471   2.255 -1.3591  1.8372 -2.3194
  788SOL    HW2 3111   1.955   4.402   2.159  0.4749 -0.6352  1.0106
  789SOL     OW 3112   5.822   3.487   2.678  0.1971 -0.7956 -0.3463
  789SOL    HW1 3113   5.728   3.492   2.697 -0.3500 -3.2057 -2.0696
  789SOL    HW2 3114   5.846   3.576   2.654 -1.4188  0.0517  0.9324
  790SOL     OW 3115   1.495   0.072   4.034 -0.7890 -0.4050 -0.0095
  790SOL    HW1 3116   1.581   0.108   4.013 -1.1523  0.7363  0.3997
  790SOL    HW2 3117   1.485  -0.001   3.973 -0.5228  0.9119 -1.7185
  791SOL     OW 3118   6.039   4.744   3.894 -0.1315  0.3402  0.3411
  791SOL    HW1 3119   5.946   4.727   3.911 -0.0085 -0.6740  0.0824
  791SOL    HW2 3120   6.041   4.832   3.857 -1.0564  0.1918 -0.1027
  792SOL     OW 3121   5.692   3.947   0.963  0.2963  0.5017  0.4752
  792SOL    HW1 3122   5.664   3.994   1.041 -0.4681  1.6275 -0.4387
  792SOL    HW2 3123   5.639   3.985   0.892  1.1145 -0.3338 -0.6175
  793SOL     OW 3124   2.037   3.972   1.064  0.3195 -0.6609  0.3827
  793SOL    HW1 3125   2.114   3.938   1.111  0.8643 -0.3731 -0.2838
  793SOL    HW2 3126   2.028   4.062   1.096 -0.0682 -0.8611  0.8524
  794SOL     OW 3127   2.800   0.393   1.094 -0.1046 -0.1603  0.2145
  794SOL    HW1 3128   2.789   0.402   1.188  1.2976  4.4922  0.2312
  794SOL    HW2 3129   2.857   0.317   1.083  0.5108 -0.2420  3.1974
  795SOL     OW 3130   4.203   0.363   5.836  0.0092  0.1069  0.0811
  795SOL    HW1 3131   4.166   0.451   5.827  1.8297  0.8528 -0.6185
  795SOL    HW2 3132   4.279   0.375   5.892  1.4491 -0.6393 -1.6347
  796SOL     OW 3133   2.867   3.750   5.349  0.0346 -0.2295 -0.4820
  796SOL    HW1 3134   2.804   3.748   5.422  0.1020  1.2212 -0.3595
  796SOL    HW2 3135   2.931   3.817   5.375  1.4716 -1.4582 -0.7458
  797SOL     OW 3136   1.639   1.614   3.902 -0.4864 -0.6120 -0.2321
  797SOL    HW1 3137   1.556   1.566   3.894 -1.4113  1.0335 -0.8118
  797SOL    HW2 3138   1.659   1.643   3.813  1.9786 -2.8903 -0.5746
  798SOL     OW 3139   1.038   5.971   0.675  0.2213  0.4326  0.4404
  798SOL    HW1 3140   0.962   5.916   0.697  0.4492  0.4026  1.1740
  798SOL    HW2 3141   1.013   6.014   0.593 -0.2072 -0.3005  0.1704
  799SOL     OW 3142   5.171   2.677   4.702  0.1730 -0.3933  0.1110
  799SOL    HW1 3143   5.173   2.610   4.633 -1.7133 -0.5695  0.1875
  799SOL    HW2 3144   5.234   2.645   4.767  1.3168 -0.6812 -1.0901
  800SOL     OW 3145   2.959   2.120   2.925 -0.0580  0.1359 -0.3966
  800SOL    HW1 3146   3.034   2.153   2.875  0.0924  0.4414  0.0216
  800SOL    HW2 3147   2.983   2.030   2.949  0.1020  0.1740 -0.4135
  801SOL     OW 3148   3.010   0.427   3.744 -0.6526 -0.0722  0.2469
  801SOL    HW1 3149   2.970   0.341   3.738 -0.0723 -0.3032 -0.3504
  801SOL    HW2 3150   3.104   0.411   3.746 -0.5383  0.5425  0.2307
  802SOL     OW 3151   6.285   1.658   0.462  0.3435 -0.1103 -0.3526
  802SOL    HW1 3152   6.377   1.684   0.473  0.6332  0.0400 -2.5909
  802SOL    HW2 3153   6.288   1.589   0.395 -1.3445  1.5833 -2.3183
  803SOL     OW 3154   4.986   5.070   5.459  0.2090 -0.0717  0.4982
  803SOL    HW1 3155   4.945   5.108   5.382 -0.3048  2.6159  1.9844
  803SOL    HW2 3156   4.969   4.976   5.451 -0.9451  0.2775 -1.9729
  804SOL     OW 3157   2.618   4.398   4.331  0.1452 -0.6402 -0.5087
  804SOL    HW1 3158   2.551   4.331   4.320 -0.3093  0.0079 -1.9560
  804SOL    HW2 3159   2.598   4.464   4.264 -1.1473  2.4256  2.5776
  805SOL     OW 3160   1.641   0.608   3.396  0.2005  0.7978 -1.0816
  805SOL    HW1 3161   1.678   0.696   3.392 -0.6780  1.3566  1.2738
  805SOL    HW2 3162   1.549   0.621   3.420  0.2290 -0.7609  0.0482
  806SOL     OW 3163   1.040   6.203   0.852 -0.6143 -0.0709 -0.2443
  806SOL    HW1 3164   1.092   6.267   0.804  0.6883 -1.2620 -0.5035
  806SOL    HW2 3165   1.018   6.136   0.788  0.5776 -1.3499  0.6157
  807SOL     OW 3166   2.590   4.243   1.755 -0.3285  0.7929  0.5719
  807SOL    HW1 3167   2.498   4.217   1.757 -0.3456  0.8757  2.2411
  807SOL    HW2 3168   2.632   4.187   1.820  0.1587  2.9696  2.2672
  808SOL     OW 3169   4.984   2.373   1.038  0.1224 -0.2242  0.0407
  808SOL    HW1 3170   5.048   2.402   0.973 -0.3478  0.6062 -0.0684
  808SOL    HW2 3171   5.018   2.404   1.121  0.1975 -0.3681  0.0637
  809SOL     OW 3172   5.616   0.356   3.793 -0.0100  0.5762  0.5463
  809SOL    HW1 3173   5.676   0.357   3.718  1.9715 -0.7962  2.0141
  809SOL    HW2 3174   5.660   0.408   3.860 -0.8886  0.2737  1.3753
  810SOL     OW 3175   4.890   3.147   2.061 -0.3666  0.1490  0.0581
  810SOL    HW1 3176   4.941   3.135   1.980 -0.5703  1.9938 -0.4029
  810SOL    HW2 3177   4.815   3.088   2.051  0.7128 -1.2478 -0.0891
  811SOL     OW 3178   3.372   4.296   0.070  0.0535  0.1140 -0.3195
  811SOL    HW1 3179   3.334   4.320   0.155 -1.1505 -0.6981 -0.5976
  811SOL    HW2 3180   3.415   4.376   0.039 -0.6138  0.7992  0.4741
  812SOL     OW 3181   4.014   3.752   0.582  0.6681  0.3958 -0.2054
  812SOL    HW1 3182   4.019   3.681   0.518 -0.6306  0.4446 -0.3752
  812SOL    HW2 3183   4.055   3.827   0.539  0.1045  0.3359 -0.8592
  813SOL     OW 3184   0.561   1.012   5.629 -0.2302  0.4974  0.2218
  813SOL    HW1 3185   0.492   0.979   5.687  0.6537 -1.0845  0.4263
  813SOL    HW2 3186   0.593   1.091   5.674 -1.4087  0.8623  0.4700
  814SOL     OW 3187   5.287   3.760   3.441 -0.1319 -0.1891  0.0802
  814SOL    HW1 3188   5.204   3.731   3.478 -0.9739  1.8319 -0.1492
  814SOL    HW2 3189   5.297   3.850   3.470  0.6143  0.5231 -2.1604
  815SOL     OW 3190   0.233   0.391   0.134 -0.6412  0.8534  0.1846
  815SOL    HW1 3191   0.182   0.313   0.114 -0.9774  0.9554  0.6419
  815SOL    HW2 3192   0.305   0.360   0.188  0.6917  0.4558 -1.7297
  816SOL     OW 3193   0.566   5.641   6.152 -0.0056 -0.2652 -0.0760
  816SOL    HW1 3194   0.496   5.676   6.208 -1.1161 -0.8861 -1.0246
  816SOL    HW2 3195   0.576   5.550   6.181  1.0445  0.0605  0.6368
  817SOL     OW 3196   1.870   4.785   3.610 -0.5432 -0.0002  0.2611
  817SOL    HW1 3197   1.960   4.766   3.635 -0.6410 -1.0653 -0.1511
  817SOL    HW2 3198   1.863   4.754   3.519 -0.3486  3.2062 -0.9877
  818SOL     OW 3199   3.385   2.149   0.405 -0.2053 -0.1253  0.3520
  818SOL    HW1 3200   3.417   2.148   0.496 -0.9145 -0.3930  0.6029
  818SOL    HW2 3201   3.393   2.057   0.377  0.1092 -0.0254  0.1016
  819SOL     OW 3202   1.006   1.645   0.140  0.0487  0.3203  0.3494
  819SOL    HW1 3203   1.085   1.648   0.085  0.9400  0.8339  1.5975
  819SOL    HW2 3204   1.004   1.555   0.172 -1.0356 -0.2748 -1.2424
  820SOL     OW 3205   2.383   2.890   3.422  0.2403  0.1289  0.6260
  820SOL    HW1 3206   2.434   2.867   3.344 -0.1544  1.4061 -0.0489
  820SOL    HW2 3207   2.436   2.956   3.467  0.3467 -0.4168  1.3156
  821SOL     OW 3208   0.454   2.651   5.757 -0.2601  0.5815  0.0280
  821SOL    HW1 3209   0.535   2.700   5.742 -0.2733  0.6644  0.2208
  821SOL    HW2 3210   0.481   2.559   5.754 -0.0616  0.6186  0.6395
  822SOL     OW 3211   0.493   5.085   5.919 -0.2801 -0.7681 -0.1890
  822SOL    HW1 3212   0.463   5.060   5.832  1.4535 -1.4329 -0.6333
  822SOL    HW2 3213   0.467   5.013   5.976  0.0603 -1.1351 -0.4896
  823SOL     OW 3214   6.193   2.930   6.148 -0.2048 -0.2285  0.5217
  823SOL    HW1 3215   6.222   2.925   6.058  1.1061  0.5979  0.8775
  823SOL    HW2 3216   6.273   2.936   6.200 -0.9440 -0.0880  1.7033
  824SOL     OW 3217   4.733   0.551   3.989 -0.0955  0.3792  0.2958
  824SOL    HW1 3218   4.696   0.585   4.070  0.4691  1.0443  0.2847
  824SOL    HW2 3219   4.692   0.602   3.919 -0.2215  0.1378  0.1909
  825SOL     OW 3220   1.400   5.888   5.303  0.5747 -0.4569 -0.6376
  825SOL    HW1 3221   1.381   5.979   5.277  1.0647  0.2099  1.1824
  825SOL    HW2 3222   1.495   5.882   5.301  0.5139 -1.6275 -2.8069
  826SOL     OW 3223   2.048   1.880   6.047  0.0423  0.4732  0.1319
  826SOL    HW1 3224   2.095   1.927   5.978 -0.4979 -1.2825 -1.5098
  826SOL    HW2 3225   1.963   1.860   6.009 -0.1692 -0.7948  1.1926
  827SOL     OW 3226   3.862   4.750   1.881  0.5034 -0.2669  0.4134
  827SOL    HW1 3227   3.851   4.762   1.976 -0.3559 -0.5554  0.3581
  827SOL    HW2 3228   3.876   4.656   1.870  0.9304 -0.1892  0.2804
  828SOL     OW 3229   0.278   1.285   2.092 -0.0208 -0.1684 -1.0926
  828SOL    HW1 3230   0.299   1.356   2.152 -0.5535 -0.8050 -0.1252
  828SOL    HW2 3231   0.341   1.216   2.114 -1.1428 -0.9476 -0.2594
  829SOL     OW 3232   2.266   4.245   0.895 -0.0689 -0.2083 -0.2388
  829SOL    HW1 3233   2.271   4.326   0.845 -1.0714 -0.5967 -1.0021
  829SOL    HW2 3234   2.173   4.223   0.896  0.1513 -1.1663  0.2471
  830SOL     OW 3235   2.716   3.796   1.589 -0.5287 -0.5403 -0.7544
  830SOL    HW1 3236   2.792   3.853   1.585 -0.8638  0.0455  0.5175
  830SOL    HW2 3237   2.735   3.725   1.528 -0.4123  1.2720 -2.9559
  831SOL     OW 3238   4.236   1.538   0.881 -0.3944 -0.2916  0.0437
  831SOL    HW1 3239   4.230   1.627   0.847 -0.6885  0.0363  0.9431
  831SOL    HW2 3240   4.239   1.548   0.976  0.3983 -1.1946  0.1368
  832SOL     OW 3241   4.408   0.593   0.058  0.5893  0.7622  0.3267
  832SOL    HW1 3242   4.415   0.679   0.099  0.5318  1.2971 -0.7410
  832SOL    HW2 3243   4.347   0.607  -0.015  1.3067  0.0468 -0.4256
  833SOL     OW 3244   5.771   4.673   5.699  0.2964 -0.1869  0.0400
  833SOL    HW1 3245   5.675   4.673   5.694  0.2998 -1.2992 -0.5724
  833SOL    HW2 3246   5.791   4.695   5.789 -0.4954  1.3278 -0.1250
  834SOL     OW 3247   2.522   3.986   1.511 -0.2632 -0.3811  0.3814
  834SOL    HW1 3248   2.482   4.014   1.594  1.1975 -1.7912  1.6338
  834SOL    HW2 3249   2.575   3.910   1.535  1.8931  0.4412 -1.4607
  835SOL     OW 3250   2.670   1.885   0.116  0.3704 -0.4018 -0.5961
  835SOL    HW1 3251   2.597   1.885   0.054 -0.5726 -0.5415  0.4855
  835SOL    HW2 3252   2.685   1.978   0.135 -0.0117 -0.4004 -0.2805
  836SOL     OW 3253   6.182   3.794   4.352 -0.4905 -0.4449  0.1629
  836SOL    HW1 3254   6.174   3.703   4.322 -0.6797 -0.5618  0.5701
  836SOL    HW2 3255   6.176   3.846   4.271 -1.4657 -0.7345  0.0357
  837SOL     OW 3256   1.476   5.522   5.825  0.2801  0.3054 -0.2862
  837SOL    HW1 3257   1.563   5.563   5.822  0.0187  0.9544  0.6873
  837SOL    HW2 3258   1.427   5.574   5.888 -0.9129  0.1072 -1.0134
  838SOL     OW 3259   4.711   2.146   0.832  0.9478  0.5369  0.1705
  838SOL    HW1 3260   4.754   2.075   0.879 -1.5111 -0.5064  1.0233
  838SOL    HW2 3261   4.682   2.206   0.900  0.3058  0.7497 -0.2770
  839SOL     OW 3262   4.288   2.800   5.933 -0.0498 -0.5260 -0.4368
  839SOL    HW1 3263   4.380   2.782   5.950 -0.1941 -2.0457 -1.0630
  839SOL    HW2 3264   4.242   2.725   5.971 -1.0922  0.5229  0.4351
  840SOL     OW 3265   3.095   5.414   0.978  0.0072 -0.1248 -0.1677
  840SOL    HW1 3266   3.060   5.324   0.974 -2.6936  0.8235 -0.1706
  840SOL    HW2 3267   3.017   5.469   0.973  1.6388  2.2579 -0.6847
  841SOL     OW 3268   4.979   4.109   4.537 -0.1038  0.5083  0.5401
  841SOL    HW1 3269   4.966   4.171   4.464  1.2550  0.8846  0.5938
  841SOL    HW2 3270   4.890   4.084   4.563 -0.6278 -0.0630 -1.5959
  842SOL     OW 3271   3.986   1.126   6.001  0.4250 -0.0306  0.7724
  842SOL    HW1 3272   4.015   1.035   5.995 -0.7729 -0.3855  0.0209
  842SOL    HW2 3273   3.961   1.149   5.912  0.1327  0.8435  1.0725
  843SOL     OW 3274   1.463   5.229   5.758  0.6718 -0.2981  0.1490
  843SOL    HW1 3275   1.553   5.207   5.733  1.0101  0.3485  0.7693
  843SOL    HW2 3276   1.468   5.320   5.787 -0.5164  0.3327 -1.4599
  844SOL     OW 3277   0.244   4.657   1.995  0.4388 -0.5606  0.0403
  844SOL    HW1 3278   0.216   4.598   2.065  0.1319  1.0639  1.3275
  844SOL    HW2 3279   0.332   4.627   1.973  0.2243 -1.6074  0.5395
  845SOL     OW 3280   1.358   2.032   4.606  0.3075 -0.5892 -0.2740
  845SOL    HW1 3281   1.322   2.064   4.689 -0.1142 -1.7816  0.0285
  845SOL    HW2 3282   1.431   2.092   4.587 -0.9480  1.0286 -0.1988
  846SOL     OW 3283   0.602   2.275   5.808  0.3500  0.8052  0.6113
  846SOL    HW1 3284   0.593   2.337   5.735 -0.0932 -0.0704 -0.1003
  846SOL    HW2 3285   0.551   2.199   5.781  4.1717 -1.6504 -0.4715
  847SOL     OW 3286   3.948   1.487   3.808 -0.2445  0.0284  0.5144
  847SOL    HW1 3287   3.902   1.539   3.873 -3.5328 -0.3462 -1.2584
  847SOL    HW2 3288   3.900   1.504   3.726  1.8321 -1.7483 -1.1914
  848SOL     OW 3289   6.151   5.893   4.405  0.3063  0.2443 -0.1261
  848SOL    HW1 3290   6.199   5.974   4.386 -1.6869  1.5340  0.0393
  848SOL    HW2 3291   6.096   5.879   4.327 -2.8562  1.7574  1.6491
  849SOL     OW 3292   0.386   1.327   3.655 -0.0042 -0.4584 -1.4453
  849SOL    HW1 3293   0.367   1.250   3.709  0.7201 -1.0705 -2.0565
  849SOL    HW2 3294   0.311   1.385   3.670 -0.0158 -0.7765 -0.0836
  850SOL     OW 3295   5.411   4.476   4.430 -0.4202  0.1848 -0.4669
  850SOL    HW1 3296   5.488   4.422   4.450 -0.3905 -0.6913 -2.6860
  850SOL    HW2 3297   5.356   4.419   4.376 -2.7246  0.7502  1.1664
  851SOL     OW 3298   2.821   3.840   5.677 -0.6854 -0.0661 -0.2739
  851SOL    HW1 3299   2.730   3.867   5.690 -0.6976  0.6470 -1.6064
  851SOL    HW2 3300   2.872   3.904   5.726 -0.8518  0.4503 -0.7633
  852SOL     OW 3301   5.246   0.862   2.411  0.7320 -1.0646 -0.3547
  852SOL    HW1 3302   5.157   0.891   2.428  1.6491  1.0257  1.4363
  852SOL    HW2 3303   5.245   0.830   2.321 -1.4228  0.5864 -0.9819
  853SOL     OW 3304   2.247   4.846   1.561 -0.1412 -1.0723  0.4943
  853SOL    HW1 3305   2.205   4.773   1.606 -0.5757  1.0583  3.9380
  853SOL    HW2 3306   2.331   4.857   1.605  0.2404  0.0191 -0.4510
  854SOL     OW 3307   3.242   4.766   6.104  0.6686 -0.6363  0.7703
  854SOL    HW1 3308   3.313   4.826   6.126 -0.5893  0.9810  0.5481
  854SOL    HW2 3309   3.212   4.733   6.189  1.6151 -1.2979  0.8705
  855SOL     OW 3310   3.808   1.410   1.757  0.2676  0.1447  0.0361
  855SOL    HW1 3311   3.727   1.461   1.751  0.3223  0.3703  1.0305
  855SOL    HW2 3312   3.807   1.375   1.846  1.1756 -0.0036 -0.0068
  856SOL     OW 3313   3.627   5.190   6.265  0.3166  0.0516  0.3297
  856SOL    HW1 3314   3.608   5.097   6.254 -0.0604  0.1022  0.5257
  856SOL    HW2 3315   3.694   5.192   6.334 -0.9776  0.0032  1.6608
  857SOL     OW 3316   5.292   4.175   5.514 -0.1021 -0.2019 -0.2584
  857SOL    HW1 3317   5.330   4.262   5.517 -0.4248 -0.0728  0.0908
  857SOL    HW2 3318   5.198   4.189   5.517 -0.1423 -0.6298  2.0153
  858SOL     OW 3319   0.521   2.429   4.067 -0.0781 -0.5266  0.3854
  858SOL    HW1 3320   0.540   2.350   4.017 -1.0756 -1.3937  1.3122
  858SOL    HW2 3321   0.432   2.453   4.041  0.5255  0.8128 -0.5233
  859SOL     OW 3322   4.003   4.180   2.090  0.1012 -0.2484 -0.6897
  859SOL    HW1 3323   3.946   4.245   2.130 -1.6668 -1.3038 -1.3516
  859SOL    HW2 3324   4.055   4.146   2.162 -0.9973 -0.1023  0.1971
  860SOL     OW 3325   2.958   5.189   2.059 -0.5799 -0.4900 -0.0867
  860SOL    HW1 3326   2.954   5.151   1.971 -1.9191 -2.0860  0.6222
  860SOL    HW2 3327   2.930   5.280   2.046 -2.5487 -1.1730 -1.0974
  861SOL     OW 3328   2.304   6.132   6.108 -0.1157 -0.0902  0.1198
  861SOL    HW1 3329   2.332   6.200   6.169 -0.1612 -1.5687  1.8775
  861SOL    HW2 3330   2.255   6.179   6.041 -0.4735  1.5591  1.4608
  862SOL     OW 3331   2.654   2.656   4.164 -0.1977  0.2123 -0.2235
  862SOL    HW1 3332   2.581   2.678   4.107  0.4023  1.1559 -0.6542
  862SOL    HW2 3333   2.712   2.732   4.158  1.7101 -1.2637 -1.3214
  863SOL     OW 3334   3.844   4.965   0.998 -0.1743 -0.3855 -0.1757
  863SOL    HW1 3335   3.807   5.052   0.989 -0.5411 -0.5237 -0.0225
  863SOL    HW2 3336   3.808   4.916   0.924 -0.7850 -0.6849  0.3080
  864SOL     OW 3337   1.323   2.200   2.929  0.4462  0.1744  0.1892
  864SOL    HW1 3338   1.265   2.239   2.995 -1.5897 -0.1894 -1.2763
  864SOL    HW2 3339   1.371   2.273   2.893  0.0465  0.6750  0.6525
  865SOL     OW 3340   2.573   2.470   0.351  0.2520  0.2897  0.1559
  865SOL    HW1 3341   2.604   2.560   0.356 -0.5995  0.6567 -0.9885
  865SOL    HW2 3342   2.638   2.420   0.401  0.4620  1.5857  1.2305
  866SOL     OW 3343   4.945   2.468   4.036  0.3144  0.0852  0.0986
  866SOL    HW1 3344   4.988   2.526   4.099  0.2100  2.5924 -1.9586
  866SOL    HW2 3345   4.856   2.501   4.030  0.6913  0.8344 -2.3150
  867SOL     OW 3346   4.466   2.032   5.521 -0.0446 -0.3575  0.1061
  867SOL    HW1 3347   4.499   2.027   5.431 -0.0127 -2.3165  0.1725
  867SOL    HW2 3348   4.376   1.998   5.515  0.0415 -0.7275  0.8456
  868SOL     OW 3349   1.099   0.065   3.800  0.9059 -0.4794  0.7304
  868SOL    HW1 3350   1.128   0.121   3.872  1.8446 -1.7793  1.4132
  868SOL    HW2 3351   1.171   0.068   3.738 -0.2115  1.2327 -0.5775
  869SOL     OW 3352   2.211   6.157   5.456 -0.5147  0.1136 -0.4024
  869SOL    HW1 3353   2.156   6.199   5.390 -2.6952 -1.8946  0.0165
  869SOL    HW2 3354   2.207   6.064   5.435  2.5453 -0.1787 -0.1316
  870SOL     OW 3355   3.671   5.760   4.602  0.0346  0.0473  0.0806
  870SOL    HW1 3356   3.723   5.796   4.530  1.2059  0.4847  1.0930
  870SOL    HW2 3357   3.721   5.784   4.680  0.3348 -2.8808  0.9014
  871SOL     OW 3358   3.964   2.718   0.661 -0.0484  0.6774 -0.1600
  871SOL    HW1 3359   4.003   2.798   0.696  0.3754  0.6311 -0.5232
  871SOL    HW2 3360   3.961   2.733   0.566 -0.6703  0.5729 -0.1615
  872SOL     OW 3361   5.015   5.118   4.155  0.7174  0.0231  0.7625
  872SOL    HW1 3362   4.922   5.136   4.168  0.4195  0.5745 -1.5847
  872SOL    HW2 3363   5.052   5.203   4.132  1.3329 -0.5674 -0.5118
  873SOL     OW 3364   6.302   5.463   5.987 -0.1285 -0.0326 -0.6020
  873SOL    HW1 3365   6.307   5.526   6.060  0.7929  1.2909 -1.7414
  873SOL    HW2 3366   6.214   5.475   5.951 -0.5615 -0.6397  0.2245
  874SOL     OW 3367   4.822   1.456   0.406 -0.2341 -0.0850  0.1882
  874SOL    HW1 3368   4.792   1.487   0.491 -1.1085 -1.9098  0.6022
  874SOL    HW2 3369   4.917   1.465   0.409 -0.3386  0.8658  0.9233
  875SOL     OW 3370   5.953   0.636   0.459 -0.2892 -0.4917 -0.1989
  875SOL    HW1 3371   5.934   0.701   0.392 -1.2538 -0.0946  0.4327
  875SOL    HW2 3372   5.966   0.554   0.411 -2.8524 -0.6328 -0.8102
  876SOL     OW 3373   3.044   3.235   4.426  0.2988 -0.2804  0.5189
  876SOL    HW1 3374   3.007   3.147   4.417 -0.3614  0.0204  0.1638
  876SOL    HW2 3375   3.133   3.221   4.456  0.1667 -1.0691  0.5661
  877SOL     OW 3376   3.673   3.209   0.638 -0.0704 -0.2535 -0.2182
  877SOL    HW1 3377   3.606   3.196   0.571  0.1873 -1.4836 -0.2614
  877SOL    HW2 3378   3.647   3.150   0.709  0.1781  0.3301  0.3650
  878SOL     OW 3379   1.727   2.653   3.875  0.3222 -0.4132  0.2031
  878SOL    HW1 3380   1.716   2.591   3.947  1.9730 -0.8225  0.1573
  878SOL    HW2 3381   1.755   2.734   3.918 -0.5424 -0.0808  0.1563
  879SOL     OW 3382   0.212   2.372   0.950  0.4727 -1.0010 -0.2602
  879SOL    HW1 3383   0.220   2.383   0.856 -1.5544  2.5120 -0.1848
  879SOL    HW2 3384   0.275   2.433   0.988 -0.2458 -0.7716  0.6107
  880SOL     OW 3385   0.670   3.278   5.761  0.4555  0.1801  0.1240
  880SOL    HW1 3386   0.755   3.307   5.795  0.6415 -1.0835  0.7918
  880SOL    HW2 3387   0.657   3.331   5.682  1.2605  1.2929  0.7071
  881SOL     OW 3388   2.000   1.602   1.262  0.5334  0.1021 -0.4788
  881SOL    HW1 3389   1.966   1.536   1.322 -1.7271  0.8185 -0.8609
  881SOL    HW2 3390   2.095   1.594   1.268  0.3386 -1.6368  1.1548
  882SOL     OW 3391   1.873   1.793   3.489  0.1388 -0.1958  0.0758
  882SOL    HW1 3392   1.840   1.850   3.419  2.1866  0.5884 -0.3130
  882SOL    HW2 3393   1.921   1.852   3.548 -0.2839 -1.0765  1.3554
  883SOL     OW 3394   4.281   0.303   5.088  0.2357 -0.3498  0.4179
  883SOL    HW1 3395   4.230   0.380   5.111  1.6528  0.0900  2.3608
  883SOL    HW2 3396   4.352   0.337   5.033 -0.1828 -0.5809 -0.2771
  884SOL     OW 3397   3.131   2.518   0.181 -0.1000 -0.3187 -0.0212
  884SOL    HW1 3398   3.128   2.601   0.134  1.3991  0.1051  0.5710
  884SOL    HW2 3399   3.153   2.454   0.114 -0.7772 -0.1776 -0.3905
  885SOL     OW 3400   0.346   0.410   1.336 -0.2876 -0.3563  0.2062
  885SOL    HW1 3401   0.324   0.337   1.278 -0.7859 -0.5819  0.6637
  885SOL    HW2 3402   0.329   0.488   1.283  0.5738 -0.5636 -0.3977
  886SOL     OW 3403   5.230   2.142   4.725 -0.3073 -0.6381  0.8718
  886SOL    HW1 3404   5.176   2.108   4.653 -2.0016 -0.5496  2.0317
  886SOL    HW2 3405   5.304   2.082   4.730  1.0876  0.5621 -2.3003
  887SOL     OW 3406   1.775   0.446   5.805 -0.5277  0.2364 -0.3249
  887SOL    HW1 3407   1.820   0.411   5.728 -0.5459 -0.2085 -0.1367
  887SOL    HW2 3408   1.835   0.427   5.878 -0.2682  1.1210 -0.2938
  888SOL     OW 3409   5.765   5.139   0.131  0.2057 -0.2991 -0.3721
  888SOL    HW1 3410   5.849   5.133   0.086 -0.1270 -0.5378 -0.9745
  888SOL    HW2 3411   5.731   5.226   0.107 -0.1324 -0.5649 -0.8877
  889SOL     OW 3412   1.865   2.855   5.456 -0.3478 -0.3652  0.1201
  889SOL    HW1 3413   1.834   2.887   5.371 -1.5321  0.3395  0.7801
  889SOL    HW2 3414   1.790   2.810   5.494 -0.8007  1.7048  1.9384
  890SOL     OW 3415   3.362   3.367   4.180  0.2179  0.4643  0.5692
  890SOL    HW1 3416   3.326   3.452   4.154 -1.9049  0.0363  1.9019
  890SOL    HW2 3417   3.325   3.305   4.118  0.6153  0.3082  0.4836
  891SOL     OW 3418   0.929   6.191   0.184 -0.1017 -0.4051 -0.3014
  891SOL    HW1 3419   0.983   6.260   0.146  0.0860 -0.6427 -0.4693
  891SOL    HW2 3420   0.842   6.203   0.145 -0.6515  1.0288  1.2283
  892SOL     OW 3421   5.876   6.062   1.120 -0.4179  0.5579 -0.5043
  892SOL    HW1 3422   5.839   6.142   1.157 -1.0310  0.8053 -1.6152
  892SOL    HW2 3423   5.842   6.058   1.031  0.5332 -0.3451 -0.8528
  893SOL     OW 3424   3.301   3.990   2.780  0.0825  0.4048  0.1724
  893SOL    HW1 3425   3.345   3.995   2.865 -2.6469 -0.8023  1.7636
  893SOL    HW2 3426   3.292   4.081   2.753  2.9732  0.7259  0.0071
  894SOL     OW 3427   2.666   3.526   2.144 -0.0252  0.3274 -0.4536
  894SOL    HW1 3428   2.714   3.597   2.185  1.2659 -0.8453  0.1821
  894SOL    HW2 3429   2.663   3.549   2.051  0.1197  1.3378 -0.2104
  895SOL     OW 3430   3.286   0.254   1.367  0.2276  0.0859 -0.0719
  895SOL    HW1 3431   3.340   0.175   1.371  1.6452  1.0501  0.3498
  895SOL    HW2 3432   3.347   0.324   1.347 -0.6367  1.4086  1.6485
  896SOL     OW 3433   5.959   3.018   6.258  0.4171 -0.1569 -0.6216
  896SOL    HW1 3434   6.048   2.982   6.252 -0.2508 -1.8241 -1.3155
  896SOL    HW2 3435   5.948   3.068   6.177 -0.4041 -2.8836 -2.3523
  897SOL     OW 3436   4.932   1.763   0.115 -0.5013 -0.0812 -0.5169
  897SOL    HW1 3437   4.989   1.708   0.062 -0.4188  2.8415 -3.8254
  897SOL    HW2 3438   4.852   1.712   0.125  0.5720 -1.9265 -0.8257
  898SOL     OW 3439   1.745   3.983   6.071 -0.3210 -0.3572  0.8539
  898SOL    HW1 3440   1.723   4.071   6.102  0.0088  0.5203 -1.2067
  898SOL    HW2 3441   1.698   3.924   6.129 -1.2322  1.2127  1.7807
  899SOL     OW 3442   3.640   0.016   2.046  0.1996  0.3913 -0.0918
  899SOL    HW1 3443   3.727   0.009   2.086  0.7652  1.8002 -0.9988
  899SOL    HW2 3444   3.653  -0.010   1.955 -0.3964  0.3460 -0.1701
  900SOL     OW 3445   3.854   6.135   0.508 -0.1561  0.4428  0.3347
  900SOL    HW1 3446   3.843   6.081   0.586 -1.2945  1.8153  1.1829
  900SOL    HW2 3447   3.883   6.074   0.440 -0.3816 -1.0190  1.4992
  901SOL     OW 3448   5.674   0.015   3.252  0.1524 -0.6316  0.2932
  901SOL    HW1 3449   5.620   0.094   3.254  0.9241 -0.0953  0.8248
  901SOL    HW2 3450   5.731   0.027   3.176 -0.3630 -1.1251 -0.1780
  902SOL     OW 3451   4.927   3.203   1.160 -0.2718  0.0309 -0.0914
  902SOL    HW1 3452   4.954   3.170   1.245 -0.2050 -0.5254 -0.3231
  902SOL    HW2 3453   4.880   3.284   1.179  2.2715  1.5323  0.2787
  903SOL     OW 3454   1.962   0.034   4.145  0.4761  0.2882  0.3333
  903SOL    HW1 3455   1.990  -0.026   4.076  0.2320  0.5162  0.0337
  903SOL    HW2 3456   2.036   0.094   4.156  1.2946 -0.8855  1.5997
  904SOL     OW 3457   2.875   2.346   1.221 -0.4324 -0.6012 -0.0693
  904SOL    HW1 3458   2.869   2.323   1.128  2.9100 -0.5368 -0.4054
  904SOL    HW2 3459   2.867   2.262   1.267  0.1868 -0.9383 -0.5656
  905SOL     OW 3460   2.949   4.000   1.121  0.3870 -0.8725 -0.6426
  905SOL    HW1 3461   2.865   3.961   1.147 -0.1930  0.3951 -0.5047
  905SOL    HW2 3462   2.963   3.971   1.031 -0.8664 -0.0875 -1.1244
  906SOL     OW 3463   0.899   5.559   2.114 -0.2615  0.1583  0.0272
  906SOL    HW1 3464   0.894   5.645   2.157 -0.5501 -0.4002  1.1606
  906SOL    HW2 3465   0.897   5.579   2.021  0.8393  1.4566  0.2388
  907SOL     OW 3466   4.593   5.933   5.323  0.4269 -0.1191  0.1713
  907SOL    HW1 3467   4.640   5.982   5.391  1.3054  0.4927 -0.8596
  907SOL    HW2 3468   4.533   5.997   5.285  0.2409 -0.3507  0.0757
  908SOL     OW 3469   5.751   4.491   4.022 -0.3405 -0.4196 -0.4429
  908SOL    HW1 3470   5.664   4.453   4.029  0.0093 -1.4119 -1.1574
  908SOL    HW2 3471   5.772   4.521   4.110 -0.6892 -1.8376  0.1513
  909SOL     OW 3472   2.831   1.991   2.671 -0.7354 -0.0821  0.2769
  909SOL    HW1 3473   2.776   2.060   2.635  0.2315  1.6650  1.9557
  909SOL    HW2 3474   2.779   1.911   2.661 -1.9927  0.8948 -1.4983
  910SOL     OW 3475   0.803   0.603   3.301  0.1484  0.2256 -0.0757
  910SOL    HW1 3476   0.718   0.636   3.327  0.5008  0.9883  0.1428
  910SOL    HW2 3477   0.788   0.512   3.276 -0.5813  0.1256  0.7223
  911SOL     OW 3478   0.588   1.020   5.079 -0.2191 -0.0700  0.6688
  911SOL    HW1 3479   0.581   1.033   5.173  0.1632  0.4308  0.6351
  911SOL    HW2 3480   0.683   1.020   5.062 -0.2679 -0.6933  0.3544
  912SOL     OW 3481   2.548   0.674   5.792 -0.4747 -0.4702 -0.1812
  912SOL    HW1 3482   2.543   0.585   5.757 -0.4604  0.2552 -2.1816
  912SOL    HW2 3483   2.628   0.711   5.752  0.1637  0.0908  1.5223
  913SOL     OW 3484   5.063   6.096   4.970  0.2607 -0.4926 -0.0817
  913SOL    HW1 3485   4.970   6.121   4.963  0.3921  0.8676  1.9719
  913SOL    HW2 3486   5.061   6.004   4.998 -0.3973 -1.0129 -1.7377
  914SOL     OW 3487   0.849   6.293   1.039  0.0586  0.2379  0.2169
  914SOL    HW1 3488   0.777   6.239   1.007  0.4290 -1.4633  2.0754
  914SOL    HW2 3489   0.922   6.274   0.979  0.1126 -1.2023  0.7038
  915SOL     OW 3490   3.231   3.863   3.253  0.0167 -0.0731  0.7698
  915SOL    HW1 3491   3.150   3.901   3.287 -0.4839  0.8788 -1.2950
  915SOL    HW2 3492   3.208   3.831   3.166  1.7005 -0.3812  0.3939
  916SOL     OW 3493   0.146   0.135   3.453  0.6826 -0.2910  0.1074
  916SOL    HW1 3494   0.190   0.199   3.509  0.4866  0.9487 -1.1249
  916SOL    HW2 3495   0.108   0.186   3.382 -0.2126 -1.6827 -0.4613
  917SOL     OW 3496   4.988   2.533   2.345 -0.1383  0.2954  0.0579
  917SOL    HW1 3497   4.928   2.530   2.420 -1.9001  0.1529 -1.3021
  917SOL    HW2 3498   4.977   2.449   2.301 -0.1948  0.9045 -1.1402
  918SOL     OW 3499   1.447   2.474   0.410 -0.2341  0.4959  0.2474
  918SOL    HW1 3500   1.351   2.473   0.414 -0.2261 -1.2320  2.3841
  918SOL    HW2 3501   1.473   2.390   0.450  2.1680  1.4197  0.7841
  919SOL     OW 3502   1.887   2.557   0.143 -0.0692 -0.0575 -0.0143
  919SOL    HW1 3503   1.875   2.514   0.059  2.8160 -1.4183  0.1364
  919SOL    HW2 3504   1.801   2.553   0.185 -0.6451 -2.9910 -1.2626
  920SOL     OW 3505   0.251   5.116   4.489  0.3451 -0.5993  0.3188
  920SOL    HW1 3506   0.216   5.041   4.536 -1.2211 -0.5809 -0.7366
  920SOL    HW2 3507   0.274   5.179   4.558 -0.0017 -1.3450  1.1318
  921SOL     OW 3508   4.074   1.891   5.782  0.4593  0.3694 -0.6324
  921SOL    HW1 3509   4.087   1.846   5.865 -0.1662 -0.0156 -0.7370
  921SOL    HW2 3510   4.161   1.918   5.755  0.7456 -0.0936 -0.1779
  922SOL     OW 3511   4.884   2.681   4.950  0.0712 -0.0091  0.1898
  922SOL    HW1 3512   4.847   2.748   5.008 -2.8790 -1.9944  0.8273
  922SOL    HW2 3513   4.957   2.644   5.000 -0.8486  0.0174  1.5990
  923SOL     OW 3514   0.717   6.223   5.743  0.2743  0.3364  0.3535
  923SOL    HW1 3515   0.703   6.128   5.742 -0.0316  0.3814  0.3809
  923SOL    HW2 3516   0.797   6.234   5.793  0.9367  0.0115 -0.6042
  924SOL     OW 3517   0.989   4.048   4.292  0.0473 -0.1086  0.4153
  924SOL    HW1 3518   0.971   4.077   4.202  0.7031 -0.1274  0.2742
  924SOL    HW2 3519   0.963   3.956   4.293 -0.2774 -0.0210  0.3424
  925SOL     OW 3520   5.018   5.232   1.846  0.1291 -0.2551 -0.4965
  925SOL    HW1 3521   4.960   5.233   1.770  1.1491 -0.7672 -1.3021
  925SOL    HW2 3522   5.020   5.141   1.874  0.9431 -0.3361 -0.7978
  926SOL     OW 3523   5.231   1.861   2.148  0.5949  0.2666  0.4161
  926SOL    HW1 3524   5.136   1.867   2.155  0.5848  2.1520 -0.5959
  926SOL    HW2 3525   5.251   1.769   2.162 -1.3256 -0.0757  1.1624
  927SOL     OW 3526   0.751   3.902   6.154  0.4328 -0.0714 -0.0115
  927SOL    HW1 3527   0.696   3.980   6.157 -0.5238 -0.6395 -1.8005
  927SOL    HW2 3528   0.786   3.900   6.065  3.0470  0.0188  0.9358
  928SOL     OW 3529   5.666   1.796   1.829 -0.6630 -0.2559 -0.1258
  928SOL    HW1 3530   5.703   1.856   1.893  0.5151  0.2888 -1.2730
  928SOL    HW2 3531   5.595   1.752   1.876 -0.2898  0.6139  1.3247
  929SOL     OW 3532   6.209   4.234   1.172  0.2819  0.7816  0.5446
  929SOL    HW1 3533   6.154   4.261   1.245 -0.1636  1.9367 -0.1975
  929SOL    HW2 3534   6.238   4.316   1.132  2.8926  0.2389  1.1448
  930SOL     OW 3535   0.111   2.285   5.077 -0.2211 -0.2648 -0.3000
  930SOL    HW1 3536   0.191   2.244   5.046 -0.6096 -0.2688 -1.3316
  930SOL    HW2 3537   0.062   2.306   4.998 -1.2607 -0.2932  0.3138
  931SOL     OW 3538   2.973   3.647   1.950 -0.2061  0.0781  0.3557
  931SOL    HW1 3539   3.026   3.726   1.941 -0.5765  0.1775 -1.2251
  931SOL    HW2 3540   3.032   3.576   1.929 -0.7117  0.2040 -1.6211
  932SOL     OW 3541   2.963   0.461   3.115 -0.0692 -0.2372 -0.1444
  932SOL    HW1 3542   3.035   0.408   3.150  0.8588  0.3725 -1.0953
  932SOL    HW2 3543   2.966   0.542   3.165  0.1071 -0.0826 -0.4076
  933SOL     OW 3544   4.804   5.325   5.432  0.2392 -0.0641 -0.2398
  933SOL    HW1 3545   4.755   5.403   5.407 -0.4370  0.5693  2.6532
  933SOL    HW2 3546   4.894   5.356   5.445 -0.0166  0.2864  0.8501
  934SOL     OW 3547   2.646   4.512   3.413  0.1430 -0.5729  0.1305
  934SOL    HW1 3548   2.566   4.469   3.385  0.1288 -0.3825 -0.1254
  934SOL    HW2 3549   2.709   4.440   3.426  0.4164 -0.6072 -1.2553
  935SOL     OW 3550   2.969   5.700   6.202 -0.7604 -0.1010  0.0046
  935SOL    HW1 3551   3.033   5.708   6.131 -0.5296 -0.7246  0.1372
  935SOL    HW2 3552   3.010   5.641   6.265 -1.3459 -0.2857  0.2178
  936SOL     OW 3553   2.667   2.042   3.836 -0.4320 -0.3036 -0.5368
  936SOL    HW1 3554   2.681   1.993   3.756  0.3083 -1.7603  0.4528
  936SOL    HW2 3555   2.715   1.994   3.903  1.6413  2.6101  0.2348
  937SOL     OW 3556   3.365   6.292   4.012  0.1047  0.0258  0.5588
  937SOL    HW1 3557   3.300   6.341   4.062  0.9021  1.7092  0.0443
  937SOL    HW2 3558   3.345   6.313   3.921  0.9736  0.0527  0.3692
  938SOL     OW 3559   2.169   5.141   4.533 -0.1487  1.1161 -0.0979
  938SOL    HW1 3560   2.141   5.099   4.614 -1.3315 -0.4926 -1.2653
  938SOL    HW2 3561   2.264   5.131   4.532 -0.3906 -2.5748 -0.7338
  939SOL     OW 3562   5.376   5.870   4.126 -0.3338  0.0715  0.0698
  939SOL    HW1 3563   5.461   5.865   4.170 -0.2680 -0.9249 -0.1386
  939SOL    HW2 3564   5.389   5.932   4.055  0.0812  0.2845  0.3285
  940SOL     OW 3565   5.654   0.348   5.832  0.4686 -0.0174  0.5602
  940SOL    HW1 3566   5.656   0.396   5.915  0.4898  3.3184 -1.1873
  940SOL    HW2 3567   5.560   0.344   5.810  0.3159 -2.2880  1.3883
  941SOL     OW 3568   3.217   2.950   3.399 -0.3084  0.5439  0.2828
  941SOL    HW1 3569   3.269   2.931   3.477 -0.4936  0.3656  0.3643
  941SOL    HW2 3570   3.200   3.044   3.403 -0.2289  0.5534  0.4010
  942SOL     OW 3571   2.325   1.246   5.540 -0.3197  0.3872 -0.2724
  942SOL    HW1 3572   2.278   1.176   5.585 -0.0846  0.7364  0.5213
  942SOL    HW2 3573   2.382   1.200   5.478 -1.1274 -0.0679 -0.6948
  943SOL     OW 3574   0.868   0.766   3.546 -0.0487  0.2125  0.5669
  943SOL    HW1 3575   0.888   0.686   3.594 -0.7161  0.4914  1.3427
  943SOL    HW2 3576   0.906   0.753   3.459 -1.0299 -1.3818  0.3346
  944SOL     OW 3577   5.967   4.585   4.210 -0.3643 -0.3977  0.3868
  944SOL    HW1 3578   6.049   4.564   4.166 -0.5279 -0.7147  0.2296
  944SOL    HW2 3579   5.952   4.512   4.269 -1.7969 -1.6284 -1.3698
  945SOL     OW 3580   3.254   3.028   2.193  0.1847 -0.0673  0.5503
  945SOL    HW1 3581   3.175   3.082   2.195  0.1776 -0.0362 -0.4244
  945SOL    HW2 3582   3.237   2.959   2.258  0.8856  1.9928  3.0835
  946SOL     OW 3583   3.069   4.573   4.200  0.2346  0.3413  0.8738
  946SOL    HW1 3584   3.145   4.564   4.257  0.5899  2.3525  0.7658
  946SOL    HW2 3585   2.995   4.581   4.261  0.5374  1.8347  1.0799
  947SOL     OW 3586   2.576   4.723   4.552 -0.1978  0.1105 -0.8920
  947SOL    HW1 3587   2.606   4.813   4.564 -1.7317  0.5709 -0.3257
  947SOL    HW2 3588   2.587   4.707   4.458  0.1960  0.8534 -0.9810
  948SOL     OW 3589   3.569   4.582   2.445 -0.4324  0.0188 -0.6918
  948SOL    HW1 3590   3.610   4.541   2.521  0.3685 -0.4084 -1.3395
  948SOL    HW2 3591   3.509   4.515   2.411  0.5876 -0.4881 -1.5208
  949SOL     OW 3592   5.192   1.804   5.433 -0.0851  0.4565  0.4177
  949SOL    HW1 3593   5.122   1.855   5.392  0.1896  0.4783 -0.0259
  949SOL    HW2 3594   5.175   1.714   5.408  0.0032  0.4521  0.3737
  950SOL     OW 3595   4.311   4.657   0.157  0.3604 -0.1995  0.6420
  950SOL    HW1 3596   4.268   4.578   0.123 -0.0210 -0.0369  0.7457
  950SOL    HW2 3597   4.254   4.686   0.229 -1.0595  1.7829 -1.1719
  951SOL     OW 3598   5.680   0.998   2.672  0.6428  0.3514 -0.0012
  951SOL    HW1 3599   5.664   0.981   2.765  1.8995  1.4838  0.4491
  951SOL    HW2 3600   5.602   0.965   2.628  0.3434 -0.9046  1.3735
  952SOL     OW 3601   3.060   6.091   1.050  0.1717  0.1683  0.2938
  952SOL    HW1 3602   3.103   6.175   1.034  0.1092 -0.3426 -3.3182
  952SOL    HW2 3603   2.966   6.113   1.054  0.1417  0.2751 -0.8067
  953SOL     OW 3604   0.527   1.203   0.757 -0.0249 -0.2105  0.0876
  953SOL    HW1 3605   0.551   1.213   0.665 -0.2460  0.0909  0.0610
  953SOL    HW2 3606   0.547   1.112   0.778 -1.3614 -0.6987 -0.6637
  954SOL     OW 3607   0.980   1.986   4.586  0.4660  0.3122 -0.1852
  954SOL    HW1 3608   0.997   2.017   4.675 -0.9676 -1.0719  0.6026
  954SOL    HW2 3609   0.890   2.014   4.567  0.0137 -1.1776 -0.3800
  955SOL     OW 3610   0.499   3.434   2.030 -0.4742 -0.6495  0.5892
  955SOL    HW1 3611   0.448   3.393   1.961 -1.3712  0.1414  0.7597
  955SOL    HW2 3612   0.587   3.400   2.019 -0.7858 -1.1327 -0.4547
  956SOL     OW 3613   4.386   0.195   2.730 -0.2487 -0.4937 -0.1230
  956SOL    HW1 3614   4.389   0.235   2.817 -0.2912  1.4219 -0.9393
  956SOL    HW2 3615   4.361   0.104   2.745  0.1315 -0.3043  1.8826
  957SOL     OW 3616   4.173   1.789   0.386  0.2288  0.6266 -0.2941
  957SOL    HW1 3617   4.259   1.756   0.358  0.4965  0.5736  0.5701
  957SOL    HW2 3618   4.174   1.780   0.481 -1.4740 -1.1635 -0.3811
  958SOL     OW 3619   5.105   6.105   2.244  0.3785  0.1636 -0.0975
  958SOL    HW1 3620   5.108   6.027   2.299  0.6721  0.4799  0.3477
  958SOL    HW2 3621   5.065   6.172   2.300  1.8565  0.8447  0.2007
  959SOL     OW 3622   5.949   3.282   2.008 -0.7898  0.6293 -0.0615
  959SOL    HW1 3623   5.977   3.272   2.099 -1.6838 -1.0289  0.0692
  959SOL    HW2 3624   5.904   3.367   2.006  0.3353  1.2671  0.7255
  960SOL     OW 3625   3.352   5.870   2.316 -0.3873  0.5262  0.7341
  960SOL    HW1 3626   3.360   5.925   2.238 -1.6862  2.2442  1.7459
  960SOL    HW2 3627   3.388   5.924   2.387 -3.4529  0.9757  2.0963
  961SOL     OW 3628   5.223   4.456   3.895 -0.0423 -0.0290 -0.5203
  961SOL    HW1 3629   5.212   4.470   3.989 -0.0719 -1.4802 -0.2829
  961SOL    HW2 3630   5.269   4.372   3.889  0.3996  0.2874 -1.7919
  962SOL     OW 3631   5.887   6.006   2.971 -0.0569 -0.4410 -0.1535
  962SOL    HW1 3632   5.926   6.016   3.058  0.0748 -0.6633 -0.1857
  962SOL    HW2 3633   5.799   5.971   2.988 -1.1552  2.1642  0.0680
  963SOL     OW 3634   1.236   5.873   4.023  0.2470 -0.2628 -0.0752
  963SOL    HW1 3635   1.329   5.852   4.036  0.5712  1.1247 -0.0149
  963SOL    HW2 3636   1.227   5.882   3.928  0.0293 -0.9624 -0.1289
  964SOL     OW 3637   5.982   0.048   0.194  0.5962  0.3685 -0.0291
  964SOL    HW1 3638   5.923  -0.004   0.249  0.7556  1.3800  1.1250
  964SOL    HW2 3639   6.062  -0.004   0.190 -0.1829 -0.8126 -1.2526
  965SOL     OW 3640   1.939   3.614   0.452  0.1061 -0.1389 -0.0918
  965SOL    HW1 3641   1.907   3.704   0.445 -0.1535 -0.2097  0.1458
  965SOL    HW2 3642   1.942   3.582   0.362 -0.7028 -0.1963 -0.1073
  966SOL     OW 3643   1.787   3.183   0.485 -0.3506 -0.2205 -0.1695
  966SOL    HW1 3644   1.728   3.212   0.555 -1.2730 -1.4781 -0.3691
  966SOL    HW2 3645   1.788   3.087   0.494  1.1045 -0.2686 -0.6371
  967SOL     OW 3646   6.033   4.960   4.863  0.7086  0.4275 -0.2392
  967SOL    HW1 3647   6.082   4.984   4.785  0.9637  1.6907  0.2780
  967SOL    HW2 3648   6.052   5.030   4.926 -1.6763  0.9311  0.0208
  968SOL     OW 3649   4.886   1.484   4.573  0.2667  0.6160 -0.2235
  968SOL    HW1 3650   4.852   1.396   4.592 -0.5433  0.8423 -0.5689
  968SOL    HW2 3651   4.824   1.520   4.510  0.8535  1.2684 -0.4386
  969SOL     OW 3652   3.140   3.994   2.261  0.1330  0.0197  0.0804
  969SOL    HW1 3653   3.207   4.047   2.216  0.4244 -0.6622 -0.3132
  969SOL    HW2 3654   3.124   4.040   2.343  0.4130  0.6910 -0.2307
  970SOL     OW 3655   3.525   4.694   5.412 -0.6678  0.7589  0.1256
  970SOL    HW1 3656   3.532   4.761   5.480  0.4009  1.4687 -0.6642
  970SOL    HW2 3657   3.431   4.677   5.405 -0.8606  1.3139  1.1501
  971SOL     OW 3658   4.057   2.362   3.820  0.4174  0.2645  0.4276
  971SOL    HW1 3659   4.002   2.440   3.815  0.4688  0.1992 -1.9292
  971SOL    HW2 3660   4.127   2.386   3.881  0.6259  2.1960 -0.5124
  972SOL     OW 3661   5.026   2.255   5.884 -0.1353  0.1144  0.3277
  972SOL    HW1 3662   5.036   2.339   5.839 -0.9865  0.6207  1.0450
  972SOL    HW2 3663   4.937   2.227   5.863  0.0571 -0.4917  0.2993
  973SOL     OW 3664   3.762   5.427   1.438  0.0922 -0.1823  0.2530
  973SOL    HW1 3665   3.834   5.381   1.482 -0.0099 -0.7853 -0.1884
  973SOL    HW2 3666   3.796   5.514   1.420  0.4486 -0.2189  0.7129
  974SOL     OW 3667   3.790   4.094   5.227 -0.7808  0.1879 -0.6056
  974SOL    HW1 3668   3.717   4.113   5.286  0.1610  0.9853  0.3583
  974SOL    HW2 3669   3.766   4.012   5.184 -1.4849 -0.4433  0.9213
  975SOL     OW 3670   2.586   4.343   0.386 -0.8217  0.6100 -0.1835
  975SOL    HW1 3671   2.664   4.350   0.332  0.0426 -1.0765  0.7672
  975SOL    HW2 3672   2.513   4.339   0.324 -0.6191  5.3095 -1.0963
  976SOL     OW 3673   1.390   5.970   0.389  0.2429 -0.1440 -0.1787
  976SOL    HW1 3674   1.330   5.991   0.317  0.9499  0.3167 -0.6514
  976SOL    HW2 3675   1.430   5.887   0.363  2.7726  1.4665 -1.8963
  977SOL     OW 3676   2.423   0.750   0.136  0.1543 -0.4020  0.1397
  977SOL    HW1 3677   2.341   0.766   0.183  0.6293  1.8602  0.3256
  977SOL    HW2 3678   2.471   0.687   0.191 -0.8968 -0.7368  0.6935
  978SOL     OW 3679   5.190   0.602   0.368 -0.3347 -0.1258  0.3770
  978SOL    HW1 3680   5.103   0.587   0.331 -1.3116  0.8925  2.1430
  978SOL    HW2 3681   5.226   0.514   0.378 -1.9291 -0.7143  1.3465
  979SOL     OW 3682   5.365   2.432   5.637  0.4302 -0.1048  0.2984
  979SOL    HW1 3683   5.344   2.361   5.697  0.0025 -0.4976 -0.3078
  979SOL    HW2 3684   5.455   2.415   5.611 -0.5003 -2.0428 -1.9884
  980SOL     OW 3685   2.042   1.132   6.299  0.0707 -0.0480 -0.3611
  980SOL    HW1 3686   2.085   1.050   6.326 -1.0813 -0.3424  0.6983
  980SOL    HW2 3687   1.954   1.104   6.271 -0.4935  0.8504  0.4459
  981SOL     OW 3688   0.152   0.376   4.804 -0.6150 -0.6332 -0.2644
  981SOL    HW1 3689   0.075   0.372   4.747 -0.6453 -1.5572 -0.1737
  981SOL    HW2 3690   0.120   0.351   4.890 -0.6205  1.0110  0.2478
  982SOL     OW 3691   3.013   6.236   5.976 -0.3281 -0.3045  0.0041
  982SOL    HW1 3692   2.942   6.193   6.024  0.1088  0.1904  1.1298
  982SOL    HW2 3693   2.982   6.240   5.885 -0.8247 -2.0034  0.0747
  983SOL     OW 3694   2.902   1.470   4.377  0.3034  0.2045 -0.3921
  983SOL    HW1 3695   2.991   1.437   4.365  0.8929  1.4397  0.3850
  983SOL    HW2 3696   2.888   1.466   4.472 -0.2911  0.4393 -0.4682
  984SOL     OW 3697   0.538   5.191   3.136  0.1155 -0.0886 -0.0535
  984SOL    HW1 3698   0.489   5.155   3.062 -1.1464  0.6234  0.3965
  984SOL    HW2 3699   0.471   5.214   3.200  1.0864  0.5057  0.7849
  985SOL     OW 3700   3.189   4.232   3.087 -0.3144 -0.1619 -0.2377
  985SOL    HW1 3701   3.266   4.176   3.074 -0.5630 -0.3098 -1.1580
  985SOL    HW2 3702   3.226   4.319   3.103  0.0580 -0.1137 -1.2492
  986SOL     OW 3703   0.983   4.777   1.465 -1.0156  0.2583  0.1953
  986SOL    HW1 3704   1.042   4.823   1.525 -1.8107  0.1114  1.1243
  986SOL    HW2 3705   0.989   4.826   1.383  1.0890 -0.3077 -0.0306
  987SOL     OW 3706   4.324   3.863   2.622  0.0699  0.3122 -0.4110
  987SOL    HW1 3707   4.361   3.894   2.705 -1.3787  1.9644 -0.3218
  987SOL    HW2 3708   4.236   3.834   2.643  0.8458 -2.6985 -0.7967
  988SOL     OW 3709   4.151   0.261   4.115 -0.2005  0.5296 -0.4639
  988SOL    HW1 3710   4.115   0.173   4.103 -0.5925  0.7174 -0.6840
  988SOL    HW2 3711   4.226   0.265   4.056 -0.6703  0.6208 -1.0593
  989SOL     OW 3712   2.658   0.896   0.072  0.2742 -0.7066 -0.8829
  989SOL    HW1 3713   2.634   0.950  -0.003 -0.1862  0.8961  0.3649
  989SOL    HW2 3714   2.575   0.859   0.103 -0.1116  1.3346  0.7894
  990SOL     OW 3715   1.545   6.269   3.620  0.3060  0.9040  0.5594
  990SOL    HW1 3716   1.524   6.235   3.533 -0.2649  1.2602  0.5517
  990SOL    HW2 3717   1.475   6.331   3.639  0.8368  1.3939  0.9603
  991SOL     OW 3718   3.875   4.231   5.560 -0.5703  0.0301  0.5685
  991SOL    HW1 3719   3.824   4.201   5.485 -1.4248 -1.0788  1.5745
  991SOL    HW2 3720   3.961   4.190   5.548 -0.4392  0.5099 -0.2121
  992SOL     OW 3721   4.942   3.755   2.573 -0.1836  0.4433 -1.1723
  992SOL    HW1 3722   5.030   3.790   2.580 -0.0995  0.2171 -1.0911
  992SOL    HW2 3723   4.890   3.805   2.636  0.5949 -1.6958  1.3045
  993SOL     OW 3724   4.365   5.244   4.907 -0.1105 -0.2552 -0.0089
  993SOL    HW1 3725   4.369   5.293   4.989  0.2228 -1.5189  0.7613
  993SOL    HW2 3726   4.272   5.227   4.894 -0.1485 -0.2218  0.2107
  994SOL     OW 3727   5.331   4.413   0.411  0.2212 -0.6634 -0.6689
  994SOL    HW1 3728   5.359   4.419   0.320 -0.5291  0.8229 -0.8325
  994SOL    HW2 3729   5.409   4.435   0.462  0.4949 -0.9214 -0.9734
  995SOL     OW 3730   2.360   5.316   1.563 -0.4864  0.0779 -0.4475
  995SOL    HW1 3731   2.406   5.318   1.480  0.0979 -1.3942 -0.1855
  995SOL    HW2 3732   2.285   5.258   1.548  0.9604 -2.2290  0.6487
  996SOL     OW 3733   2.418   4.095   2.533 -0.1397 -0.3781  0.0418
  996SOL    HW1 3734   2.348   4.030   2.541 -1.0653  0.4639 -0.7877
  996SOL    HW2 3735   2.420   4.117   2.440 -0.2317  1.1566  0.3738
  997SOL     OW 3736   4.235   1.360   0.181  0.0973 -0.0049  0.2087
  997SOL    HW1 3737   4.252   1.423   0.250  0.6980 -1.8174  1.8093
  997SOL    HW2 3738   4.145   1.331   0.195 -0.5965  1.2993 -1.2586
  998SOL     OW 3739   2.538   2.972   4.722 -0.2589 -0.2859 -0.3250
  998SOL    HW1 3740   2.478   2.903   4.751 -0.6924  0.7362  1.3049
  998SOL    HW2 3741   2.480   3.043   4.695  0.2173  0.0185 -0.5449
  999SOL     OW 3742   5.699   2.933   3.082 -0.2831 -0.2177  0.4481
  999SOL    HW1 3743   5.608   2.957   3.099  0.7740  2.8403  2.8203
  999SOL    HW2 3744   5.729   2.998   3.018  0.5936 -0.2171  0.8494
 1000SOL     OW 3745   3.120   1.075   4.925  0.1326  0.2790 -0.3852
 1000SOL    HW1 3746   3.098   1.159   4.963  1.0082 -0.4302  1.9008
 1000SOL    HW2 3747   3.205   1.089   4.883 -0.2348  0.7604 -0.9921
 1001SOL     OW 3748   4.880   4.249   3.807  0.2479  0.0783 -0.1551
 1001SOL    HW1 3749   4.869   4.157   3.831  1.0670 -0.1427 -0.5675
 1001SOL    HW2 3750   4.803   4.293   3.843 -1.2770 -1.1038 -1.7335
 1002SOL     OW 3751   1.306   0.178   3.274  0.2510 -0.0726 -0.8774
 1002SOL    HW1 3752   1.246   0.228   3.219 -1.4347 -0.5806  0.4373
 1002SOL    HW2 3753   1.275   0.088   3.268 -0.9915  0.0709  2.1023
 1003SOL     OW 3754   3.450   0.426   2.078 -0.0644 -0.7071 -0.0354
 1003SOL    HW1 3755   3.405   0.368   2.139 -0.8008 -0.0594  0.0545
 1003SOL    HW2 3756   3.380   0.477   2.037  0.4386 -0.8905 -1.1740
 1004SOL     OW 3757   1.539   2.032   2.870  0.7719 -0.4332 -0.0110
 1004SOL    HW1 3758   1.596   2.087   2.816 -0.6694 -0.1916 -1.3601
 1004SOL    HW2 3759   1.478   2.093   2.911  1.9573 -0.5843  2.1608
 1005SOL     OW 3760   2.339   0.610   3.192 -0.4706 -0.0911  0.0729
 1005SOL    HW1 3761   2.333   0.527   3.240 -0.6885  0.6994  1.4645
 1005SOL    HW2 3762   2.433   0.623   3.179 -0.1889  0.7973  2.4078
 1006SOL     OW 3763   5.591   2.587   6.130 -0.2482  0.1871 -0.1553
 1006SOL    HW1 3764   5.538   2.509   6.143 -0.0520  0.2536  1.1453
 1006SOL    HW2 3765   5.592   2.631   6.215  1.0426  0.7220 -0.4135
 1007SOL     OW 3766   6.300   3.316   4.516 -0.1146 -0.3318 -0.0219
 1007SOL    HW1 3767   6.360   3.367   4.462 -0.7037  0.4212  0.0195
 1007SOL    HW2 3768   6.214   3.331   4.476 -0.5087 -0.0462  0.9220
 1008SOL     OW 3769   5.401   5.195   0.878 -0.1378  0.3438 -0.0975
 1008SOL    HW1 3770   5.415   5.204   0.783 -1.5316 -0.7536 -0.4310
 1008SOL    HW2 3771   5.481   5.153   0.910 -1.0259 -2.5549 -1.3851
 1009SOL     OW 3772   1.850   0.881   1.787 -0.4168 -0.0622 -0.7101
 1009SOL    HW1 3773   1.890   0.806   1.831  0.9079  1.3209  0.5592
 1009SOL    HW2 3774   1.876   0.957   1.840 -1.3680  1.3525 -2.1684
 1010SOL     OW 3775   0.234   2.735   5.901 -0.0396 -0.5711 -0.2988
 1010SOL    HW1 3776   0.308   2.690   5.859  1.1303  0.9735  0.0067
 1010SOL    HW2 3777   0.228   2.819   5.856 -1.4369 -0.5356 -0.1053
 1011SOL     OW 3778   4.744   1.328   4.190  0.2767  0.1207 -0.0602
 1011SOL    HW1 3779   4.690   1.295   4.262 -2.4202  3.5219 -0.2617
 1011SOL    HW2 3780   4.716   1.277   4.114 -2.9017  1.7455 -0.1468
 1012SOL     OW 3781   3.590   4.108   1.325  0.2782  0.0631 -0.3194
 1012SOL    HW1 3782   3.542   4.042   1.274  0.2283 -0.9517  0.9879
 1012SOL    HW2 3783   3.531   4.183   1.329  0.0429 -0.0644 -1.2465
 1013SOL     OW 3784   0.675   3.807   2.363  0.3323  0.0126  0.4350
 1013SOL    HW1 3785   0.652   3.873   2.297 -2.7772  2.6374  3.7448
 1013SOL    HW2 3786   0.602   3.746   2.361  0.7789 -0.5385  0.7292
 1014SOL     OW 3787   3.203   3.214   5.829 -0.5859 -0.2164  0.2410
 1014SOL    HW1 3788   3.275   3.170   5.784 -1.3614 -1.4873  0.1806
 1014SOL    HW2 3789   3.211   3.306   5.804  0.0086 -0.6135 -1.1191
 1015SOL     OW 3790   2.412   2.408   1.864  0.1887  0.1741 -0.1117
 1015SOL    HW1 3791   2.393   2.423   1.956 -0.6435 -0.3887 -0.1785
 1015SOL    HW2 3792   2.489   2.462   1.846  0.9143 -0.3985  1.1326
 1016SOL     OW 3793   5.207   3.614   4.560 -0.0857  0.1241 -0.0295
 1016SOL    HW1 3794   5.295   3.651   4.563  0.4697 -1.1656 -0.0386
 1016SOL    HW2 3795   5.179   3.612   4.651  0.2247 -0.2336  0.0591
 1017SOL     OW 3796   4.529   4.021   4.694  0.0568  0.6316 -0.5218
 1017SOL    HW1 3797   4.445   4.050   4.656 -0.9576 -1.0634  0.2972
 1017SOL    HW2 3798   4.541   4.075   4.771 -0.6241  0.4610 -0.2903
 1018SOL     OW 3799   5.491   6.109   3.482 -0.4611 -0.3173  0.0325
 1018SOL    HW1 3800   5.409   6.122   3.433 -0.2877  0.1668 -0.1348
 1018SOL    HW2 3801   5.555   6.088   3.414 -0.4157 -0.5748  0.1530
 1019SOL     OW 3802   5.916   3.064   2.654  0.2826 -0.3800  0.3669
 1019SOL    HW1 3803   5.823   3.057   2.635  0.1431 -2.4479  1.4978
 1019SOL    HW2 3804   5.921   3.093   2.745  0.6716 -1.4224  0.7040
 1020SOL     OW 3805   5.701   2.227   6.225 -0.5808 -0.6677 -0.4514
 1020SOL    HW1 3806   5.710   2.158   6.291  1.2310 -0.9394 -0.9254
 1020SOL    HW2 3807   5.791   2.251   6.203 -1.1645  0.5355 -1.6762
 1021SOL     OW 3808   4.518   1.682   5.362 -0.0458  0.0338 -0.7723
 1021SOL    HW1 3809   4.586   1.750   5.366 -1.2170  1.2354 -0.6242
 1021SOL    HW2 3810   4.498   1.675   5.269 -0.1295  0.1001 -0.7592
 1022SOL     OW 3811   5.598   5.236   5.991  0.1373  0.4680 -0.2407
 1022SOL    HW1 3812   5.639   5.267   5.910 -2.5296  2.4031 -0.9690
 1022SOL    HW2 3813   5.568   5.315   6.035  0.8847 -0.5932  2.3681
 1023SOL     OW 3814   0.516   3.265   1.730  0.0539  0.0562  0.1166
 1023SOL    HW1 3815   0.549   3.241   1.644  0.6560 -0.4626  0.4882
 1023SOL    HW2 3816   0.579   3.329   1.763  0.3175 -0.4089  0.5350
 1024SOL     OW 3817   6.070   1.302   4.651 -0.9681 -0.6093 -0.2002
 1024SOL    HW1 3818   6.030   1.350   4.723 -1.9444  0.2658 -1.2700
 1024SOL    HW2 3819   6.152   1.348   4.633 -1.6523  0.3986 -0.8848
 1025SOL     OW 3820   0.868   0.469   2.177 -0.4819 -0.2290 -0.1316
 1025SOL    HW1 3821   0.836   0.424   2.099 -2.0768  0.9154 -0.1955
 1025SOL    HW2 3822   0.870   0.402   2.245  0.5678 -1.1570 -1.0256
 1026SOL     OW 3823   1.132   4.840   1.683  0.4281  0.1439 -0.0035
 1026SOL    HW1 3824   1.188   4.906   1.724 -1.9012  2.0890  0.2619
 1026SOL    HW2 3825   1.139   4.764   1.740  1.5543  0.8748  0.8759
 1027SOL     OW 3826   1.740   1.493   2.164  0.0512  0.0311  0.3750
 1027SOL    HW1 3827   1.796   1.531   2.232  0.1033 -0.1023  0.4051
 1027SOL    HW2 3828   1.793   1.495   2.085  1.3749 -3.1807  1.0483
 1028SOL     OW 3829   2.343   5.355   0.004 -0.2846  0.3770  0.2677
 1028SOL    HW1 3830   2.403   5.413   0.051 -0.9148  0.5040  0.9433
 1028SOL    HW2 3831   2.317   5.289   0.069  0.0353 -0.3746 -0.3543
 1029SOL     OW 3832   0.562   3.867   1.513  0.7450 -0.6781 -0.2787
 1029SOL    HW1 3833   0.632   3.827   1.462  0.0917 -2.9799  0.5256
 1029SOL    HW2 3834   0.503   3.795   1.535 -2.5810  1.2729 -1.9222
 1030SOL     OW 3835   6.258   2.509   5.103 -0.0612 -0.1238 -0.3063
 1030SOL    HW1 3836   6.309   2.441   5.147  0.6762  0.8845  0.4471
 1030SOL    HW2 3837   6.318   2.584   5.097 -0.5420  0.1616 -1.9691
 1031SOL     OW 3838   4.663   3.344   5.094 -0.1937 -0.2717  0.7730
 1031SOL    HW1 3839   4.648   3.359   5.001  0.3951  1.8147  0.9662
 1031SOL    HW2 3840   4.712   3.262   5.098  0.8660  0.2418 -0.8731
 1032SOL     OW 3841   0.400   3.601   1.523 -0.3011  0.5581  0.1863
 1032SOL    HW1 3842   0.340   3.636   1.589 -0.2946  0.6639  0.1361
 1032SOL    HW2 3843   0.345   3.583   1.447 -0.8880 -2.2915  1.1343
 1033SOL     OW 3844   3.888   0.381   2.587  0.1968  0.2827 -0.4000
 1033SOL    HW1 3845   3.913   0.410   2.499  0.0207  1.2424 -0.1451
 1033SOL    HW2 3846   3.794   0.396   2.592  0.1759  0.0705 -0.1074
 1034SOL     OW 3847   2.144   5.852   1.047  0.1322 -0.4142  0.0272
 1034SOL    HW1 3848   2.104   5.929   1.086  2.1635  1.0629 -0.6448
 1034SOL    HW2 3849   2.155   5.791   1.120  3.1123  1.9440  1.7963
 1035SOL     OW 3850   5.085   6.084   4.512  0.5765  0.3929  0.1946
 1035SOL    HW1 3851   5.058   6.000   4.475  0.4386 -0.3684  1.9408
 1035SOL    HW2 3852   5.174   6.070   4.543  0.6480  0.9708  0.2677
 1036SOL     OW 3853   5.538   3.715   4.901  0.0722  0.3517 -0.2141
 1036SOL    HW1 3854   5.511   3.708   4.992 -0.0681  0.1412 -0.2717
 1036SOL    HW2 3855   5.592   3.794   4.898  2.7000 -1.2735  0.7211
 1037SOL     OW 3856   1.384   2.872   3.320  0.0800 -0.4040 -0.6122
 1037SOL    HW1 3857   1.477   2.876   3.297  0.3884 -1.2343  0.3768
 1037SOL    HW2 3858   1.374   2.786   3.361 -1.0084 -0.1046 -0.2203
 1038SOL     OW 3859   1.687   1.546   0.350 -0.7356 -0.0860  0.1536
 1038SOL    HW1 3860   1.677   1.508   0.437 -1.9495  0.1783  0.1432
 1038SOL    HW2 3861   1.662   1.476   0.290 -0.7908  0.0204  0.0518
 1039SOL     OW 3862   5.319   2.775   3.569  0.0337  0.2157  0.1415
 1039SOL    HW1 3863   5.300   2.681   3.569  1.3073 -0.1175 -1.8023
 1039SOL    HW2 3864   5.347   2.794   3.658  0.8145 -1.5118  0.3174
 1040SOL     OW 3865   2.396   3.076   1.504  0.2637 -0.2657 -0.0629
 1040SOL    HW1 3866   2.444   2.993   1.510  0.3482 -0.3132 -1.1432
 1040SOL    HW2 3867   2.305   3.053   1.522  0.2386 -0.6646 -0.6599
 1041SOL     OW 3868   3.962   1.675   3.307 -0.1130 -0.0407 -0.0464
 1041SOL    HW1 3869   3.967   1.604   3.242  0.9619 -0.6135  0.6297
 1041SOL    HW2 3870   3.916   1.746   3.262  1.9650  0.1740 -1.9821
 1042SOL     OW 3871   5.817   0.508   4.645  0.3828 -0.6061 -0.0839
 1042SOL    HW1 3872   5.870   0.531   4.722 -1.1696  3.0508  0.0804
 1042SOL    HW2 3873   5.729   0.492   4.681 -0.1948  0.4212 -0.9933
 1043SOL     OW 3874   5.172   6.052   1.411 -0.2152 -0.6097  0.2537
 1043SOL    HW1 3875   5.237   5.983   1.396 -0.9670 -1.1453 -0.6551
 1043SOL    HW2 3876   5.187   6.079   1.501  0.7494 -1.2697  0.3113
 1044SOL     OW 3877   2.960   4.046   5.835 -0.0790  0.2846  0.0631
 1044SOL    HW1 3878   3.055   4.060   5.839  0.3461 -2.1636 -0.2559
 1044SOL    HW2 3879   2.928   4.117   5.780  1.5798  1.0827  0.0635
 1045SOL     OW 3880   4.602   4.069   3.980 -0.1096 -0.7431 -0.0469
 1045SOL    HW1 3881   4.600   4.165   3.978 -0.0955 -0.7480 -0.4311
 1045SOL    HW2 3882   4.631   4.044   3.892 -1.4453 -1.1372 -0.3944
 1046SOL     OW 3883   4.198   0.193   1.485  0.4778  0.5231  0.0910
 1046SOL    HW1 3884   4.232   0.186   1.575 -1.1283 -3.1771  0.6142
 1046SOL    HW2 3885   4.105   0.212   1.496 -0.7587 -4.1010 -0.3085
 1047SOL     OW 3886   5.984   5.466   5.164  0.4413  0.2106 -0.2750
 1047SOL    HW1 3887   6.045   5.443   5.095 -1.8035  3.2884 -3.6705
 1047SOL    HW2 3888   5.995   5.561   5.176 -3.3203  0.9212 -0.9911
 1048SOL     OW 3889   5.610   4.376   2.543 -0.1078 -0.0699  0.7304
 1048SOL    HW1 3890   5.591   4.288   2.511  0.6690 -0.3470  1.0135
 1048SOL    HW2 3891   5.595   4.433   2.467 -0.6138 -0.4444  0.5506
 1049SOL     OW 3892   1.738   5.791   1.996  0.2263 -0.0269 -0.5109
 1049SOL    HW1 3893   1.752   5.754   1.908 -1.6452 -1.2962 -0.3411
 1049SOL    HW2 3894   1.656   5.840   1.989 -0.3329 -0.7441  0.6800
 1050SOL     OW 3895   6.180   5.581   2.504 -0.0805  0.6170 -0.0697
 1050SOL    HW1 3896   6.164   5.644   2.433  0.1788  0.0306 -0.6622
 1050SOL    HW2 3897   6.094   5.544   2.523 -0.1740  0.8762  0.0229
 1051SOL     OW 3898   0.141   3.904   3.480  0.0975  0.2398 -0.1627
 1051SOL    HW1 3899   0.149   3.975   3.417  0.4506 -1.1789 -1.7796
 1051SOL    HW2 3900   0.067   3.852   3.449 -0.5542  0.2178  1.3511
 1052SOL     OW 3901   3.407   4.147   1.612 -0.0538  0.2624  0.7882
 1052SOL    HW1 3902   3.415   4.234   1.573  0.1561  0.1894  0.6640
 1052SOL    HW2 3903   3.477   4.096   1.570 -1.0169 -0.3333 -0.1514
 1053SOL     OW 3904   0.867   3.877   1.853 -0.3371 -0.5911 -0.0624
 1053SOL    HW1 3905   0.858   3.788   1.818 -1.5590 -0.5330  0.0502
 1053SOL    HW2 3906   0.781   3.917   1.838 -0.2036  0.1468  1.0530
 1054SOL     OW 3907   3.428   1.481   6.111 -0.5163 -0.3504  1.0329
 1054SOL    HW1 3908   3.463   1.538   6.179  1.8343  1.1432 -1.2357
 1054SOL    HW2 3909   3.481   1.401   6.116  0.2657  0.1142  0.4642
 1055SOL     OW 3910   0.261   4.334   5.835  0.2933  0.0663 -0.2993
 1055SOL    HW1 3911   0.332   4.284   5.874  1.9444  1.4304 -1.4286
 1055SOL    HW2 3912   0.181   4.288   5.862  1.4362 -0.3188  2.7575
 1056SOL     OW 3913   3.177   5.741   0.424 -0.6519  0.1383 -0.3565
 1056SOL    HW1 3914   3.109   5.674   0.414  0.9597 -1.6220 -0.1749
 1056SOL    HW2 3915   3.250   5.708   0.371  0.7010  1.0367  0.8811
 1057SOL     OW 3916   3.992   0.190   4.529  0.4507  0.3482 -0.2081
 1057SOL    HW1 3917   4.081   0.169   4.499  0.5833 -0.3314  0.6282
 1057SOL    HW2 3918   3.940   0.189   4.449  1.0210 -0.2147 -0.5906
 1058SOL     OW 3919   3.844   3.366   0.787  0.2111  0.1363 -0.1320
 1058SOL    HW1 3920   3.798   3.362   0.870  0.8087 -3.6543  0.2034
 1058SOL    HW2 3921   3.793   3.310   0.728  2.1911 -0.9897 -0.8870
 1059SOL     OW 3922   2.644   1.819   1.472  0.1704  0.0552 -0.1801
 1059SOL    HW1 3923   2.678   1.841   1.558  1.2148 -0.6752 -0.3895
 1059SOL    HW2 3924   2.688   1.737   1.449  0.9116  0.9109 -1.9692
 1060SOL     OW 3925   5.823   1.265   5.330  0.0997 -0.0314 -0.5408
 1060SOL    HW1 3926   5.728   1.270   5.320 -0.1999 -3.7509 -1.1672
 1060SOL    HW2 3927   5.836   1.230   5.418  0.8030 -0.4714 -0.8112
 1061SOL     OW 3928   4.843   5.715   5.856 -0.5031  0.4994  0.3553
 1061SOL    HW1 3929   4.880   5.632   5.828 -0.7990  0.2879  0.5817
 1061SOL    HW2 3930   4.749   5.699   5.861 -0.4277  0.4141  1.8489
 1062SOL     OW 3931   0.349   6.265   3.709  0.0984 -0.5056 -0.1098
 1062SOL    HW1 3932   0.390   6.271   3.623  3.3784 -0.8535  1.2859
 1062SOL    HW2 3933   0.353   6.354   3.744  0.6570 -0.7392  0.4400
 1063SOL     OW 3934   6.068   3.213   3.747 -0.4933  0.4143  0.0769
 1063SOL    HW1 3935   6.130   3.141   3.749 -1.5418 -0.5238  0.0950
 1063SOL    HW2 3936   6.043   3.221   3.655 -0.8582  0.3204  0.1640
 1064SOL     OW 3937   2.400   0.721   2.751 -0.2053 -0.3335  0.3355
 1064SOL    HW1 3938   2.331   0.655   2.748  0.6107 -1.1805 -0.1530
 1064SOL    HW2 3939   2.378   0.775   2.827 -1.5980 -0.3685 -0.0166
 1065SOL     OW 3940   3.930   3.789   5.016  0.0199  0.0596  0.2850
 1065SOL    HW1 3941   3.991   3.751   4.954  1.3381  2.3091  0.1165
 1065SOL    HW2 3942   3.936   3.732   5.093  2.1015  0.0365  0.1592
 1066SOL     OW 3943   5.331   0.660   4.374  0.6712 -0.3099 -0.2459
 1066SOL    HW1 3944   5.239   0.660   4.402  0.4847  0.2942 -0.8179
 1066SOL    HW2 3945   5.331   0.612   4.291  1.0171 -1.0319  0.1632
 1067SOL     OW 3946   3.195   0.054   0.995 -0.3309 -0.7228 -0.7499
 1067SOL    HW1 3947   3.223   0.087   0.910 -3.2019 -0.2939 -1.6059
 1067SOL    HW2 3948   3.268   0.077   1.054  0.1061  2.4902 -2.2998
 1068SOL     OW 3949   6.292   2.045   5.042  0.5193 -0.2557  0.2362
 1068SOL    HW1 3950   6.363   1.987   5.013  0.9983  0.6128 -0.3907
 1068SOL    HW2 3951   6.297   2.044   5.138  0.8888 -0.7946  0.2118
 1069SOL     OW 3952   4.395   3.981   3.409 -0.2602 -0.0240  0.4992
 1069SOL    HW1 3953   4.394   4.016   3.320 -1.0699  0.3905  0.6592
 1069SOL    HW2 3954   4.320   3.922   3.413  0.0446 -0.4002  0.7729
 1070SOL     OW 3955   0.301   4.310   3.576  0.2854  0.5783  0.9908
 1070SOL    HW1 3956   0.277   4.402   3.563 -0.0603  0.1299 -2.3637
 1070SOL    HW2 3957   0.222   4.269   3.609 -0.2573  1.0813  0.3385
 1071SOL     OW 3958   3.294   5.651   1.747  0.2316  0.3691  0.0442
 1071SOL    HW1 3959   3.270   5.570   1.792  0.1389 -0.8029 -1.9788
 1071SOL    HW2 3960   3.390   5.649   1.746  0.2254  0.0149 -0.4159
 1072SOL     OW 3961   0.131   3.416   2.704  0.4133 -0.9722 -0.2961
 1072SOL    HW1 3962   0.061   3.432   2.768 -2.0860 -0.5482 -2.9575
 1072SOL    HW2 3963   0.133   3.321   2.695  0.3050 -0.9935 -0.1111
 1073SOL     OW 3964   5.470   0.085   2.927 -0.2862  0.1630 -1.0213
 1073SOL    HW1 3965   5.546   0.040   2.890  2.2404  0.4257  3.2369
 1073SOL    HW2 3966   5.419   0.016   2.968  0.6071  0.4652  0.6907
 1074SOL     OW 3967   1.093   3.028   0.685 -0.2631  0.5881 -0.0899
 1074SOL    HW1 3968   1.117   2.956   0.744  0.1661 -0.8162 -1.8714
 1074SOL    HW2 3969   1.108   3.107   0.736  2.0391 -0.4715  1.0478
 1075SOL     OW 3970   3.458   1.612   4.121 -0.8263 -0.4142  0.8225
 1075SOL    HW1 3971   3.481   1.525   4.086  1.0036  0.5953 -0.6991
 1075SOL    HW2 3972   3.504   1.617   4.205 -0.7669 -0.8511  0.8183
 1076SOL     OW 3973   2.741   6.207   5.491 -0.2515  0.4481  0.5190
 1076SOL    HW1 3974   2.758   6.114   5.507 -0.9096 -0.0171 -1.2586
 1076SOL    HW2 3975   2.648   6.211   5.470 -0.2524  1.5302  0.6732
 1077SOL     OW 3976   1.628   4.885   1.131  0.0452  0.1032  0.7976
 1077SOL    HW1 3977   1.706   4.910   1.082 -0.4456 -0.0219 -0.0826
 1077SOL    HW2 3978   1.656   4.814   1.187  0.2552 -0.9379 -0.5710
 1078SOL     OW 3979   4.024   1.787   5.498 -0.5727 -0.3871 -0.2466
 1078SOL    HW1 3980   4.017   1.738   5.580  0.9599 -0.3946 -0.1013
 1078SOL    HW2 3981   4.112   1.769   5.466 -1.2991 -0.7558 -2.1665
 1079SOL     OW 3982   1.507   1.008   4.036  0.2502 -0.0871  0.1114
 1079SOL    HW1 3983   1.554   1.035   4.114 -0.6146  0.4727  0.4560
 1079SOL    HW2 3984   1.568   0.952   3.989  1.7304  1.5985 -0.0935
 1080SOL     OW 3985   1.533   3.556   0.919  0.5742 -0.0951 -0.0959
 1080SOL    HW1 3986   1.543   3.583   1.010 -1.0020  1.5862 -0.3570
 1080SOL    HW2 3987   1.442   3.526   0.913 -0.2754  2.4673 -1.6580
 1081SOL     OW 3988   4.001   2.838   2.215 -0.0659  0.1483  0.4024
 1081SOL    HW1 3989   3.991   2.892   2.293 -0.1846  0.8798 -0.1048
 1081SOL    HW2 3990   3.912   2.818   2.187 -0.0395  0.4584  0.0787
 1082SOL     OW 3991   1.522   6.021   4.997 -0.4621  0.5014 -0.9035
 1082SOL    HW1 3992   1.490   5.956   4.933  0.3220 -2.9402  1.8682
 1082SOL    HW2 3993   1.447   6.036   5.054  0.5979 -2.0445  1.3867
 1083SOL     OW 3994   1.328   5.245   5.441  0.8078  0.1819 -0.5021
 1083SOL    HW1 3995   1.406   5.217   5.491  0.8904  0.8536 -0.2401
 1083SOL    HW2 3996   1.264   5.175   5.455  0.6140  0.6299  1.0663
 1084SOL     OW 3997   2.838   3.921   5.024 -0.0845  0.0581 -0.4767
 1084SOL    HW1 3998   2.934   3.926   5.028 -0.0471  0.1330 -1.3309
 1084SOL    HW2 3999   2.820   3.836   4.984 -0.3320  0.6189 -1.5993
 1085SOL     OW 4000   0.075   0.371   1.712  0.3354  0.3720 -0.2941
 1085SOL    HW1 4001   0.111   0.437   1.652 -0.4322  0.3485 -0.8068
 1085SOL    HW2 4002   0.033   0.307   1.654 -2.0864  1.3166  0.2621
 1086SOL     OW 4003   4.913   1.773   3.121  0.1916 -0.8039 -0.0377
 1086SOL    HW1 4004   5.000   1.736   3.104  0.3191 -0.8779  0.7269
 1086SOL    HW2 4005   4.924   1.868   3.110  0.3412 -0.8251 -0.0666
 1087SOL     OW 4006   2.893   1.337   4.027 -0.1992  0.1211  0.1068
 1087SOL    HW1 4007   2.966   1.394   4.001  1.1361 -1.1777  0.8559
 1087SOL    HW2 4008   2.922   1.297   4.109 -2.5289  0.9037  1.4101
 1088SOL     OW 4009   0.313   2.743   1.267 -0.1488  0.0199 -0.0841
 1088SOL    HW1 4010   0.236   2.791   1.298 -0.5544 -0.0377 -0.9660
 1088SOL    HW2 4011   0.356   2.713   1.347 -1.6989 -0.9879  0.4168
 1089SOL     OW 4012   2.946   2.588   1.279  0.2382  0.0381  0.3550
 1089SOL    HW1 4013   3.040   2.572   1.288  0.7408  2.3550 -0.0343
 1089SOL    HW2 4014   2.908   2.501   1.266  2.4084 -0.8931 -0.2917
 1090SOL     OW 4015   3.689   2.957   0.357 -0.4937 -0.3265  0.2286
 1090SOL    HW1 4016   3.658   2.910   0.280 -0.3547  0.0691 -0.0691
 1090SOL    HW2 4017   3.669   2.898   0.430 -2.8748  0.2966  0.1701
 1091SOL     OW 4018   5.939   5.798   0.889  0.1462 -0.1873  1.0635
 1091SOL    HW1 4019   5.905   5.887   0.878 -0.6110 -0.5899  0.1295
 1091SOL    HW2 4020   5.862   5.742   0.888  0.5743 -0.8270  2.1790
 1092SOL     OW 4021   4.009   4.345   1.308  0.2260  0.0466  0.5018
 1092SOL    HW1 4022   3.974   4.432   1.286  0.2568 -0.3001 -1.0425
 1092SOL    HW2 4023   3.932   4.292   1.327 -0.0940 -0.4131 -1.7742
 1093SOL     OW 4024   6.052   0.217   3.580 -0.1611 -0.0063  0.0957
 1093SOL    HW1 4025   6.085   0.179   3.499 -0.4999  1.9870 -1.0507
 1093SOL    HW2 4026   5.957   0.221   3.568 -0.1690  0.7905  0.3502
 1094SOL     OW 4027   0.270   3.845   3.944  0.2169 -0.1125 -0.1623
 1094SOL    HW1 4028   0.273   3.786   3.869  2.8366 -0.5784  0.2071
 1094SOL    HW2 4029   0.344   3.905   3.930  0.6267 -0.0623  1.9179
 1095SOL     OW 4030   5.659   3.809   5.120 -0.0043 -0.8555 -0.0300
 1095SOL    HW1 4031   5.726   3.878   5.118 -0.9386  0.0619 -0.7780
 1095SOL    HW2 4032   5.699   3.739   5.172  1.8766 -0.6899 -1.1505
 1096SOL     OW 4033   1.472   3.489   4.721 -0.1357 -0.6738  0.4073
 1096SOL    HW1 4034   1.550   3.544   4.712  1.2593 -2.0124  3.1278
 1096SOL    HW2 4035   1.490   3.434   4.797 -1.4148 -4.9683 -2.1135
 1097SOL     OW 4036   0.718   1.510   5.839  0.0908  0.5991 -0.4152
 1097SOL    HW1 4037   0.760   1.596   5.833 -0.2674  0.8032 -0.0340
 1097SOL    HW2 4038   0.655   1.519   5.911 -0.6703  0.3244 -1.0364
 1098SOL     OW 4039   3.370   2.870   5.714  0.3711 -0.0366  0.5460
 1098SOL    HW1 4040   3.280   2.881   5.682 -0.1513 -1.6414  1.3652
 1098SOL    HW2 4041   3.425   2.898   5.640 -0.7786  1.0275  0.0563
 1099SOL     OW 4042   3.186   4.098   0.886 -0.0649 -0.5375 -0.1305
 1099SOL    HW1 4043   3.229   4.113   0.802 -0.0880  0.3387  0.0076
 1099SOL    HW2 4044   3.250   4.126   0.952  0.0959 -1.5620  0.1680
 1100SOL     OW 4045   3.707   0.007   2.455 -0.1419  0.1809 -0.2684
 1100SOL    HW1 4046   3.707   0.081   2.394  1.3580  1.4695  1.2115
 1100SOL    HW2 4047   3.781   0.024   2.513 -0.7933 -1.6277  1.1697
 1101SOL     OW 4048   1.947   0.062   0.171  0.0017  0.0060  0.4100
 1101SOL    HW1 4049   1.879   0.128   0.185 -0.2575 -0.6524  2.6278
 1101SOL    HW2 4050   1.935   0.034   0.080 -1.3747  1.3377  0.1441
 1102SOL     OW 4051   2.521   5.647   5.550  0.1683  0.0094  0.0489
 1102SOL    HW1 4052   2.510   5.552   5.550  0.5279 -0.0392 -0.1642
 1102SOL    HW2 4053   2.605   5.661   5.594  0.7610  0.1280 -1.0639
 1103SOL     OW 4054   6.128   5.279   4.006  1.1243  0.2448  0.1304
 1103SOL    HW1 4055   6.041   5.242   3.993  1.2874 -1.7121  3.4845
 1103SOL    HW2 4056   6.115   5.373   3.999 -0.7286 -0.0717 -1.7842
 1104SOL     OW 4057   1.623   6.219   5.265  0.1795  0.6501 -0.2642
 1104SOL    HW1 4058   1.638   6.305   5.226  0.5495  0.6940 -0.0278
 1104SOL    HW2 4059   1.692   6.164   5.227 -0.8656  0.1197 -1.4556
 1105SOL     OW 4060   0.519   2.876   4.527 -0.1500 -0.1198 -0.2513
 1105SOL    HW1 4061   0.441   2.821   4.535  0.3363 -1.1878 -2.2572
 1105SOL    HW2 4062   0.511   2.919   4.442  2.2169 -1.6005 -1.3297
 1106SOL     OW 4063   4.238   6.126   3.524 -0.0603 -0.2879  0.2600
 1106SOL    HW1 4064   4.306   6.066   3.492  1.0458  1.0136  0.1024
 1106SOL    HW2 4065   4.158   6.074   3.521  0.8833 -1.8379  0.3287
 1107SOL     OW 4066   5.836   2.027   1.506 -0.1195  0.5143 -0.2081
 1107SOL    HW1 4067   5.901   1.959   1.490  0.2134  1.0350 -1.1041
 1107SOL    HW2 4068   5.887   2.106   1.526 -0.4866  0.7322 -0.1089
 1108SOL     OW 4069   0.482   1.638   4.376 -0.6275  0.2181  0.3612
 1108SOL    HW1 4070   0.490   1.570   4.443 -1.5780 -1.0927 -0.7793
 1108SOL    HW2 4071   0.459   1.590   4.297  3.3691  1.3429 -1.7196
 1109SOL     OW 4072   0.898   3.436   4.534  0.0260 -0.2881  0.4293
 1109SOL    HW1 4073   0.880   3.441   4.628  0.7997 -1.4074  0.6567
 1109SOL    HW2 4074   0.877   3.346   4.510  1.1865 -0.4213 -0.1655
 1110SOL     OW 4075   3.355   1.280   3.663 -0.1562 -1.4465 -0.1658
 1110SOL    HW1 4076   3.309   1.255   3.743 -1.7727 -1.1810 -0.9667
 1110SOL    HW2 4077   3.295   1.340   3.618  1.0465 -0.9641 -1.2058
 1111SOL     OW 4078   1.771   5.860   0.386  0.1315  0.0560 -0.2177
 1111SOL    HW1 4079   1.847   5.820   0.428  0.2347 -1.3017 -1.5788
 1111SOL    HW2 4080   1.797   5.951   0.371  1.2963 -0.2573 -0.2114
 1112SOL     OW 4081   0.950   1.485   3.399  0.0899 -0.4161 -0.0518
 1112SOL    HW1 4082   0.983   1.553   3.339 -0.4230  0.2276  0.3776
 1112SOL    HW2 4083   0.878   1.444   3.350  1.6116 -1.9738 -1.0787
 1113SOL     OW 4084   3.196   0.413   3.378 -0.1160  0.0672  0.5047
 1113SOL    HW1 4085   3.108   0.410   3.417 -0.7154  0.5150 -0.7650
 1113SOL    HW2 4086   3.214   0.323   3.352 -0.6673  0.1544 -0.2077
 1114SOL     OW 4087   1.313   1.154   4.714 -0.0496 -0.1662 -0.1930
 1114SOL    HW1 4088   1.403   1.185   4.701 -0.5557  0.8336 -1.5381
 1114SOL    HW2 4089   1.276   1.217   4.776 -0.1722  0.1498 -0.5808
 1115SOL     OW 4090   3.685   1.863   5.240  0.1408 -0.6801  0.1519
 1115SOL    HW1 4091   3.775   1.866   5.208  0.1530 -1.1843  0.1241
 1115SOL    HW2 4092   3.633   1.834   5.165  0.1036 -1.4011  0.4467
 1116SOL     OW 4093   2.250   2.039   0.001  0.4356  0.6856  0.5938
 1116SOL    HW1 4094   2.329   2.094   0.002  1.5939 -0.9202  0.1251
 1116SOL    HW2 4095   2.283   1.949   0.006 -1.2403 -0.1583 -1.8483
 1117SOL     OW 4096   0.131   5.915   6.189 -0.2579  0.2696 -0.4857
 1117SOL    HW1 4097   0.051   5.956   6.156  0.0260  0.3589 -1.0638
 1117SOL    HW2 4098   0.193   5.921   6.117  0.6648  1.2644  0.3569
 1118SOL     OW 4099   4.237   4.769   4.593  0.8221 -0.6333 -0.1973
 1118SOL    HW1 4100   4.209   4.802   4.679  0.5401  1.2732 -0.9853
 1118SOL    HW2 4101   4.251   4.676   4.608  1.5413 -0.2255  2.1182
 1119SOL     OW 4102   0.165   4.462   0.716  0.1212  0.4157  0.5684
 1119SOL    HW1 4103   0.148   4.387   0.773  0.6609  0.5035  0.8507
 1119SOL    HW2 4104   0.169   4.425   0.628 -0.4550  0.2401  0.6118
 1120SOL     OW 4105   2.977   2.389   5.370  0.8582 -0.3664  0.1050
 1120SOL    HW1 4106   2.981   2.451   5.443  0.9515 -0.4707  0.1888
 1120SOL    HW2 4107   2.895   2.341   5.385 -0.6280  1.5076 -1.3974
 1121SOL     OW 4108   5.815   6.042   0.835  0.4655  0.5312 -0.0185
 1121SOL    HW1 4109   5.850   6.120   0.793  2.2280 -0.5072 -0.6092
 1121SOL    HW2 4110   5.725   6.036   0.804 -0.0194  2.8114  0.7921
 1122SOL     OW 4111   1.763   5.216   0.452 -0.1278 -0.0182 -0.6337
 1122SOL    HW1 4112   1.769   5.152   0.523 -0.6025  0.9107  0.2770
 1122SOL    HW2 4113   1.829   5.188   0.388 -0.9135 -1.9099 -0.6939
 1123SOL     OW 4114   4.960   4.771   5.450 -0.5835 -0.6951 -0.0691
 1123SOL    HW1 4115   5.008   4.760   5.367  0.0233  0.2878  0.1408
 1123SOL    HW2 4116   4.990   4.699   5.504  0.1188 -0.5100 -0.2004
 1124SOL     OW 4117   4.797   2.455   4.289  0.4198 -0.6984 -0.0266
 1124SOL    HW1 4118   4.888   2.468   4.316  0.4692  1.4549 -1.0288
 1124SOL    HW2 4119   4.747   2.513   4.346 -0.0892 -0.3351 -0.8327
 1125SOL     OW 4120   3.037   4.478   0.406 -0.1251  0.3165  0.0218
 1125SOL    HW1 4121   2.960   4.485   0.348  0.1134  0.5134 -0.2737
 1125SOL    HW2 4122   3.067   4.568   0.417  2.1570  0.0228 -2.7119
 1126SOL     OW 4123   0.622   3.981   1.753  0.1198  0.5884  0.2542
 1126SOL    HW1 4124   0.600   3.927   1.677 -0.3008 -0.4220  1.0778
 1126SOL    HW2 4125   0.551   4.044   1.759 -1.0391 -0.7444  1.1002
 1127SOL     OW 4126   5.208   2.587   2.018 -0.1408 -0.4821  0.2959
 1127SOL    HW1 4127   5.188   2.634   2.099 -0.4387 -0.6140  0.3008
 1127SOL    HW2 4128   5.291   2.543   2.036  0.4929  0.5993  0.0429
 1128SOL     OW 4129   3.644   5.769   3.697  0.7749  0.0068  0.9528
 1128SOL    HW1 4130   3.580   5.758   3.767 -1.1187 -0.4759 -0.7743
 1128SOL    HW2 4131   3.680   5.681   3.683 -0.3048 -0.3077  0.0281
 1129SOL     OW 4132   5.351   2.541   4.865  0.5928 -0.3970 -0.1343
 1129SOL    HW1 4133   5.330   2.450   4.885 -0.2192 -0.4693 -1.2296
 1129SOL    HW2 4134   5.393   2.574   4.944  0.8446 -1.7010  0.2986
 1130SOL     OW 4135   0.878   1.328   4.719  0.0965 -0.0778  0.0948
 1130SOL    HW1 4136   0.921   1.250   4.755 -0.2942 -1.1834 -1.7079
 1130SOL    HW2 4137   0.937   1.357   4.650 -0.2973  0.5836  0.0348
 1131SOL     OW 4138   4.184   1.182   5.142  0.3273 -0.0257 -0.3476
 1131SOL    HW1 4139   4.217   1.144   5.061  0.6986  0.6835 -0.5349
 1131SOL    HW2 4140   4.262   1.189   5.198  0.3584  0.9289 -0.5035
 1132SOL     OW 4141   4.844   3.092   4.573  0.1840 -0.5849  0.4060
 1132SOL    HW1 4142   4.910   3.023   4.575  0.4544 -0.3583 -0.2749
 1132SOL    HW2 4143   4.809   3.095   4.662 -1.0349 -2.7437  0.0775
 1133SOL     OW 4144   2.157   3.369   6.104 -0.2026 -0.1061  0.1108
 1133SOL    HW1 4145   2.095   3.392   6.035 -0.0999  0.6287  0.2536
 1133SOL    HW2 4146   2.139   3.277   6.122 -0.6790 -0.1283 -0.4347
 1134SOL     OW 4147   4.398   5.903   3.689  0.3023  1.0424  0.7533
 1134SOL    HW1 4148   4.309   5.930   3.708  0.3491  1.0984  0.8924
 1134SOL    HW2 4149   4.401   5.893   3.594  0.2993  1.5655  0.6987
 1135SOL     OW 4150   4.848   3.483   2.799  0.4104  0.1802  0.0160
 1135SOL    HW1 4151   4.830   3.541   2.873 -0.7813 -1.1578  0.8242
 1135SOL    HW2 4152   4.771   3.492   2.743 -0.1266 -1.1377  0.5166
 1136SOL     OW 4153   0.649   2.077   4.903 -0.1286 -0.7205  0.3591
 1136SOL    HW1 4154   0.604   2.134   4.841 -1.3652 -1.2707  0.7196
 1136SOL    HW2 4155   0.737   2.068   4.867  0.0185  1.1462  0.1242
 1137SOL     OW 4156   4.495   2.137   6.167 -0.0930  0.4612  0.4555
 1137SOL    HW1 4157   4.469   2.229   6.161 -0.1909  0.4035 -0.0675
 1137SOL    HW2 4158   4.414   2.088   6.150 -0.0428  0.2757  0.7371
 1138SOL     OW 4159   5.681   1.956   6.036  0.4527 -0.5727 -0.4603
 1138SOL    HW1 4160   5.694   1.928   6.126  0.3839 -2.4579 -0.9958
 1138SOL    HW2 4161   5.590   1.985   6.032  0.0527 -1.7402 -0.2160
 1139SOL     OW 4162   1.773   4.083   3.329  0.0177  0.1265 -0.6489
 1139SOL    HW1 4163   1.726   4.123   3.255 -0.9725 -1.6995 -1.0522
 1139SOL    HW2 4164   1.793   3.994   3.300  1.4928  0.0334  0.5202
 1140SOL     OW 4165   2.570   4.431   5.724 -0.1549 -0.0086  0.2354
 1140SOL    HW1 4166   2.546   4.342   5.751  0.3686 -0.4237 -0.6189
 1140SOL    HW2 4167   2.488   4.479   5.726 -0.6768 -0.8424 -0.5050
 1141SOL     OW 4168   4.344   3.029   2.472  0.0110  0.0169  0.7201
 1141SOL    HW1 4169   4.279   3.075   2.524 -1.4381  1.6198 -2.2513
 1141SOL    HW2 4170   4.311   3.034   2.382  3.2389 -0.9175 -0.6632
 1142SOL     OW 4171   5.771   1.386   4.873  0.4108  0.3058  0.8684
 1142SOL    HW1 4172   5.866   1.376   4.864  0.6028  1.6031  1.3046
 1142SOL    HW2 4173   5.759   1.432   4.955 -0.4794  1.7741 -0.0393
 1143SOL     OW 4174   5.648   0.464   6.081  0.2920 -0.5507 -0.5793
 1143SOL    HW1 4175   5.615   0.375   6.098 -1.7529 -0.4464 -3.3042
 1143SOL    HW2 4176   5.582   0.521   6.120 -1.7340 -0.3376 -4.0016
 1144SOL     OW 4177   2.144   3.477   3.936  0.2509  0.1498  0.7218
 1144SOL    HW1 4178   2.081   3.424   3.985  0.8504 -2.1548 -0.8836
 1144SOL    HW2 4179   2.229   3.455   3.975  0.2586  3.3638  2.9902
 1145SOL     OW 4180   0.962   5.911   3.762  0.1155  0.2415  0.1732
 1145SOL    HW1 4181   0.972   5.989   3.707 -1.8102 -0.0115 -0.6037
 1145SOL    HW2 4182   1.032   5.853   3.732  0.2953  0.8702 -0.6832
 1146SOL     OW 4183   0.242   0.364   2.884  0.2727 -0.5086  0.1143
 1146SOL    HW1 4184   0.155   0.345   2.849 -0.0455 -1.2391  1.2328
 1146SOL    HW2 4185   0.225   0.412   2.965  0.9532  0.3797 -0.2664
 1147SOL     OW 4186   4.741   3.056   6.100 -0.5538  0.1113  0.0402
 1147SOL    HW1 4187   4.795   2.997   6.048 -0.1128  0.3641  0.2050
 1147SOL    HW2 4188   4.651   3.036   6.074 -0.3717 -0.2030 -0.3513
 1148SOL     OW 4189   3.419   1.216   2.668  0.6923 -0.3890 -0.1897
 1148SOL    HW1 4190   3.333   1.204   2.709  0.8946  0.6425  0.5762
 1148SOL    HW2 4191   3.403   1.278   2.598  1.0054  0.7515  0.7177
 1149SOL     OW 4192   1.353   4.663   1.562 -0.3543  0.1567 -0.2559
 1149SOL    HW1 4193   1.401   4.617   1.493  0.1100 -0.2378  0.3187
 1149SOL    HW2 4194   1.308   4.734   1.517 -1.4020 -1.0733 -1.2387
 1150SOL     OW 4195   2.616   4.450   1.953  0.1675 -0.2358  0.1175
 1150SOL    HW1 4196   2.675   4.498   1.895  0.7618 -0.1278  0.8056
 1150SOL    HW2 4197   2.578   4.382   1.897 -0.4155  0.7991 -0.7766
 1151SOL     OW 4198   2.330   2.206   3.678 -0.2363 -0.1371 -0.1275
 1151SOL    HW1 4199   2.348   2.300   3.682 -2.0409  0.4276 -2.6918
 1151SOL    HW2 4200   2.315   2.188   3.585  0.3931 -3.0644  0.2351
 1152SOL     OW 4201   0.377   0.182   4.806 -0.1141 -0.3323 -0.3041
 1152SOL    HW1 4202   0.313   0.249   4.781  0.3194  0.3282  0.3256
 1152SOL    HW2 4203   0.414   0.213   4.889  1.0644 -0.6756 -0.6838
 1153SOL     OW 4204   6.145   5.538   5.598 -0.1421 -0.1783 -0.1819
 1153SOL    HW1 4205   6.172   5.605   5.534  0.9091  0.6440  1.0650
 1153SOL    HW2 4206   6.216   5.474   5.596 -0.9087 -1.0222 -1.0096
 1154SOL     OW 4207   4.112   0.363   6.191 -0.4667  0.1213  0.6193
 1154SOL    HW1 4208   4.121   0.440   6.136  0.2831 -0.7115 -0.4736
 1154SOL    HW2 4209   4.065   0.300   6.137 -0.1520 -0.5465  1.1035
 1155SOL     OW 4210   3.407   1.784   3.918  0.3295 -0.0567  0.5396
 1155SOL    HW1 4211   3.383   1.735   3.839 -1.2235  0.6816  0.5176
 1155SOL    HW2 4212   3.440   1.718   3.978 -2.1563 -1.2736  0.6875
 1156SOL     OW 4213   3.355   2.426   2.867  0.1654 -0.1013 -0.1152
 1156SOL    HW1 4214   3.445   2.427   2.900  1.1258  1.1708 -2.5464
 1156SOL    HW2 4215   3.303   2.462   2.939  2.0681  2.0903  0.2813
 1157SOL     OW 4216   0.980   0.756   3.158 -0.1780 -0.3759  0.1466
 1157SOL    HW1 4217   0.917   0.824   3.136  0.0913 -0.5995 -1.5087
 1157SOL    HW2 4218   0.926   0.685   3.193 -0.8119 -0.3592 -0.7340
 1158SOL     OW 4219   0.470   4.675   3.564 -0.4273  0.2130  0.4975
 1158SOL    HW1 4220   0.489   4.614   3.635 -0.7665 -1.7975 -1.0513
 1158SOL    HW2 4221   0.506   4.759   3.594  0.3002 -0.7750  2.5918
 1159SOL     OW 4222   0.660   2.581   1.747  0.0244 -0.1917 -0.5199
 1159SOL    HW1 4223   0.665   2.672   1.777 -0.8590 -0.8579  1.9069
 1159SOL    HW2 4224   0.724   2.575   1.676  1.7184  1.7910  0.7186
 1160SOL     OW 4225   1.122   2.828   3.283  0.3816  0.2979  0.0178
 1160SOL    HW1 4226   1.198   2.881   3.308 -0.8984  2.4833 -0.4522
 1160SOL    HW2 4227   1.115   2.841   3.188 -0.1171 -0.5255 -0.0628
 1161SOL     OW 4228   1.853   0.989   4.087  0.0839 -0.4655 -0.2933
 1161SOL    HW1 4229   1.807   1.034   4.158  0.5687  2.2999 -1.6212
 1161SOL    HW2 4230   1.937   1.034   4.080  0.7650 -1.8331 -1.5125
 1162SOL     OW 4231   2.100   6.197   5.932  0.0355 -0.7726 -0.3215
 1162SOL    HW1 4232   2.019   6.243   5.911  0.8861  1.0054  0.1361
 1162SOL    HW2 4233   2.074   6.105   5.938 -2.2676 -0.1085  1.3095
 1163SOL     OW 4234   4.059   0.713   4.205 -0.0217 -0.7387 -0.0103
 1163SOL    HW1 4235   4.060   0.695   4.111 -0.2501  0.3478 -0.2451
 1163SOL    HW2 4236   4.014   0.798   4.212 -0.4595 -1.0420  1.1246
 1164SOL     OW 4237   6.291   5.919   2.112 -0.3578 -0.1569  0.0583
 1164SOL    HW1 4238   6.289   5.824   2.101  1.2790 -0.0030 -1.9931
 1164SOL    HW2 4239   6.198   5.945   2.115 -0.8300 -1.6874 -0.5620
 1165SOL     OW 4240   1.560   5.067   3.142 -0.8611 -0.0214 -0.3397
 1165SOL    HW1 4241   1.490   5.128   3.165 -0.6692 -0.3175  1.0728
 1165SOL    HW2 4242   1.516   4.997   3.094 -1.3432  0.3548 -0.4571
 1166SOL     OW 4243   2.015   1.332   0.164 -0.3928  0.6565  0.1649
 1166SOL    HW1 4244   1.989   1.266   0.099 -0.0843  0.5448  0.1512
 1166SOL    HW2 4245   1.983   1.298   0.247 -0.5546  0.6686  0.1078
 1167SOL     OW 4246   3.337   1.914   4.817  0.3268 -0.3076 -0.0909
 1167SOL    HW1 4247   3.401   1.908   4.888  0.1002  2.0185  0.3958
 1167SOL    HW2 4248   3.388   1.938   4.740  0.1055  1.5008  0.2867
 1168SOL     OW 4249   4.613   5.711   2.573 -0.3413 -0.5841  0.2953
 1168SOL    HW1 4250   4.701   5.745   2.555 -0.5372  0.2680  0.8586
 1168SOL    HW2 4251   4.605   5.634   2.517  0.5580 -0.3575 -0.1695
 1169SOL     OW 4252   3.295   3.177   3.996  0.5878 -0.2147 -0.1877
 1169SOL    HW1 4253   3.236   3.107   3.970  0.6783 -0.2793 -0.2180
 1169SOL    HW2 4254   3.352   3.189   3.921  1.0937 -0.6569  0.1212
 1170SOL     OW 4255   1.446   5.944   2.471  0.5514  0.0916 -0.4698
 1170SOL    HW1 4256   1.449   5.877   2.538 -1.1372 -1.9575 -2.3213
 1170SOL    HW2 4257   1.408   6.020   2.514  2.2777 -0.1297  1.6053
 1171SOL     OW 4258   4.215   1.828   5.221 -0.0324  0.3320 -0.1784
 1171SOL    HW1 4259   4.234   1.737   5.246 -0.0539 -0.2099 -1.9580
 1171SOL    HW2 4260   4.284   1.849   5.158  0.8471  2.0906  1.2921
 1172SOL     OW 4261   4.086   5.489   5.205 -0.5909 -0.5438 -0.2138
 1172SOL    HW1 4262   4.101   5.480   5.111  2.3894  1.6069 -0.0734
 1172SOL    HW2 4263   4.095   5.583   5.222 -1.6151 -0.7967  2.1718
 1173SOL     OW 4264   5.721   3.958   3.987 -0.5094  0.3888  0.2656
 1173SOL    HW1 4265   5.792   4.012   3.954 -0.0119  0.7529  1.8266
 1173SOL    HW2 4266   5.657   3.956   3.916 -0.4911  2.9257  0.1055
 1174SOL     OW 4267   5.411   1.622   0.324 -0.0399  0.2761  0.6887
 1174SOL    HW1 4268   5.376   1.707   0.299  0.6178  0.4858  0.4647
 1174SOL    HW2 4269   5.348   1.559   0.288 -0.6321  0.6623  1.0212
 1175SOL     OW 4270   2.344   3.174   3.606 -0.7018  0.0151  0.2615
 1175SOL    HW1 4271   2.296   3.167   3.689  0.3690 -0.9887  0.8372
 1175SOL    HW2 4272   2.278   3.164   3.538 -1.3916 -0.7124  1.0219
 1176SOL     OW 4273   2.321   6.251   3.033 -0.3834  0.1496  0.5638
 1176SOL    HW1 4274   2.326   6.329   3.087  0.9134  1.4536 -1.3141
 1176SOL    HW2 4275   2.412   6.224   3.020 -0.8123 -1.7887  1.2881
 1177SOL     OW 4276   5.002   2.760   2.200 -0.0994 -0.1841  0.0644
 1177SOL    HW1 4277   5.026   2.844   2.238  0.6325 -0.7501  0.9188
 1177SOL    HW2 4278   4.981   2.704   2.275 -0.4313 -0.8068 -0.4724
 1178SOL     OW 4279   4.519   0.072   3.844  0.2361 -0.1155 -0.2128
 1178SOL    HW1 4280   4.588   0.137   3.847 -0.1073  0.2363  1.0581
 1178SOL    HW2 4281   4.490   0.065   3.935 -1.3611 -0.2770 -0.7053
 1179SOL     OW 4282   1.605   6.053   0.818  0.0180 -0.2568  0.1256
 1179SOL    HW1 4283   1.649   6.120   0.767 -1.2686  0.5758  0.0883
 1179SOL    HW2 4284   1.568   6.100   0.893 -0.5603 -0.9901  0.3112
 1180SOL     OW 4285   5.806   4.812   4.557 -0.2662  0.3613  0.2190
 1180SOL    HW1 4286   5.836   4.792   4.468 -0.9066  0.2213  0.0273
 1180SOL    HW2 4287   5.808   4.728   4.603  0.2030  0.4600  0.3783
 1181SOL     OW 4288   0.397   3.322   5.072 -0.0925 -0.1640 -0.4274
 1181SOL    HW1 4289   0.336   3.387   5.037  1.4989  1.0043 -1.1590
 1181SOL    HW2 4290   0.345   3.271   5.134 -1.8044  0.7476 -1.0421
 1182SOL     OW 4291   0.196   5.912   3.639  0.1789 -0.2262  0.2743
 1182SOL    HW1 4292   0.240   5.962   3.708 -0.0598  0.4982 -0.0853
 1182SOL    HW2 4293   0.104   5.938   3.646 -0.1196 -1.3415  0.6938
 1183SOL     OW 4294   3.012   4.369   2.035 -0.4269  0.3460 -0.7610
 1183SOL    HW1 4295   2.994   4.363   1.941 -2.2892  2.8119 -0.6626
 1183SOL    HW2 4296   3.085   4.429   2.042 -0.7263  0.7003 -0.6266
 1184SOL     OW 4297   4.781   1.445   1.877 -0.0155 -0.5967 -0.2138
 1184SOL    HW1 4298   4.724   1.386   1.926 -1.9182 -0.1280 -1.7313
 1184SOL    HW2 4299   4.722   1.497   1.823  1.7616  1.0502 -0.7231
 1185SOL     OW 4300   1.838   4.205   4.100  0.4795 -0.4944  0.0602
 1185SOL    HW1 4301   1.881   4.169   4.023 -1.6365 -2.2363 -0.3976
 1185SOL    HW2 4302   1.817   4.129   4.155 -1.6543  0.2616  0.3952
 1186SOL     OW 4303   3.001   5.964   3.150 -0.4264 -0.2616 -0.3061
 1186SOL    HW1 4304   2.909   5.940   3.146 -0.0437 -1.7826 -2.7327
 1186SOL    HW2 4305   3.002   6.059   3.153 -2.0167 -0.1736  3.9637
 1187SOL     OW 4306   4.643   6.152   0.096 -0.2621 -0.6263  0.0928
 1187SOL    HW1 4307   4.595   6.204   0.161 -1.2289 -1.5393  0.1308
 1187SOL    HW2 4308   4.585   6.146   0.021 -0.2723 -1.8147  0.1676
 1188SOL     OW 4309   5.551   4.101   0.766  0.2119  0.1569 -0.4043
 1188SOL    HW1 4310   5.537   4.090   0.672 -0.1807 -1.5379 -0.1945
 1188SOL    HW2 4311   5.602   4.182   0.774 -1.1962  1.2592 -1.9313
 1189SOL     OW 4312   3.696   2.304   4.788  0.1053  1.1751  0.3617
 1189SOL    HW1 4313   3.740   2.347   4.714  1.0292 -0.4239 -0.0520
 1189SOL    HW2 4314   3.737   2.218   4.794 -0.6574  0.8928  2.1192
 1190SOL     OW 4315   1.984   2.033   4.005  0.0922  0.5892 -0.3260
 1190SOL    HW1 4316   2.051   1.965   4.016  0.4385  1.0757  0.7659
 1190SOL    HW2 4317   2.027   2.100   3.952  0.5414  0.9709  0.5002
 1191SOL     OW 4318   6.188   2.536   1.465 -0.1460 -0.4056  0.3739
 1191SOL    HW1 4319   6.214   2.522   1.374 -0.6099  0.3364  0.1143
 1191SOL    HW2 4320   6.135   2.616   1.463  0.4247  0.0326  1.3984
 1192SOL     OW 4321   3.354   0.435   5.178  0.0473  0.3911 -0.7681
 1192SOL    HW1 4322   3.318   0.394   5.099 -0.5463 -1.4034  0.3770
 1192SOL    HW2 4323   3.277   0.473   5.221 -0.1424 -1.2156  0.3931
 1193SOL     OW 4324   4.003   5.375   4.547 -0.3026  0.0053  0.1879
 1193SOL    HW1 4325   3.989   5.387   4.453 -0.0609  0.0553  0.1576
 1193SOL    HW2 4326   3.923   5.407   4.587 -0.6314 -0.5357 -0.0305
 1194SOL     OW 4327   2.648   3.349   5.000 -0.4458  0.4881 -0.0041
 1194SOL    HW1 4328   2.694   3.416   5.050 -0.3988 -0.0631  0.6994
 1194SOL    HW2 4329   2.716   3.310   4.944 -0.3249  0.5292  0.1154
 1195SOL     OW 4330   4.131   5.654   4.786 -0.2273 -0.7080 -0.5128
 1195SOL    HW1 4331   4.210   5.708   4.789 -1.0280  0.4378  1.4428
 1195SOL    HW2 4332   4.065   5.709   4.745  0.1021 -1.9303 -2.8503
 1196SOL     OW 4333   1.769   1.003   6.279 -0.7579 -0.4298 -0.0707
 1196SOL    HW1 4334   1.766   0.908   6.270 -1.8055 -0.4041 -0.1068
 1196SOL    HW2 4335   1.770   1.018   6.374  0.0768 -0.4782 -0.0616
 1197SOL     OW 4336   3.385   4.453   3.269  0.6152 -0.3085 -0.7876
 1197SOL    HW1 4337   3.465   4.434   3.221  1.8606  1.2943  0.5520
 1197SOL    HW2 4338   3.385   4.391   3.342  1.5076  0.7263  0.1215
 1198SOL     OW 4339   0.998   2.620   4.964  0.4458  0.2592  0.0730
 1198SOL    HW1 4340   0.981   2.715   4.961  0.2896  0.3070  1.8293
 1198SOL    HW2 4341   1.009   2.596   4.872 -3.4562  1.2326 -0.8176
 1199SOL     OW 4342   2.865   4.882   6.162  0.3892  0.4998  0.4973
 1199SOL    HW1 4343   2.959   4.869   6.153  0.5525  0.4078  2.1768
 1199SOL    HW2 4344   2.847   4.962   6.112  0.9619 -0.6242 -1.6497
 1200SOL     OW 4345   1.470   3.762   2.243 -0.7187 -0.1592 -0.4318
 1200SOL    HW1 4346   1.450   3.728   2.331  0.4452  2.2398  0.8667
 1200SOL    HW2 4347   1.505   3.850   2.259 -2.0883  1.0647 -3.4451
 1201SOL     OW 4348   1.845   5.889   1.500 -0.4939 -0.2313 -0.0219
 1201SOL    HW1 4349   1.939   5.894   1.514 -0.7641 -0.0963  2.0883
 1201SOL    HW2 4350   1.817   5.980   1.490 -0.1789 -0.3633 -2.8608
 1202SOL     OW 4351   4.147   6.183   3.234  0.2455 -0.0789  0.0707
 1202SOL    HW1 4352   4.198   6.260   3.261 -1.1065  1.2916 -1.1197
 1202SOL    HW2 4353   4.083   6.171   3.304  0.7296 -0.3898  0.4632
 1203SOL     OW 4354   3.705   6.014   5.896 -0.1237  0.2434  0.0376
 1203SOL    HW1 4355   3.629   5.997   5.953 -0.3246  0.8933 -0.0251
 1203SOL    HW2 4356   3.746   5.929   5.884  0.2516  0.1684  1.6362
 1204SOL     OW 4357   2.984   5.187   3.889 -0.4376  0.4230  0.3384
 1204SOL    HW1 4358   3.040   5.199   3.966 -0.5845 -1.0077  0.6989
 1204SOL    HW2 4359   2.965   5.093   3.888 -2.9841  0.8716  0.3238
 1205SOL     OW 4360   1.049   3.680   4.899  0.2592  0.1825  0.4246
 1205SOL    HW1 4361   1.140   3.708   4.896 -0.4320  2.5898 -0.7865
 1205SOL    HW2 4362   1.020   3.684   4.807 -1.2567  0.1846  0.8776
 1206SOL     OW 4363   1.114   3.895   3.598 -0.3562  0.4300 -0.3769
 1206SOL    HW1 4364   1.101   3.917   3.691 -3.9990 -0.1141 -0.6152
 1206SOL    HW2 4365   1.172   3.820   3.600 -1.4144 -0.4352  1.6336
 1207SOL     OW 4366   1.444   2.594   4.218  0.4242  0.0845  0.1697
 1207SOL    HW1 4367   1.506   2.661   4.190 -0.8443  1.0411 -0.4951
 1207SOL    HW2 4368   1.472   2.514   4.173  0.7707  0.6675 -0.6852
 1208SOL     OW 4369   3.166   1.434   4.274  0.7778  0.3457 -0.0919
 1208SOL    HW1 4370   3.155   1.463   4.183  0.9073  0.5558 -0.0407
 1208SOL    HW2 4371   3.259   1.413   4.281  0.4077 -1.6617 -0.5922
 1209SOL     OW 4372   5.615   3.583   4.048 -0.0516 -0.1781 -0.7240
 1209SOL    HW1 4373   5.691   3.623   4.090 -0.7787 -0.3191  0.7869
 1209SOL    HW2 4374   5.650   3.506   4.004  0.6332 -0.5330  0.3876
 1210SOL     OW 4375   0.778   1.564   2.112  0.2405 -0.5508 -0.7462
 1210SOL    HW1 4376   0.780   1.657   2.132  0.1063 -0.3899 -1.4713
 1210SOL    HW2 4377   0.845   1.526   2.169  2.0708  0.3374 -2.2089
 1211SOL     OW 4378   0.423   1.935   0.369  0.1124 -0.4448 -0.5090
 1211SOL    HW1 4379   0.500   1.988   0.389  0.1271 -1.0253  1.1169
 1211SOL    HW2 4380   0.434   1.911   0.277  2.3991 -1.2938 -0.0900
 1212SOL     OW 4381   5.698   6.242   2.851 -0.0116 -0.2696 -0.6010
 1212SOL    HW1 4382   5.781   6.251   2.898 -1.3211  1.4860  1.5840
 1212SOL    HW2 4383   5.675   6.150   2.859  1.2512 -0.5835 -0.4283
 1213SOL     OW 4384   6.041   1.664   3.573 -0.1541  0.4990  0.0305
 1213SOL    HW1 4385   6.040   1.595   3.640 -1.5480  1.7027  1.3526
 1213SOL    HW2 4386   6.133   1.683   3.558  0.2014 -0.0306  1.4180
 1214SOL     OW 4387   4.379   0.792   0.405  0.7311 -0.1460 -0.4464
 1214SOL    HW1 4388   4.456   0.830   0.448 -0.9289  2.8386  0.1871
 1214SOL    HW2 4389   4.325   0.760   0.477 -0.5115  1.7455 -0.4790
 1215SOL     OW 4390   2.661   3.269   3.017  0.2824  0.0789 -0.6000
 1215SOL    HW1 4391   2.679   3.203   3.084  0.1671  0.6791  0.0266
 1215SOL    HW2 4392   2.742   3.275   2.967  1.5482  1.9244  1.4825
 1216SOL     OW 4393   2.576   0.759   6.127 -0.0385  0.3242  0.0943
 1216SOL    HW1 4394   2.549   0.727   6.041  1.2125  0.6032 -0.4094
 1216SOL    HW2 4395   2.630   0.836   6.109  2.0070 -0.8200  0.9833
 1217SOL     OW 4396   2.677   1.737   2.680 -0.0355 -0.0187  0.3923
 1217SOL    HW1 4397   2.743   1.673   2.654 -1.3920 -1.1054 -0.5282
 1217SOL    HW2 4398   2.653   1.711   2.769 -1.1600 -1.3628 -0.2599
 1218SOL     OW 4399   4.816   4.531   2.078  0.0760  0.4555  0.4384
 1218SOL    HW1 4400   4.804   4.521   1.984 -3.8548  1.4564  0.6802
 1218SOL    HW2 4401   4.870   4.456   2.104 -0.6893 -1.1379 -2.2520
 1219SOL     OW 4402   5.360   2.419   1.767 -0.2915  0.0748  0.2736
 1219SOL    HW1 4403   5.454   2.398   1.763 -0.6997 -1.7032 -1.1311
 1219SOL    HW2 4404   5.332   2.389   1.853  0.2828 -0.0771  0.4097
 1220SOL     OW 4405   3.195   0.781   3.090 -0.2255  0.2094  0.3304
 1220SOL    HW1 4406   3.122   0.828   3.050 -1.2816 -0.1138  1.7897
 1220SOL    HW2 4407   3.272   0.816   3.046 -1.2171  0.7923 -1.0436
 1221SOL     OW 4408   0.091   3.256   4.048  0.8514 -0.4686  0.1317
 1221SOL    HW1 4409   0.095   3.160   4.044  0.2059 -0.4764 -2.0402
 1221SOL    HW2 4410   0.002   3.277   4.019  1.4947  0.8153 -1.0161
 1222SOL     OW 4411   0.758   0.285   4.768  0.7781 -0.0510 -0.0814
 1222SOL    HW1 4412   0.834   0.254   4.720 -1.0806 -1.2864 -2.4551
 1222SOL    HW2 4413   0.690   0.220   4.750 -1.1968  1.6317  0.8911
 1223SOL     OW 4414   0.130   0.618   0.234  0.0163  0.6515  0.5075
 1223SOL    HW1 4415   0.063   0.565   0.276  0.7636  0.1397  1.0684
 1223SOL    HW2 4416   0.193   0.554   0.200  0.0575  1.1111 -0.3060
 1224SOL     OW 4417   0.916   0.447   1.250 -0.0331  0.4489  0.4280
 1224SOL    HW1 4418   0.863   0.384   1.298  1.3203 -0.1409  1.2160
 1224SOL    HW2 4419   0.911   0.418   1.159  1.8277 -1.8563  0.9498
 1225SOL     OW 4420   5.420   1.827   1.397  0.4521  0.1846  0.1671
 1225SOL    HW1 4421   5.458   1.910   1.426  0.7849 -0.9996  3.6138
 1225SOL    HW2 4422   5.330   1.829   1.429  0.7499 -1.1096  1.1759
 1226SOL     OW 4423   4.439   5.067   0.247 -0.0284  0.2642 -0.1433
 1226SOL    HW1 4424   4.499   5.080   0.321 -0.7489  0.8129  0.3615
 1226SOL    HW2 4425   4.461   5.138   0.187  0.3962 -0.0389 -0.3507
 1227SOL     OW 4426   3.336   4.826   1.086 -0.0819 -0.2978 -0.0033
 1227SOL    HW1 4427   3.351   4.774   1.165 -0.5060 -0.5229 -0.0655
 1227SOL    HW2 4428   3.263   4.883   1.108  1.4903  1.5410  0.6566
 1228SOL     OW 4429   0.209   2.987   2.903 -0.4889  0.3465 -0.2362
 1228SOL    HW1 4430   0.283   3.045   2.920 -0.2533 -0.0077 -0.0460
 1228SOL    HW2 4431   0.174   3.017   2.819 -0.2704  0.6580 -0.2181
 1229SOL     OW 4432   2.304   2.155   5.990 -0.3667  0.7088 -0.2470
 1229SOL    HW1 4433   2.381   2.159   6.048 -0.5128 -0.5544  0.0668
 1229SOL    HW2 4434   2.237   2.113   6.044 -0.2495 -1.3099 -1.5803
 1230SOL     OW 4435   4.256   2.151   4.476  0.4090 -0.1384 -0.7486
 1230SOL    HW1 4436   4.292   2.231   4.514  0.8553 -0.3333 -0.7569
 1230SOL    HW2 4437   4.276   2.157   4.383  0.1207 -0.0908 -0.8097
 1231SOL     OW 4438   2.673   0.967   3.418  0.4508 -0.2560 -0.3476
 1231SOL    HW1 4439   2.615   1.043   3.423 -0.4498 -1.0183  2.3187
 1231SOL    HW2 4440   2.644   0.919   3.340 -1.8042 -0.0508  0.3188
 1232SOL     OW 4441   4.973   5.247   2.509  0.0747 -0.1035  0.0294
 1232SOL    HW1 4442   4.986   5.278   2.420 -1.5355  1.3224  0.2411
 1232SOL    HW2 4443   5.049   5.279   2.557  1.0011 -0.9670 -0.8173
 1233SOL     OW 4444   0.720   3.560   5.641 -0.2583 -0.2916  0.0046
 1233SOL    HW1 4445   0.814   3.552   5.622 -0.4642  0.0770 -1.2062
 1233SOL    HW2 4446   0.696   3.647   5.610 -1.2515 -0.8311 -0.7965
 1234SOL     OW 4447   5.257   5.825   1.080  0.4536  0.7818  0.0665
 1234SOL    HW1 4448   5.274   5.741   1.037  0.5570  1.1403 -0.6144
 1234SOL    HW2 4449   5.173   5.853   1.044 -0.9690 -0.3029  2.3421
 1235SOL     OW 4450   0.740   3.315   2.414  0.5384 -0.6927  0.2662
 1235SOL    HW1 4451   0.810   3.264   2.453  2.1209  1.3498  0.2868
 1235SOL    HW2 4452   0.706   3.369   2.486  0.6669  0.1214 -0.2638
 1236SOL     OW 4453   2.187   5.972   4.857 -0.7085  0.4613 -0.0355
 1236SOL    HW1 4454   2.246   6.020   4.915  0.9235  0.5598 -1.6603
 1236SOL    HW2 4455   2.203   5.880   4.878  0.7800  0.4437 -1.0694
 1237SOL     OW 4456   4.264   5.287   3.028  0.2469 -0.3521  0.1552
 1237SOL    HW1 4457   4.274   5.239   2.945 -0.5500  0.9363 -0.7251
 1237SOL    HW2 4458   4.350   5.328   3.042  0.9509 -2.0210  0.9425
 1238SOL     OW 4459   5.020   2.948   0.426  0.3003 -0.1397  0.5888
 1238SOL    HW1 4460   5.035   2.875   0.485  1.6721  0.0905  0.5475
 1238SOL    HW2 4461   5.107   2.978   0.401 -0.2234 -0.4641 -1.8709
 1239SOL     OW 4462   5.648   1.851   0.747  0.4255 -0.3059 -0.1338
 1239SOL    HW1 4463   5.608   1.826   0.830 -0.1850  0.6097 -0.1341
 1239SOL    HW2 4464   5.658   1.768   0.700 -0.0630 -0.7340  0.4866
 1240SOL     OW 4465   3.618   2.228   1.979  0.2370  0.4593  0.3868
 1240SOL    HW1 4466   3.639   2.269   1.895  0.3532 -0.8457 -0.2349
 1240SOL    HW2 4467   3.531   2.261   2.000 -0.5441 -0.5235 -1.1152
 1241SOL     OW 4468   3.742   5.433   2.912 -0.1398 -0.0422  0.1963
 1241SOL    HW1 4469   3.836   5.415   2.908 -0.2495 -0.4910 -0.5418
 1241SOL    HW2 4470   3.715   5.435   2.820 -0.9300 -0.3451  0.4210
 1242SOL     OW 4471   4.181   4.704   1.645  0.1858 -0.0761  0.2623
 1242SOL    HW1 4472   4.254   4.666   1.693  0.8523  0.6528 -0.1503
 1242SOL    HW2 4473   4.152   4.634   1.586  1.7391  0.1919 -0.8626
 1243SOL     OW 4474   2.655   3.493   4.502  0.1808 -0.3454 -0.0462
 1243SOL    HW1 4475   2.745   3.463   4.490  0.0721 -2.0058  2.4480
 1243SOL    HW2 4476   2.662   3.587   4.514  1.6303 -0.5043  0.5080
 1244SOL     OW 4477   2.241   4.748   5.396 -0.2169 -0.0524 -0.2691
 1244SOL    HW1 4478   2.262   4.842   5.400  0.1099 -0.1571  1.0283
 1244SOL    HW2 4479   2.309   4.706   5.449 -0.7273 -0.9557 -0.3106
 1245SOL     OW 4480   3.124   5.002   1.141  0.1840 -0.0966 -0.4265
 1245SOL    HW1 4481   3.038   4.998   1.185  1.0967 -0.9718  1.3874
 1245SOL    HW2 4482   3.164   5.082   1.174 -0.2462  0.8029 -1.9788
 1246SOL     OW 4483   2.363   0.643   0.582  0.3967 -0.2810 -0.2435
 1246SOL    HW1 4484   2.310   0.573   0.543  0.5209 -0.5339  0.0297
 1246SOL    HW2 4485   2.338   0.722   0.535 -0.0765 -0.4346 -0.2510
 1247SOL     OW 4486   4.755   4.882   3.189 -0.5601 -0.3685  0.0110
 1247SOL    HW1 4487   4.736   4.976   3.192 -0.0059 -0.1772 -1.5318
 1247SOL    HW2 4488   4.766   4.857   3.281  1.6421  1.6025  0.3851
 1248SOL     OW 4489   2.732   3.740   2.292  0.3089 -0.8128  0.0668
 1248SOL    HW1 4490   2.732   3.795   2.370  3.0090 -0.6405  0.0534
 1248SOL    HW2 4491   2.717   3.800   2.219  0.2064 -0.5841  0.2767
 1249SOL     OW 4492   2.631   3.852   0.593 -0.1766 -0.1561 -0.8196
 1249SOL    HW1 4493   2.685   3.783   0.554 -0.3330 -0.8354  0.1447
 1249SOL    HW2 4494   2.688   3.929   0.594  0.1182 -0.3508 -1.5761
 1250SOL     OW 4495   5.661   2.806   3.442 -0.1152 -0.6854 -0.1465
 1250SOL    HW1 4496   5.643   2.715   3.423  0.2600 -1.1591  1.5698
 1250SOL    HW2 4497   5.756   2.815   3.431 -0.1265 -0.5609 -0.1444
 1251SOL     OW 4498   0.841   1.765   5.869  0.2994  0.5198  0.8400
 1251SOL    HW1 4499   0.765   1.813   5.837 -1.0490 -0.8405  1.8498
 1251SOL    HW2 4500   0.874   1.818   5.941  1.0297  1.6670 -0.2886
 1252SOL     OW 4501   1.603   0.225   0.651 -0.2606 -0.0921  0.7473
 1252SOL    HW1 4502   1.632   0.316   0.642  0.5319 -0.4371 -0.4288
 1252SOL    HW2 4503   1.566   0.221   0.739  1.7721  0.8130  1.7280
 1253SOL     OW 4504   3.761   2.338   4.184  0.1766  0.5119 -0.2485
 1253SOL    HW1 4505   3.689   2.358   4.243  0.6314  2.1204 -0.1920
 1253SOL    HW2 4506   3.775   2.419   4.135  1.8588  0.2017 -0.3453
 1254SOL     OW 4507   3.007   5.146   4.403  1.0521 -0.1246 -0.0678
 1254SOL    HW1 4508   3.073   5.138   4.473  2.5275  0.0698 -1.3779
 1254SOL    HW2 4509   3.034   5.083   4.337 -0.7064 -0.7782 -0.2168
 1255SOL     OW 4510   6.086   0.993   3.407  0.0596 -0.2309  0.1400
 1255SOL    HW1 4511   5.999   0.991   3.448 -0.6455 -1.2459 -1.2873
 1255SOL    HW2 4512   6.114   0.901   3.407  0.4731 -0.1134 -0.6981
 1256SOL     OW 4513   1.558   5.041   4.045  0.1377  0.4326  0.4298
 1256SOL    HW1 4514   1.470   5.011   4.022  0.2014  0.5573  0.0257
 1256SOL    HW2 4515   1.616   4.989   3.990  0.2319  1.5646 -0.5788
 1257SOL     OW 4516   1.435   3.791   6.114  0.2897  0.0181  0.3858
 1257SOL    HW1 4517   1.459   3.715   6.061 -0.5934  0.3133 -0.4580
 1257SOL    HW2 4518   1.376   3.756   6.180 -0.5749  0.0457 -0.3534
 1258SOL     OW 4519   5.385   4.905   4.942 -0.0490  0.1459  0.2214
 1258SOL    HW1 4520   5.311   4.922   4.883  0.5832 -0.8317 -0.9057
 1258SOL    HW2 4521   5.388   4.981   4.999 -0.4707  1.3075 -1.2494
 1259SOL     OW 4522   2.929   2.281   6.300  0.1169  0.4050  0.1776
 1259SOL    HW1 4523   2.980   2.339   6.357 -0.0983 -2.4389  3.6149
 1259SOL    HW2 4524   2.981   2.201   6.294 -1.5961 -0.7063 -0.6102
 1260SOL     OW 4525   1.536   4.383   4.748 -0.1100  0.3545  0.2278
 1260SOL    HW1 4526   1.469   4.328   4.787 -0.5092  0.9498  0.3958
 1260SOL    HW2 4527   1.495   4.418   4.668  0.6165 -0.6764 -0.6349
 1261SOL     OW 4528   1.765   3.404   3.603  0.1328  0.2549  0.3267
 1261SOL    HW1 4529   1.679   3.402   3.645  0.5545  2.1951  1.3709
 1261SOL    HW2 4530   1.827   3.424   3.674  1.7651 -2.9236 -0.0053
 1262SOL     OW 4531   3.142   5.891   0.835 -0.3442  0.1796  0.2118
 1262SOL    HW1 4532   3.140   5.951   0.761 -0.7404  0.5519  0.5154
 1262SOL    HW2 4533   3.099   5.939   0.906  0.8246  0.1764  0.9460
 1263SOL     OW 4534   0.715   5.137   0.039  0.3320  0.3599  0.5298
 1263SOL    HW1 4535   0.762   5.172  -0.036  0.0144 -0.2620  0.0319
 1263SOL    HW2 4536   0.649   5.079   0.001  0.8967 -0.8504  1.3341
 1264SOL     OW 4537   5.578   3.509   2.803  0.4965  0.0213  0.4407
 1264SOL    HW1 4538   5.608   3.426   2.839 -0.3373 -0.9985 -1.0925
 1264SOL    HW2 4539   5.482   3.504   2.809  0.4103  0.5396 -0.3416
 1265SOL     OW 4540   5.693   2.158   5.439  0.3709  0.6507  0.0214
 1265SOL    HW1 4541   5.671   2.250   5.453  0.2057  0.5898  0.1746
 1265SOL    HW2 4542   5.780   2.160   5.400  0.2583  0.8829 -0.2230
 1266SOL     OW 4543   1.503   3.266   0.026 -0.0760 -0.0535  0.1989
 1266SOL    HW1 4544   1.548   3.185   0.052  0.3777 -0.0654 -0.5678
 1266SOL    HW2 4545   1.574   3.325  -0.001 -0.3582  0.8282  1.3298
 1267SOL     OW 4546   2.772   5.568   3.595 -0.1516  0.2012 -0.3617
 1267SOL    HW1 4547   2.691   5.617   3.579  0.5248  1.6575  0.5216
 1267SOL    HW2 4548   2.842   5.628   3.570  0.7921  0.8177  3.2457
 1268SOL     OW 4549   0.799   2.504   1.138  0.3318  0.5660  0.2022
 1268SOL    HW1 4550   0.868   2.439   1.126  0.4943  0.6734  0.5659
 1268SOL    HW2 4551   0.718   2.455   1.122  0.5417  0.9696 -2.7378
 1269SOL     OW 4552   2.020   3.436   1.996  0.5907  0.4191  0.2902
 1269SOL    HW1 4553   2.052   3.523   1.972  0.1235  0.1813 -1.3123
 1269SOL    HW2 4554   1.941   3.424   1.944  0.0506 -0.5486  1.2953
 1270SOL     OW 4555   5.085   3.203   6.299 -0.2781 -0.0886  0.3285
 1270SOL    HW1 4556   5.167   3.252   6.303 -0.4419  0.1876  0.3090
 1270SOL    HW2 4557   5.017   3.270   6.299 -0.5749 -0.3302  2.3434
 1271SOL     OW 4558   1.057   3.291   5.077  0.2712 -0.5294 -0.4556
 1271SOL    HW1 4559   1.113   3.311   5.152  0.3516 -1.0960 -0.3587
 1271SOL    HW2 4560   1.016   3.207   5.099 -0.7297 -0.0481 -0.4591
 1272SOL     OW 4561   4.769   1.862   3.341  0.2437 -0.2784  0.5471
 1272SOL    HW1 4562   4.844   1.832   3.289  0.3765  1.3766 -0.2789
 1272SOL    HW2 4563   4.757   1.794   3.408  1.4717 -1.3559 -0.2821
 1273SOL     OW 4564   1.707   5.137   5.706 -0.6491  0.4350 -0.2686
 1273SOL    HW1 4565   1.732   5.093   5.787 -2.7566  1.4434  1.0171
 1273SOL    HW2 4566   1.750   5.087   5.637 -1.2043 -2.3337  1.2452
 1274SOL     OW 4567   4.482   4.015   1.132 -0.5437  0.3085  0.4273
 1274SOL    HW1 4568   4.562   4.067   1.140  0.3059 -0.6250 -1.2988
 1274SOL    HW2 4569   4.455   3.997   1.222  0.2910  1.9696  1.0354
 1275SOL     OW 4570   5.746   3.693   1.660 -0.4725  0.2075 -0.5048
 1275SOL    HW1 4571   5.693   3.756   1.708  0.0254  1.5427 -1.6456
 1275SOL    HW2 4572   5.696   3.611   1.664 -0.4667  0.2407  2.2093
 1276SOL     OW 4573   4.592   2.775   5.387  0.8078 -0.2145  0.2711
 1276SOL    HW1 4574   4.546   2.703   5.430 -1.9057  0.2511 -1.6100
 1276SOL    HW2 4575   4.614   2.835   5.459 -0.2937 -1.1297  1.4253
 1277SOL     OW 4576   5.046   3.322   2.512 -0.8368  0.4712 -0.1993
 1277SOL    HW1 4577   5.127   3.353   2.473 -0.7407 -1.7148 -1.9129
 1277SOL    HW2 4578   5.070   3.243   2.559 -2.0711 -0.7815 -1.5654
 1278SOL     OW 4579   2.550   0.606   0.325 -0.2534 -0.3850  0.3339
 1278SOL    HW1 4580   2.566   0.605   0.419  0.6912  0.9454  0.2185
 1278SOL    HW2 4581   2.570   0.517   0.296  0.9384 -0.4122  1.1785
 1279SOL     OW 4582   5.867   2.139   5.958  0.3212  0.1292  0.1255
 1279SOL    HW1 4583   5.839   2.224   5.992  0.2066  1.3117 -2.6715
 1279SOL    HW2 4584   5.793   2.081   5.974 -1.0868  1.5039 -1.1168
 1280SOL     OW 4585   6.110   6.046   5.384  0.1765 -0.3169  0.0113
 1280SOL    HW1 4586   6.107   6.002   5.299 -0.5284 -1.0774  0.4126
 1280SOL    HW2 4587   6.127   6.137   5.363 -1.8419 -0.1261 -1.1125
 1281SOL     OW 4588   4.498   2.368   0.170 -0.6964  0.1353  0.4980
 1281SOL    HW1 4589   4.504   2.384   0.076 -0.6189 -0.1452  0.4537
 1281SOL    HW2 4590   4.413   2.325   0.181 -1.0155  0.7851  0.6469
 1282SOL     OW 4591   2.859   5.338   5.647  0.4249  0.4440  0.3273
 1282SOL    HW1 4592   2.836   5.336   5.555 -0.9264 -1.3839  0.6467
 1282SOL    HW2 4593   2.916   5.262   5.659  1.2649  1.1437  0.8480
 1283SOL     OW 4594   1.958   5.028   2.066  0.1600 -0.0731  0.0259
 1283SOL    HW1 4595   1.923   5.077   1.991 -0.8324  0.4784  0.8292
 1283SOL    HW2 4596   2.043   5.069   2.085  0.8143 -0.7491 -1.2881
 1284SOL     OW 4597   4.586   5.562   0.882 -0.1056  0.3085  0.1417
 1284SOL    HW1 4598   4.611   5.490   0.940 -3.0816 -1.0731 -0.1119
 1284SOL    HW2 4599   4.598   5.527   0.794 -0.9065  0.3205  0.0151
 1285SOL     OW 4600   5.604   2.335   1.155  0.2905  0.3938  0.8513
 1285SOL    HW1 4601   5.589   2.430   1.150  1.1756  0.4524 -1.7342
 1285SOL    HW2 4602   5.697   2.327   1.176 -0.0830  0.0418  2.5291
 1286SOL     OW 4603   1.382   0.113   5.545 -0.5838 -0.0272  0.1510
 1286SOL    HW1 4604   1.375   0.208   5.544  0.9273  0.1031  0.1241
 1286SOL    HW2 4605   1.298   0.083   5.510 -1.4086  1.2561  0.9301
 1287SOL     OW 4606   3.375   4.939   5.026 -0.0879  0.5142 -0.3826
 1287SOL    HW1 4607   3.428   4.957   4.949  1.5711  0.9894  0.7959
 1287SOL    HW2 4608   3.321   4.864   5.002  1.2126 -0.0590 -1.6289
 1288SOL     OW 4609   2.496   2.833   1.598 -0.0504  0.0830 -0.3523
 1288SOL    HW1 4610   2.573   2.860   1.648 -0.8046 -0.2097  1.0145
 1288SOL    HW2 4611   2.433   2.805   1.664 -1.0927 -0.3211 -1.4798
 1289SOL     OW 4612   3.290   2.712   5.406 -0.2512 -0.4893  0.2389
 1289SOL    HW1 4613   3.312   2.630   5.361  1.1437  0.1337 -0.2570
 1289SOL    HW2 4614   3.307   2.694   5.499 -1.1979 -1.1489  0.2994
 1290SOL     OW 4615   5.260   3.152   4.963 -0.1778 -0.3537  0.1910
 1290SOL    HW1 4616   5.240   3.068   5.006  1.0806 -0.6498  0.2143
 1290SOL    HW2 4617   5.331   3.133   4.903 -1.2137  0.2926 -1.3073
 1291SOL     OW 4618   5.028   6.114   1.950 -0.7750  0.3066  0.6409
 1291SOL    HW1 4619   5.032   6.127   2.045 -3.7461 -1.8179  1.1992
 1291SOL    HW2 4620   4.949   6.160   1.923  0.3076  1.3046 -0.9459
 1292SOL     OW 4621   2.080   2.170   3.786  0.8417  0.4327  0.4922
 1292SOL    HW1 4622   2.153   2.193   3.729  0.0658  0.2461 -0.6142
 1292SOL    HW2 4623   2.009   2.229   3.759  0.4466  0.3189  1.2450
 1293SOL     OW 4624   0.970   4.218   0.070  0.1120 -0.0549 -0.2214
 1293SOL    HW1 4625   0.919   4.159   0.126  2.1359 -2.2963 -0.6038
 1293SOL    HW2 4626   0.969   4.177  -0.016  0.0246  1.4969 -0.9972
 1294SOL     OW 4627   4.007   2.287   2.291 -0.3126  0.0948 -0.1717
 1294SOL    HW1 4628   3.936   2.344   2.321 -1.6145 -1.1984 -0.6833
 1294SOL    HW2 4629   3.980   2.259   2.204  1.8541  1.2241 -1.2837
 1295SOL     OW 4630   1.085   1.722   4.443 -0.6921  0.7746 -0.2854
 1295SOL    HW1 4631   1.006   1.766   4.472  0.0426  0.8893  1.6629
 1295SOL    HW2 4632   1.150   1.792   4.434 -0.3953  0.4885 -0.4098
 1296SOL     OW 4633   1.586   4.298   2.282 -0.0663  0.2247  0.2931
 1296SOL    HW1 4634   1.610   4.314   2.191 -0.3630  0.7396  0.2961
 1296SOL    HW2 4635   1.531   4.220   2.279 -0.3372  0.4208 -0.0166
 1297SOL     OW 4636   0.898   5.928   6.111 -0.4134  0.0153  0.8627
 1297SOL    HW1 4637   0.905   5.847   6.060  1.9939 -0.1130  1.2813
 1297SOL    HW2 4638   0.866   5.900   6.196 -0.1746 -0.4045  0.8152
 1298SOL     OW 4639   0.181   4.755   0.214  0.2591 -0.2877 -0.3793
 1298SOL    HW1 4640   0.255   4.709   0.253  0.3403 -0.3934 -0.6563
 1298SOL    HW2 4641   0.178   4.724   0.123 -1.4008 -1.8673  0.1593
 1299SOL     OW 4642   5.823   2.951   1.572 -0.2088 -0.4683  0.0766
 1299SOL    HW1 4643   5.829   2.967   1.666  1.7361 -0.3614 -0.0366
 1299SOL    HW2 4644   5.766   3.021   1.540 -0.7499 -0.4026  1.1394
 1300SOL     OW 4645   1.773   6.130   2.237 -0.0355 -0.0260 -0.9727
 1300SOL    HW1 4646   1.848   6.084   2.199  0.9488  1.1794 -0.5765
 1300SOL    HW2 4647   1.697   6.085   2.202  0.7930 -3.1246  0.8007
 1301SOL     OW 4648   1.796   5.473   0.578  0.3186 -0.1459  0.1949
 1301SOL    HW1 4649   1.796   5.391   0.529 -0.5857 -0.7567  1.1824
 1301SOL    HW2 4650   1.754   5.537   0.520  0.0568 -0.6391 -0.1626
 1302SOL     OW 4651   4.445   3.263   5.245 -0.0294  0.3902 -1.0470
 1302SOL    HW1 4652   4.520   3.301   5.200  0.3593 -0.8657 -1.4917
 1302SOL    HW2 4653   4.380   3.333   5.246  1.6594  2.0741  0.7867
 1303SOL     OW 4654   3.541   0.200   2.986  0.5452 -0.0463 -0.0404
 1303SOL    HW1 4655   3.476   0.268   3.003  0.9495  1.0092 -2.3330
 1303SOL    HW2 4656   3.516   0.128   3.043  0.6340  2.2636  3.2666
 1304SOL     OW 4657   3.188   5.984   0.578  0.0416  0.4741  1.0526
 1304SOL    HW1 4658   3.196   5.893   0.549  0.4726  0.8016  0.0980
 1304SOL    HW2 4659   3.148   6.029   0.503  0.5570  1.2155  1.2185
 1305SOL     OW 4660   2.499   0.742   4.299  0.1361 -0.3881 -0.0755
 1305SOL    HW1 4661   2.537   0.763   4.384 -0.1604 -0.7586  0.1536
 1305SOL    HW2 4662   2.575   0.717   4.245  0.3439  0.0320  0.0225
 1306SOL     OW 4663   0.312   2.243   1.506 -0.7174  0.2641 -0.4363
 1306SOL    HW1 4664   0.223   2.235   1.540 -0.6412  0.2739 -0.2323
 1306SOL    HW2 4665   0.306   2.310   1.438 -0.5028  1.7075  0.9016
 1307SOL     OW 4666   2.060   4.115   1.494  0.1300  0.3054 -0.2046
 1307SOL    HW1 4667   2.090   4.205   1.508 -1.2532  0.9304 -0.9762
 1307SOL    HW2 4668   2.136   4.070   1.458  0.3686  1.6411 -1.4736
 1308SOL     OW 4669   0.165   1.777   2.714 -0.1528 -0.0971  0.0076
 1308SOL    HW1 4670   0.143   1.690   2.679 -0.0144 -1.1685  2.3776
 1308SOL    HW2 4671   0.081   1.816   2.736 -0.1634 -0.0748 -0.0728
 1309SOL     OW 4672   4.558   5.238   1.698 -0.9684 -0.2814 -0.2439
 1309SOL    HW1 4673   4.590   5.272   1.615  0.0228  2.7873  1.2716
 1309SOL    HW2 4674   4.533   5.315   1.749 -1.0958 -1.9863  2.5096
 1310SOL     OW 4675   1.250   2.644   0.172  0.1599 -0.0154  0.2141
 1310SOL    HW1 4676   1.323   2.701   0.151 -0.4418  0.6269 -0.1597
 1310SOL    HW2 4677   1.173   2.688   0.136 -0.5439 -0.2153  1.3994
 1311SOL     OW 4678   1.172   0.233   6.117  0.2539  0.3861  0.3121
 1311SOL    HW1 4679   1.187   0.157   6.060 -0.8059  1.7186 -1.8908
 1311SOL    HW2 4680   1.145   0.195   6.200 -0.3482 -1.6819 -0.7453
 1312SOL     OW 4681   2.434   4.829   6.182 -0.3683  0.2602 -0.0214
 1312SOL    HW1 4682   2.460   4.738   6.165  2.7619  1.0450 -0.1367
 1312SOL    HW2 4683   2.372   4.824   6.254  0.4721 -1.9205  0.6230
 1313SOL     OW 4684   2.612   1.788   4.326 -0.0434  0.1739  0.9548
 1313SOL    HW1 4685   2.665   1.853   4.281 -0.2285 -0.2904  0.0520
 1313SOL    HW2 4686   2.548   1.759   4.261  0.6156 -1.5806  1.0152
 1314SOL     OW 4687   6.170   0.738   3.284 -0.0251 -0.2739 -0.0405
 1314SOL    HW1 4688   6.098   0.676   3.276 -1.5680  1.4367 -0.1533
 1314SOL    HW2 4689   6.223   0.705   3.356 -0.0001 -2.4182 -0.9709
 1315SOL     OW 4690   2.838   3.253   5.306  0.1179  0.2442  0.2334
 1315SOL    HW1 4691   2.863   3.290   5.391 -0.3946 -0.5487  0.7451
 1315SOL    HW2 4692   2.852   3.325   5.244  1.0845  0.6482  0.8851
 1316SOL     OW 4693   3.543   2.443   3.871 -0.5954  0.1582 -0.1173
 1316SOL    HW1 4694   3.595   2.509   3.825  0.5322  0.4438  1.4787
 1316SOL    HW2 4695   3.599   2.365   3.871 -0.3786  0.3016  1.1466
 1317SOL     OW 4696   6.183   4.831   1.132  0.7176 -0.1071  0.6759
 1317SOL    HW1 4697   6.171   4.736   1.134  0.4460 -0.1270 -0.9104
 1317SOL    HW2 4698   6.118   4.865   1.195  0.4210 -0.9273  0.8225
 1318SOL     OW 4699   4.273   1.660   5.481 -0.0735 -0.1514 -0.3508
 1318SOL    HW1 4700   4.269   1.564   5.483 -1.3339 -0.1065  0.1956
 1318SOL    HW2 4701   4.366   1.679   5.468  0.4077 -1.4420  0.8821
 1319SOL     OW 4702   4.161   1.994   3.058 -0.4125  0.4520 -0.0073
 1319SOL    HW1 4703   4.196   1.942   3.130 -2.7428  0.8386  1.5473
 1319SOL    HW2 4704   4.209   2.077   3.062  2.1842 -0.8814 -1.4639
 1320SOL     OW 4705   3.471   4.581   0.075 -0.2423 -0.2015  0.1807
 1320SOL    HW1 4706   3.549   4.527   0.060 -0.9000 -0.8954 -1.0020
 1320SOL    HW2 4707   3.491   4.664   0.033 -0.3749 -0.6110 -0.7218
 1321SOL     OW 4708   5.777   2.557   1.319 -0.7682  0.5426  0.3744
 1321SOL    HW1 4709   5.795   2.650   1.333  0.8571  0.1299  1.2993
 1321SOL    HW2 4710   5.850   2.526   1.266 -1.6861 -0.0740 -0.5653
 1322SOL     OW 4711   2.644   3.916   3.450 -0.5383  0.8166 -0.0976
 1322SOL    HW1 4712   2.576   3.963   3.403 -0.9203  0.7049  0.3416
 1322SOL    HW2 4713   2.643   3.828   3.413 -0.6769  0.7958 -0.0441
 1323SOL     OW 4714   2.626   1.494   3.332 -0.8488  0.2597  0.0512
 1323SOL    HW1 4715   2.534   1.515   3.349  0.0254  3.2933  2.0305
 1323SOL    HW2 4716   2.645   1.422   3.392 -1.9364 -0.5540 -0.5331
 1324SOL     OW 4717   5.022   1.844   4.975  0.4127  0.4096  0.1554
 1324SOL    HW1 4718   5.008   1.759   4.932 -2.9554  0.8144  0.2197
 1324SOL    HW2 4719   4.953   1.900   4.940  0.2150  2.0212  2.8820
 1325SOL     OW 4720   0.237   2.446   5.956 -0.4412  0.5004 -0.1728
 1325SOL    HW1 4721   0.210   2.532   5.923 -0.9276 -0.3194 -2.0139
 1325SOL    HW2 4722   0.172   2.425   6.024 -0.6515  1.3319 -0.1052
 1326SOL     OW 4723   5.237   4.076   4.872  0.0733  0.0502 -0.4072
 1326SOL    HW1 4724   5.233   4.042   4.783 -0.1370  0.5142 -0.5826
 1326SOL    HW2 4725   5.204   4.005   4.928 -0.9790  0.1915 -0.8244
 1327SOL     OW 4726   2.434   4.197   4.295  0.3495  0.2978 -0.2198
 1327SOL    HW1 4727   2.402   4.153   4.217 -1.1512  1.0914 -0.0903
 1327SOL    HW2 4728   2.369   4.266   4.312 -0.5543 -1.1275  2.9088
 1328SOL     OW 4729   0.139   3.763   5.420  0.7135  0.3790 -0.4958
 1328SOL    HW1 4730   0.092   3.680   5.409 -0.7121  1.1633 -0.5275
 1328SOL    HW2 4731   0.185   3.776   5.338 -0.4628  0.4559 -1.1616
 1329SOL     OW 4732   0.908   0.845   0.808 -0.2993 -0.1174 -0.1771
 1329SOL    HW1 4733   0.939   0.833   0.718  0.5610 -0.5143  0.1564
 1329SOL    HW2 4734   0.883   0.758   0.836 -2.1707  0.2507 -0.5665
 1330SOL     OW 4735   1.282   2.310   4.760 -0.0653 -0.7333  0.2615
 1330SOL    HW1 4736   1.311   2.370   4.829  1.2786 -0.1478 -0.7857
 1330SOL    HW2 4737   1.297   2.223   4.797 -1.9538 -0.5046  1.7657
 1331SOL     OW 4738   2.834   2.525   3.636 -0.3909  0.1046 -0.1216
 1331SOL    HW1 4739   2.798   2.608   3.608 -0.2725  0.2144  0.0470
 1331SOL    HW2 4740   2.811   2.519   3.729  1.4023  0.9310  0.4205
 1332SOL     OW 4741   5.029   1.801   1.848  0.1386 -0.0815 -0.6772
 1332SOL    HW1 4742   5.087   1.728   1.825 -1.3537 -1.4777 -0.2538
 1332SOL    HW2 4743   4.971   1.810   1.773 -2.1460 -1.9681  0.7054
 1333SOL     OW 4744   2.953   2.241   0.723  0.1657 -0.2340  0.1821
 1333SOL    HW1 4745   2.987   2.301   0.657 -1.6738 -0.9047 -1.4483
 1333SOL    HW2 4746   2.992   2.156   0.702  0.4905 -0.2216  0.7024
 1334SOL     OW 4747   4.617   0.870   1.615 -0.4768  0.4540  0.0650
 1334SOL    HW1 4748   4.578   0.905   1.696 -1.7987  0.2362 -0.4539
 1334SOL    HW2 4749   4.595   0.936   1.549  2.5305  1.7844  0.2369
 1335SOL     OW 4750   6.175   5.896   4.668 -0.6231  0.5942 -0.3049
 1335SOL    HW1 4751   6.086   5.875   4.697 -0.4680 -0.0751 -0.2857
 1335SOL    HW2 4752   6.169   5.895   4.572 -0.3805 -0.6469 -0.3175
 1336SOL     OW 4753   6.057   0.667   2.783 -0.3146  0.4229 -0.1011
 1336SOL    HW1 4754   6.141   0.683   2.739 -0.7645 -1.0030 -1.5693
 1336SOL    HW2 4755   6.082   0.635   2.870  0.6296  1.5619  0.0668
 1337SOL     OW 4756   2.607   0.179   4.973  0.1095  0.3052 -0.2020
 1337SOL    HW1 4757   2.675   0.184   5.040 -0.6469 -0.5142  0.6470
 1337SOL    HW2 4758   2.585   0.270   4.955  0.1205  0.5277  0.8664
 1338SOL     OW 4759   1.022   0.739   4.772  0.6751 -0.0503 -0.4370
 1338SOL    HW1 4760   1.117   0.735   4.777  0.5996 -0.3362  1.2478
 1338SOL    HW2 4761   0.996   0.648   4.756  0.5218 -1.2416  4.7429
 1339SOL     OW 4762   2.660   2.499   0.056 -0.1280  0.4873 -0.6815
 1339SOL    HW1 4763   2.586   2.472   0.003  0.1126  0.9864 -1.2839
 1339SOL    HW2 4764   2.635   2.476   0.146 -0.4307 -0.5871 -1.0330
 1340SOL     OW 4765   3.868   5.880   0.696 -0.1523  1.1177  0.3443
 1340SOL    HW1 4766   3.824   5.817   0.639  0.9041  1.4278 -0.8685
 1340SOL    HW2 4767   3.955   5.843   0.709  1.8944  3.8973 -3.4476
 1341SOL     OW 4768   4.285   1.273   2.135  0.6101 -0.1988 -0.1572
 1341SOL    HW1 4769   4.229   1.195   2.132  1.1273 -0.5812  0.1110
 1341SOL    HW2 4770   4.248   1.327   2.205  0.4574 -0.3582 -0.1160
 1342SOL     OW 4771   5.512   5.985   2.296  0.4017 -0.1677  0.6547
 1342SOL    HW1 4772   5.437   5.999   2.237  1.3109 -1.0868 -0.8034
 1342SOL    HW2 4773   5.476   5.995   2.384 -0.9198  1.8123 -0.0245
 1343SOL     OW 4774   1.116   2.026   3.525 -0.5466  0.2107 -0.0547
 1343SOL    HW1 4775   1.102   2.091   3.456  1.0203  1.1873  0.5007
 1343SOL    HW2 4776   1.187   1.971   3.493 -1.6494 -1.0928 -0.3798
 1344SOL     OW 4777   5.032   1.415   6.072  0.2890  0.0342  0.0538
 1344SOL    HW1 4778   5.075   1.369   6.000  1.3104 -0.1629  0.7693
 1344SOL    HW2 4779   5.033   1.352   6.145 -1.2597  0.0064  0.0966
 1345SOL     OW 4780   6.096   3.570   3.549  0.4886 -0.1275  0.3290
 1345SOL    HW1 4781   6.094   3.498   3.486  0.3466  0.5103 -0.4119
 1345SOL    HW2 4782   6.012   3.564   3.595 -0.8675  1.3124 -1.7723
 1346SOL     OW 4783   4.419   5.354   2.046  0.1322  0.1230 -0.1446
 1346SOL    HW1 4784   4.428   5.427   1.985  0.7033  0.5937  0.4759
 1346SOL    HW2 4785   4.325   5.340   2.054  0.0328  0.5485 -0.5534
 1347SOL     OW 4786   1.220   2.138   3.763  0.0692  0.3316  0.6279
 1347SOL    HW1 4787   1.159   2.105   3.697 -1.9116  0.1378  2.4484
 1347SOL    HW2 4788   1.284   2.067   3.773 -0.8539 -0.5472  0.4459
 1348SOL     OW 4789   2.281   4.107   3.809  0.7580 -0.2775 -0.2159
 1348SOL    HW1 4790   2.271   4.027   3.758  1.6820 -1.2557  1.1007
 1348SOL    HW2 4791   2.252   4.177   3.749 -1.7064 -1.6952 -0.8351
 1349SOL     OW 4792   1.239   4.022   1.236  0.6001  0.8714  0.0974
 1349SOL    HW1 4793   1.227   3.936   1.194 -0.9160  1.0091  0.1788
 1349SOL    HW2 4794   1.219   4.085   1.167 -2.4461  1.0996  1.0457
 1350SOL     OW 4795   3.039   4.741   0.534  0.4788  0.2282  0.0739
 1350SOL    HW1 4796   3.031   4.791   0.616  0.3596  0.0585  0.1675
 1350SOL    HW2 4797   3.128   4.759   0.504  0.0490  1.4625 -0.5274
 1351SOL     OW 4798   1.870   4.616   0.061  0.2443 -0.1780 -0.6482
 1351SOL    HW1 4799   1.799   4.667   0.023 -0.1873  0.8026  1.3355
 1351SOL    HW2 4800   1.827   4.537   0.094  0.5508 -0.8351 -1.7639
 1352SOL     OW 4801   3.421   2.590   3.388  0.5690 -0.2078  0.4025
 1352SOL    HW1 4802   3.446   2.497   3.388 -1.9524 -0.9726  0.9149
 1352SOL    HW2 4803   3.340   2.593   3.439 -0.5959  1.9214 -1.3742
 1353SOL     OW 4804   1.433   1.548   6.068  0.0078  0.2202  0.0728
 1353SOL    HW1 4805   1.526   1.527   6.070  0.0335  0.3379  0.0798
 1353SOL    HW2 4806   1.390   1.466   6.091 -0.0181 -0.8104 -3.1409
 1354SOL     OW 4807   2.151   5.253   5.685 -0.6075 -0.5654  0.3586
 1354SOL    HW1 4808   2.179   5.164   5.705  1.3228  0.2622  1.5844
 1354SOL    HW2 4809   2.157   5.300   5.768  0.3659  1.1778 -0.6413
 1355SOL     OW 4810   4.898   4.553   5.054 -0.2007  0.4774  0.1884
 1355SOL    HW1 4811   4.865   4.464   5.040 -0.5169  0.3093  1.7859
 1355SOL    HW2 4812   4.832   4.610   5.015  0.3248  0.0213 -1.4387
 1356SOL     OW 4813   1.005   3.570   3.901  0.0395 -0.7587 -0.4667
 1356SOL    HW1 4814   0.922   3.572   3.854 -0.3784  1.8489  0.2641
 1356SOL    HW2 4815   0.994   3.499   3.966 -2.3182  0.5992  0.7460
 1357SOL     OW 4816   6.014   4.210   6.071  0.1639 -0.3023 -0.0758
 1357SOL    HW1 4817   6.031   4.120   6.098  0.8942 -0.6114 -1.4379
 1357SOL    HW2 4818   6.087   4.260   6.107 -2.3988  0.7101  4.5567
 1358SOL     OW 4819   3.274   4.873   4.456 -0.1133 -0.2784 -0.2280
 1358SOL    HW1 4820   3.349   4.932   4.457  0.8129 -1.3799 -1.7741
 1358SOL    HW2 4821   3.276   4.830   4.542  0.1031  0.7668  0.3171
 1359SOL     OW 4822   3.626   0.649   1.903  0.4917  0.1561 -0.3269
 1359SOL    HW1 4823   3.602   0.618   1.990  0.4893 -2.7627 -1.2334
 1359SOL    HW2 4824   3.714   0.685   1.914  1.1222 -1.5480  0.6851
 1360SOL     OW 4825   2.454   0.402   2.050  0.2565  0.5141 -0.1057
 1360SOL    HW1 4826   2.362   0.375   2.057  0.0807  0.4521 -2.1313
 1360SOL    HW2 4827   2.502   0.319   2.046  0.0750  0.4556 -2.2251
 1361SOL     OW 4828   0.910   3.276   0.280  1.0642 -0.3936  0.3256
 1361SOL    HW1 4829   0.936   3.296   0.191  0.8482  0.0704  0.3639
 1361SOL    HW2 4830   0.990   3.284   0.332  0.7625  1.6808  0.5553
 1362SOL     OW 4831   0.745   4.156   2.344  0.6750  0.0801  0.0376
 1362SOL    HW1 4832   0.664   4.180   2.299  0.7699  0.3023 -0.0154
 1362SOL    HW2 4833   0.716   4.111   2.423  0.5148 -1.4401 -0.8564
 1363SOL     OW 4834   0.952   3.901   0.845 -0.0575 -0.0586 -0.0688
 1363SOL    HW1 4835   0.884   3.892   0.779 -0.5417  2.1517  0.0397
 1363SOL    HW2 4836   0.915   3.961   0.910  0.6457 -1.6577  1.9155
 1364SOL     OW 4837   2.665   0.025   1.242 -0.1089  0.4494  0.1301
 1364SOL    HW1 4838   2.747   0.071   1.258 -0.5288  2.0018 -1.7940
 1364SOL    HW2 4839   2.691  -0.062   1.214  0.7703  0.0569  2.0024
 1365SOL     OW 4840   1.569   2.819   3.124 -0.0576 -0.4762 -0.1998
 1365SOL    HW1 4841   1.649   2.842   3.077 -0.3746  0.1576 -0.4404
 1365SOL    HW2 4842   1.505   2.803   3.054 -0.3837 -0.0702  0.0005
 1366SOL     OW 4843   0.773   2.364   0.354 -0.1925  0.0676  0.1645
 1366SOL    HW1 4844   0.740   2.451   0.378  3.5012  1.6099  0.3142
 1366SOL    HW2 4845   0.810   2.375   0.267  1.3320 -0.9824  0.6252
 1367SOL     OW 4846   0.192   4.950   6.144  0.0200 -0.0962  0.5998
 1367SOL    HW1 4847   0.141   4.977   6.068  3.2160  1.4690 -1.2389
 1367SOL    HW2 4848   0.185   5.023   6.205  0.0955  0.1549  0.3116
 1368SOL     OW 4849   0.423   0.314   4.398  0.1992 -0.1630  0.2611
 1368SOL    HW1 4850   0.345   0.260   4.414  1.0002 -1.3460  0.3141
 1368SOL    HW2 4851   0.437   0.361   4.480 -0.2189 -0.2723  0.3995
 1369SOL     OW 4852   2.184   1.201   6.026  0.1786  0.5261 -0.1408
 1369SOL    HW1 4853   2.231   1.168   6.103  0.6700  0.9385 -0.2578
 1369SOL    HW2 4854   2.114   1.137   6.011 -0.9275  1.2390  1.6040
 1370SOL     OW 4855   6.105   3.474   2.339  0.1371 -0.6538  0.0438
 1370SOL    HW1 4856   6.104   3.412   2.412 -0.4778 -0.9711 -0.2326
 1370SOL    HW2 4857   6.017   3.471   2.303  0.1231  0.3234 -0.0292
 1371SOL     OW 4858   2.195   2.553   1.197 -0.4038 -0.4472 -0.2516
 1371SOL    HW1 4859   2.254   2.610   1.148  0.2425  1.1931  2.2464
 1371SOL    HW2 4860   2.111   2.598   1.195  0.1410  0.7887  1.8425
 1372SOL     OW 4861   0.148   3.090   4.887 -0.6017 -0.4077  0.0231
 1372SOL    HW1 4862   0.102   3.163   4.928 -0.8894 -1.1036  0.9682
 1372SOL    HW2 4863   0.196   3.130   4.814 -1.3192  0.6011  0.0822
 1373SOL     OW 4864   3.584   5.827   1.896 -0.0847  0.0026 -0.4798
 1373SOL    HW1 4865   3.638   5.795   1.969  0.8813  1.1274 -0.6559
 1373SOL    HW2 4866   3.647   5.845   1.826 -0.4509  2.6148 -0.2449
 1374SOL     OW 4867   2.508   4.786   1.098 -0.0782  0.1861 -0.5713
 1374SOL    HW1 4868   2.574   4.770   1.165  1.1270  0.4139 -1.6537
 1374SOL    HW2 4869   2.437   4.830   1.144  0.3796 -0.3526  0.6938
 1375SOL     OW 4870   1.233   6.135   5.854  0.0082  0.2077  0.5259
 1375SOL    HW1 4871   1.196   6.049   5.873  0.7555 -0.7244 -1.8598
 1375SOL    HW2 4872   1.291   6.120   5.779  0.2425  2.7826  0.1057
 1376SOL     OW 4873   4.777   1.485   5.890 -0.3531  0.2161 -0.6133
 1376SOL    HW1 4874   4.817   1.524   5.968 -0.7654  1.1741 -0.8570
 1376SOL    HW2 4875   4.791   1.551   5.821  0.4272 -0.8147 -1.4744
 1377SOL     OW 4876   2.055   6.288   5.259 -0.0970 -0.2159 -0.0317
 1377SOL    HW1 4877   2.020   6.364   5.305  0.4730 -0.5871  1.0282
 1377SOL    HW2 4878   2.068   6.319   5.169 -0.4802  0.7423  0.2332
 1378SOL     OW 4879   0.072   2.847   0.218 -0.1520  0.4813 -0.1414
 1378SOL    HW1 4880   0.097   2.924   0.268  0.7570  1.1907 -1.6210
 1378SOL    HW2 4881   0.066   2.777   0.283 -1.5407  1.8856  1.3130
 1379SOL     OW 4882   5.307   2.347   3.779  0.5103 -0.1610 -0.0896
 1379SOL    HW1 4883   5.365   2.409   3.823 -0.1760 -0.2120  0.9509
 1379SOL    HW2 4884   5.339   2.342   3.690  1.0504  1.1057  0.0105
 1380SOL     OW 4885   3.596   0.118   0.233 -0.5983 -0.0787  0.4285
 1380SOL    HW1 4886   3.660   0.102   0.303  0.4694 -2.3515 -0.9502
 1380SOL    HW2 4887   3.649   0.124   0.154 -1.9736 -0.0908 -0.5216
 1381SOL     OW 4888   6.261   0.155   0.970 -0.1306 -0.2218 -0.2670
 1381SOL    HW1 4889   6.245   0.197   0.885 -1.0977 -0.8437 -0.4104
 1381SOL    HW2 4890   6.174   0.153   1.011  0.3039 -0.0621  0.6807
 1382SOL     OW 4891   0.319   0.806   3.408  0.0385 -0.3422 -0.1190
 1382SOL    HW1 4892   0.409   0.836   3.420  0.1787 -0.8836  0.2484
 1382SOL    HW2 4893   0.267   0.857   3.470 -0.2951  1.6173 -1.8914
 1383SOL     OW 4894   2.623   4.995   4.636 -0.0944  0.3260  0.5329
 1383SOL    HW1 4895   2.632   5.025   4.727  1.9929 -0.5374  0.6881
 1383SOL    HW2 4896   2.674   5.058   4.585  1.6952 -1.0608  0.4780
 1384SOL     OW 4897   1.031   2.184   0.743  0.3264 -0.0993 -0.4815
 1384SOL    HW1 4898   1.075   2.268   0.758 -0.2968  0.6391 -2.4714
 1384SOL    HW2 4899   1.041   2.168   0.649 -0.0260 -2.0112 -0.2343
 1385SOL     OW 4900   4.938   2.344   2.593 -0.1058 -0.3276  0.0063
 1385SOL    HW1 4901   4.874   2.374   2.529 -2.7522 -1.2824  1.9672
 1385SOL    HW2 4902   4.939   2.248   2.582 -1.2957 -0.6087  1.8390
 1386SOL     OW 4903   0.091   6.225   0.867  0.1515  0.1328 -0.0140
 1386SOL    HW1 4904   0.087   6.147   0.922 -0.0175 -0.2221 -0.5236
 1386SOL    HW2 4905   0.038   6.290   0.914  0.2132 -0.0863  0.3630
 1387SOL     OW 4906   5.369   0.009   5.385 -0.3973 -0.1514  0.3057
 1387SOL    HW1 4907   5.367  -0.084   5.359  0.6658  0.1565 -0.9384
 1387SOL    HW2 4908   5.460   0.034   5.378 -0.1151  0.2025  3.6998
 1388SOL     OW 4909   4.031   2.464   0.266 -0.1872  0.0068  0.2300
 1388SOL    HW1 4910   4.070   2.536   0.315  0.1319 -0.5981  0.8940
 1388SOL    HW2 4911   4.100   2.435   0.206  0.4663 -1.1187  1.4642
 1389SOL     OW 4912   6.196   3.692   3.941 -0.5979 -0.0433 -0.2125
 1389SOL    HW1 4913   6.212   3.626   3.874  1.5043 -0.7823  0.9429
 1389SOL    HW2 4914   6.185   3.774   3.892 -1.0500 -0.8663 -1.5333
 1390SOL     OW 4915   2.327   0.366   3.305 -0.0938  0.0775  0.0013
 1390SOL    HW1 4916   2.402   0.382   3.363  0.2202  1.6745 -0.7988
 1390SOL    HW2 4917   2.361   0.305   3.239 -0.6431 -2.3006  1.7786
 1391SOL     OW 4918   0.611   5.630   1.348  0.2986 -0.2379 -0.2189
 1391SOL    HW1 4919   0.657   5.552   1.314  0.7418  0.1402 -0.5083
 1391SOL    HW2 4920   0.675   5.700   1.340 -0.3054  0.2838 -0.5252
 1392SOL     OW 4921   5.638   1.673   3.745  0.4935 -0.2177  0.1883
 1392SOL    HW1 4922   5.551   1.710   3.726  1.0122  0.5474 -0.7668
 1392SOL    HW2 4923   5.648   1.685   3.839  0.3435  1.4975  0.0274
 1393SOL     OW 4924   2.047   4.799   3.108 -0.4080 -0.1308  0.3400
 1393SOL    HW1 4925   1.957   4.767   3.099 -0.8314  0.2381  2.6906
 1393SOL    HW2 4926   2.097   4.723   3.134 -0.4842  0.1039  1.1984
 1394SOL     OW 4927   4.878   2.135   0.577  0.5174  0.6354 -0.4927
 1394SOL    HW1 4928   4.897   2.091   0.660  0.0525  0.0166 -0.7065
 1394SOL    HW2 4929   4.791   2.174   0.590  1.2149  2.1109 -0.0618
 1395SOL     OW 4930   1.750   5.263   3.066 -0.0701  0.3009 -0.2063
 1395SOL    HW1 4931   1.675   5.212   3.097 -1.2226  0.3497 -2.7069
 1395SOL    HW2 4932   1.788   5.211   2.996  1.2369  1.0565 -0.0990
 1396SOL     OW 4933   3.871   1.094   0.275 -0.2168  0.2113 -0.0687
 1396SOL    HW1 4934   3.797   1.128   0.224 -0.8947 -1.8017 -0.5022
 1396SOL    HW2 4935   3.883   1.004   0.244  1.0228 -0.2179  1.5181
 1397SOL     OW 4936   0.420   2.050   1.347 -0.6217 -0.0084 -0.2104
 1397SOL    HW1 4937   0.392   2.101   1.423 -1.7031 -1.3903  0.3486
 1397SOL    HW2 4938   0.340   2.036   1.297 -0.1967 -0.4944 -0.7670
 1398SOL     OW 4939   4.629   5.954   3.829 -0.0091  0.2308 -0.6168
 1398SOL    HW1 4940   4.544   5.943   3.787 -0.7413  3.0932 -0.0824
 1398SOL    HW2 4941   4.649   6.047   3.820  2.9784 -0.2861 -0.4892
 1399SOL     OW 4942   3.911   6.240   3.338 -0.1532 -0.0839  0.1609
 1399SOL    HW1 4943   3.827   6.195   3.334 -1.1086  1.5510  0.8788
 1399SOL    HW2 4944   3.933   6.242   3.431  0.5553 -0.2654  0.0044
 1400SOL     OW 4945   5.321   0.115   3.281 -0.3809 -0.0362 -0.1493
 1400SOL    HW1 4946   5.336   0.032   3.236 -2.5281  0.2446 -1.5292
 1400SOL    HW2 4947   5.264   0.164   3.223  0.8245  2.4640  0.6216
 1401SOL     OW 4948   4.109   4.051   6.293 -0.5032 -0.3525 -0.4257
 1401SOL    HW1 4949   4.091   3.998   6.371 -0.0210 -0.9579 -0.7160
 1401SOL    HW2 4950   4.177   4.112   6.321 -0.6500 -0.2665 -0.2500
 1402SOL     OW 4951   0.426   2.892   0.311  0.5187 -0.1208  0.1773
 1402SOL    HW1 4952   0.461   2.869   0.225  1.3260  0.5675  0.3173
 1402SOL    HW2 4953   0.365   2.964   0.294 -2.1543 -2.2886 -0.2864
 1403SOL     OW 4954   4.228   3.045   2.226  0.3483 -0.0630  0.4573
 1403SOL    HW1 4955   4.218   2.956   2.193 -2.0713  0.5618 -0.7096
 1403SOL    HW2 4956   4.139   3.077   2.238  1.0623  0.9960  4.4795
 1404SOL     OW 4957   0.372   4.985   4.275  0.1345  0.1245  0.5930
 1404SOL    HW1 4958   0.314   5.015   4.344 -0.4983 -0.7125  0.4379
 1404SOL    HW2 4959   0.314   4.949   4.208  0.7558  0.5704 -0.2069
 1405SOL     OW 4960   5.052   6.196   5.910 -0.8415 -0.1916  0.2063
 1405SOL    HW1 4961   5.036   6.237   5.825  0.4408 -1.0278 -0.4858
 1405SOL    HW2 4962   5.048   6.102   5.892  1.1507 -0.4091  0.6540
 1406SOL     OW 4963   0.154   2.539   1.552  0.0433 -0.9249 -0.8171
 1406SOL    HW1 4964   0.064   2.557   1.525 -0.1370 -1.3951 -0.5558
 1406SOL    HW2 4965   0.146   2.513   1.644  0.4729 -0.7586 -0.7330
 1407SOL     OW 4966   1.560   0.394   4.023 -0.4510  0.0972  0.6112
 1407SOL    HW1 4967   1.628   0.326   4.018 -0.0387  0.4837  0.9502
 1407SOL    HW2 4968   1.605   0.474   3.997 -1.3264 -0.0107 -1.4410
 1408SOL     OW 4969   4.671   1.333   2.621 -0.1764 -0.2662  0.2455
 1408SOL    HW1 4970   4.757   1.365   2.647  0.1238 -0.4402 -0.5142
 1408SOL    HW2 4971   4.625   1.321   2.704  1.2708 -2.2802  0.8326
 1409SOL     OW 4972   5.152   1.688   5.679  0.0228 -0.1757 -0.4087
 1409SOL    HW1 4973   5.162   1.732   5.594  3.7171 -0.0828 -0.0928
 1409SOL    HW2 4974   5.126   1.758   5.739  4.4522  1.6845 -0.2003
 1410SOL     OW 4975   3.525   3.194   2.305  0.2526  0.9076  0.0287
 1410SOL    HW1 4976   3.451   3.145   2.269  1.3131 -0.7588  0.0180
 1410SOL    HW2 4977   3.498   3.216   2.394 -0.1111  0.0091  0.1445
 1411SOL     OW 4978   1.862   1.406   5.877 -0.0056  0.2954 -0.1101
 1411SOL    HW1 4979   1.769   1.396   5.858  0.1167 -0.1852 -0.4709
 1411SOL    HW2 4980   1.884   1.328   5.929  0.7346 -0.8827 -2.0843
 1412SOL     OW 4981   0.201   2.853   5.283 -0.4743  0.1082  0.5958
 1412SOL    HW1 4982   0.182   2.941   5.317  4.7999  1.6336  0.3811
 1412SOL    HW2 4983   0.225   2.803   5.360 -0.5991 -0.2550  0.3983
 1413SOL     OW 4984   5.721   3.700   5.783 -0.5725  0.0766 -0.4110
 1413SOL    HW1 4985   5.723   3.641   5.858 -2.1672 -0.3683 -0.6895
 1413SOL    HW2 4986   5.684   3.781   5.818 -0.9108  0.0099 -0.6075
 1414SOL     OW 4987   2.583   5.573   0.404  0.1451  0.2300 -0.3652
 1414SOL    HW1 4988   2.549   5.486   0.424 -0.6433  1.1387  2.8233
 1414SOL    HW2 4989   2.529   5.602   0.330 -1.9289 -0.7483  0.6572
 1415SOL     OW 4990   1.748   0.067   2.339  0.1553  0.3033 -0.2197
 1415SOL    HW1 4991   1.747  -0.024   2.310  0.5524  0.0495  0.5191
 1415SOL    HW2 4992   1.831   0.101   2.306 -1.2734  1.3272 -3.1126
 1416SOL     OW 4993   2.968   0.051   4.663  0.1847  0.0013 -0.0841
 1416SOL    HW1 4994   3.039   0.017   4.717 -0.7050  2.3795  2.8849
 1416SOL    HW2 4995   3.011   0.086   4.585  2.0217 -0.4129  0.7039
 1417SOL     OW 4996   5.794   5.868   6.242 -0.0268 -0.2516 -0.4099
 1417SOL    HW1 4997   5.858   5.806   6.208  1.6835  0.2671  1.6476
 1417SOL    HW2 4998   5.838   5.911   6.316 -1.9681  1.7481 -0.2902
 1418SOL     OW 4999   5.234   1.396   1.481  0.4758  0.2338  0.1854
 1418SOL    HW1 5000   5.160   1.346   1.447 -1.3800  1.2466  2.5299
 1418SOL    HW2 5001   5.267   1.444   1.404 -1.7099  0.2640 -0.8149
 1419SOL     OW 5002   4.955   4.004   4.166  0.2973  0.0301 -0.0612
 1419SOL    HW1 5003   5.008   4.068   4.118  0.7628  0.9698  1.6039
 1419SOL    HW2 5004   4.919   4.054   4.240  0.9295 -1.6854  1.4766
 1420SOL     OW 5005   0.339   6.015   5.669  0.0457  0.1153 -0.1745
 1420SOL    HW1 5006   0.370   6.078   5.735  1.4745 -0.3806 -0.3397
 1420SOL    HW2 5007   0.248   6.041   5.653 -0.3770  0.1973  2.0347
 1421SOL     OW 5008   4.403   2.976   1.415 -0.1314  0.2287 -0.3306
 1421SOL    HW1 5009   4.485   3.024   1.428  1.0854 -1.4839 -1.2879
 1421SOL    HW2 5010   4.411   2.898   1.469 -0.1354 -1.0341 -2.0498
 1422SOL     OW 5011   5.794   1.928   5.305 -0.0132  0.5230 -0.5166
 1422SOL    HW1 5012   5.722   1.939   5.244  0.4829 -0.4165 -1.3009
 1422SOL    HW2 5013   5.779   1.995   5.372 -1.0462  1.0000 -1.1935
 1423SOL     OW 5014   1.035   0.265   4.472  0.2227  0.3283 -0.4601
 1423SOL    HW1 5015   0.981   0.198   4.514 -0.4925  0.0965 -1.6742
 1423SOL    HW2 5016   0.980   0.297   4.400  1.7327  0.0611 -1.7643
 1424SOL     OW 5017   3.686   0.260   2.304 -0.5568 -0.5165  0.3514
 1424SOL    HW1 5018   3.622   0.328   2.282  0.0569  0.1549  0.5988
 1424SOL    HW2 5019   3.751   0.265   2.235  0.9923  1.1076  1.7969
 1425SOL     OW 5020   3.009   5.492   1.451  0.7335 -0.8291 -0.0823
 1425SOL    HW1 5021   3.001   5.541   1.369 -1.0754  0.1875  0.6340
 1425SOL    HW2 5022   3.101   5.467   1.456  1.0286 -0.2701 -2.0479
 1426SOL     OW 5023   3.066   1.308   2.069  0.0508  0.0149 -0.0726
 1426SOL    HW1 5024   2.977   1.321   2.103  0.0392 -1.3706  0.5134
 1426SOL    HW2 5025   3.055   1.242   2.000  0.8260 -1.5813  1.2554
 1427SOL     OW 5026   0.925   3.826   0.399 -0.3389  0.1200 -0.0808
 1427SOL    HW1 5027   0.903   3.752   0.342 -1.0132  0.5521 -0.4024
 1427SOL    HW2 5028   1.019   3.838   0.388 -0.0985 -1.1142  0.4912
 1428SOL     OW 5029   0.223   5.587   4.024  0.1374  0.1701  0.3219
 1428SOL    HW1 5030   0.299   5.543   3.985 -0.0210 -0.8896  1.1692
 1428SOL    HW2 5031   0.255   5.674   4.047  0.2425  0.8607 -2.1499
 1429SOL     OW 5032   1.106   0.729   2.487 -0.0903 -0.3316  0.1739
 1429SOL    HW1 5033   1.130   0.820   2.468  0.0114 -0.4363 -0.2050
 1429SOL    HW2 5034   1.186   0.679   2.471 -0.2859 -0.5535 -0.1256
 1430SOL     OW 5035   6.042   6.183   3.755 -0.0162 -0.1432 -0.3578
 1430SOL    HW1 5036   6.113   6.136   3.799  1.5534  3.3156  1.2254
 1430SOL    HW2 5037   6.076   6.202   3.668  0.4729  0.3047 -0.0788
 1431SOL     OW 5038   4.326   0.072   3.639 -0.4882  0.1263 -0.1815
 1431SOL    HW1 5039   4.308  -0.017   3.609  1.6774 -0.2884 -0.4690
 1431SOL    HW2 5040   4.393   0.061   3.707 -0.2321  1.5314 -0.1779
 1432SOL     OW 5041   3.716   6.101   4.339 -0.7301  0.2921  0.5523
 1432SOL    HW1 5042   3.712   6.142   4.425 -2.0606 -1.4402  1.3694
 1432SOL    HW2 5043   3.632   6.122   4.299 -0.8613 -0.4742  0.4235
 1433SOL     OW 5044   1.855   1.553   4.396 -0.1303  0.4337  0.8685
 1433SOL    HW1 5045   1.841   1.648   4.397  0.7144  0.6567 -1.8396
 1433SOL    HW2 5046   1.822   1.524   4.311 -0.0382 -1.6600  1.4864
 1434SOL     OW 5047   5.628   0.634   4.305  0.1948 -0.1381  0.5476
 1434SOL    HW1 5048   5.542   0.621   4.344 -0.0476 -0.0945  0.0341
 1434SOL    HW2 5049   5.610   0.668   4.218  0.7393  0.1185  0.5306
 1435SOL     OW 5050   5.968   0.629   5.701  0.1691  0.3878  0.1677
 1435SOL    HW1 5051   5.889   0.582   5.676  0.3660 -2.0120  3.5298
 1435SOL    HW2 5052   6.032   0.605   5.634 -0.5310 -1.9123  0.2570
 1436SOL     OW 5053   0.064   5.143   1.119 -0.0697 -0.3338 -0.1616
 1436SOL    HW1 5054   0.125   5.150   1.193 -0.1701  0.0839 -0.1160
 1436SOL    HW2 5055   0.099   5.071   1.067  2.4126  1.9131 -1.8871
 1437SOL     OW 5056   3.746   0.687   0.964  0.1768  0.0148  0.2710
 1437SOL    HW1 5057   3.773   0.731   1.045 -0.6491  2.0369 -0.4763
 1437SOL    HW2 5058   3.718   0.759   0.906  2.8368 -1.0746 -2.6591
 1438SOL     OW 5059   4.856   3.192   0.398 -0.4099 -0.8020 -0.3479
 1438SOL    HW1 5060   4.816   3.222   0.317  1.5273  0.8702 -0.7887
 1438SOL    HW2 5061   4.892   3.105   0.377 -1.5796 -1.2212 -0.6700
 1439SOL     OW 5062   0.087   3.729   1.248 -0.0382 -0.1433  0.7008
 1439SOL    HW1 5063   0.181   3.712   1.249  0.4381  2.1494  1.6811
 1439SOL    HW2 5064   0.068   3.756   1.158  0.1011 -1.1826  0.3509
 1440SOL     OW 5065   5.282   5.713   3.186 -0.1098 -0.2626  0.1529
 1440SOL    HW1 5066   5.303   5.791   3.135  1.1632 -1.6597 -1.5889
 1440SOL    HW2 5067   5.275   5.744   3.276  2.0614  1.5905 -0.2436
 1441SOL     OW 5068   6.277   1.139   3.568  0.0565  0.0260 -0.1730
 1441SOL    HW1 5069   6.220   1.081   3.517  0.6958 -0.9859  0.2416
 1441SOL    HW2 5070   6.251   1.126   3.659  0.8110 -0.3072  0.0052
 1442SOL     OW 5071   0.905   2.393   0.128  0.5727 -0.3053  0.0055
 1442SOL    HW1 5072   0.987   2.348   0.107 -0.0558 -0.8252 -1.4237
 1442SOL    HW2 5073   0.913   2.479   0.086  0.5430 -0.1940  0.2217
 1443SOL     OW 5074   1.165   2.926   5.290  0.1624  0.2877 -0.5414
 1443SOL    HW1 5075   1.161   2.897   5.382 -1.9373 -0.5737 -0.8394
 1443SOL    HW2 5076   1.216   2.858   5.246  2.9167  1.7023  0.2505
 1444SOL     OW 5077   4.156   3.679   0.899 -0.0167  0.2465  0.1037
 1444SOL    HW1 5078   4.069   3.644   0.920 -0.2410  0.8583  0.2206
 1444SOL    HW2 5079   4.138   3.764   0.859  0.5687  1.3430  1.9952
 1445SOL     OW 5080   2.933   3.454   0.572  0.3624  0.0378  0.2507
 1445SOL    HW1 5081   2.895   3.379   0.618  0.8478 -0.0428  0.5270
 1445SOL    HW2 5082   3.013   3.473   0.620  0.7631  0.0922 -0.4351
 1446SOL     OW 5083   2.040   4.433   0.689 -0.2779  0.0509  0.2070
 1446SOL    HW1 5084   2.010   4.354   0.735  0.7498 -0.3272  0.2492
 1446SOL    HW2 5085   2.125   4.453   0.727  0.3677  0.0414 -1.1559
 1447SOL     OW 5086   5.609   0.106   5.363 -1.1506  0.5985 -0.1102
 1447SOL    HW1 5087   5.671   0.065   5.423 -1.3150  0.0199 -0.3215
 1447SOL    HW2 5088   5.661   0.127   5.285 -1.4683 -1.1478 -0.8426
 1448SOL     OW 5089   5.130   3.751   6.252 -0.2178 -0.2721 -0.1837
 1448SOL    HW1 5090   5.132   3.763   6.157  0.0893  2.8766  0.1079
 1448SOL    HW2 5091   5.222   3.735   6.275 -0.4141 -2.0113 -0.4302
 1449SOL     OW 5092   5.760   6.234   6.080 -0.0992  0.1478  0.3078
 1449SOL    HW1 5093   5.727   6.269   5.997  1.6539 -0.4274 -0.6796
 1449SOL    HW2 5094   5.821   6.302   6.111 -1.8672  1.0753  1.9657
 1450SOL     OW 5095   3.906   3.605   4.220  0.0247 -0.2442 -0.2233
 1450SOL    HW1 5096   3.827   3.643   4.182 -0.5665 -0.9066  0.3109
 1450SOL    HW2 5097   3.940   3.549   4.151  0.5862  0.7866 -0.8087
 1451SOL     OW 5098   5.038   5.802   4.423 -0.5180 -0.1278 -0.3612
 1451SOL    HW1 5099   5.068   5.775   4.337  1.8791  0.6143  0.1689
 1451SOL    HW2 5100   5.068   5.733   4.482 -1.7073 -0.3827 -0.0146
 1452SOL     OW 5101   4.126   1.037   3.461  0.0561  0.1602  0.4039
 1452SOL    HW1 5102   4.172   1.026   3.378 -0.9271 -0.7327 -0.0415
 1452SOL    HW2 5103   4.184   0.998   3.526 -0.9163 -2.9261 -0.4218
 1453SOL     OW 5104   5.548   4.106   2.486 -0.9219 -0.4067  0.3564
 1453SOL    HW1 5105   5.577   4.071   2.570 -2.4459 -0.0408  1.0667
 1453SOL    HW2 5106   5.584   4.046   2.421  0.9618 -0.2309  1.1980
 1454SOL     OW 5107   0.086   1.103   2.200 -0.1714 -1.0832  0.6872
 1454SOL    HW1 5108   0.165   1.120   2.149  0.2794 -0.6739  1.4972
 1454SOL    HW2 5109   0.020   1.081   2.135  0.1970  0.1066 -0.1280
 1455SOL     OW 5110   1.908   0.196   2.587  0.1643 -0.3151 -0.0678
 1455SOL    HW1 5111   1.831   0.174   2.535  0.6496 -1.0911 -0.4679
 1455SOL    HW2 5112   1.916   0.291   2.577 -0.3242 -0.3203 -0.5987
 1456SOL     OW 5113   2.611   5.716   3.897 -0.1368  0.5461  0.9256
 1456SOL    HW1 5114   2.650   5.800   3.871  1.1718 -0.9468 -2.5940
 1456SOL    HW2 5115   2.672   5.679   3.960  0.2723  1.4179  1.0527
 1457SOL     OW 5116   3.914   5.183   5.905 -0.1167  0.1195 -0.7215
 1457SOL    HW1 5117   3.964   5.217   5.831  0.8230  0.1590 -0.0864
 1457SOL    HW2 5118   3.954   5.098   5.924 -1.2964 -0.5541 -1.1728
 1458SOL     OW 5119   4.782   2.189   2.364 -0.4640  0.2211  0.1125
 1458SOL    HW1 5120   4.836   2.234   2.300 -0.0697 -0.2687  0.0921
 1458SOL    HW2 5121   4.706   2.246   2.376  0.1042  0.9623  0.2215
 1459SOL     OW 5122   6.045   0.504   1.514 -0.2151 -0.2651  0.3350
 1459SOL    HW1 5123   6.000   0.584   1.541 -0.1428 -0.6557  1.6921
 1459SOL    HW2 5124   6.067   0.460   1.596  0.9382 -1.0248 -0.3555
 1460SOL     OW 5125   5.170   3.507   4.241  0.4488  0.4322 -0.1385
 1460SOL    HW1 5126   5.235   3.470   4.300  1.6871  1.9259 -0.4778
 1460SOL    HW2 5127   5.085   3.488   4.282  1.1817 -0.2384  1.1057
 1461SOL     OW 5128   3.743   2.720   4.358  0.4914 -0.3537 -0.0998
 1461SOL    HW1 5129   3.764   2.672   4.278  1.0988  0.3460 -0.3744
 1461SOL    HW2 5130   3.827   2.734   4.401  0.6221  2.1105 -0.9917
 1462SOL     OW 5131   3.073   0.991   0.683 -0.3221 -0.2504  0.1104
 1462SOL    HW1 5132   3.091   0.900   0.704 -0.5529 -0.8677 -2.1646
 1462SOL    HW2 5133   2.981   1.003   0.708  0.3881  0.2066  2.8890
 1463SOL     OW 5134   0.719   2.160   0.962 -0.7763  0.4933 -0.2528
 1463SOL    HW1 5135   0.707   2.254   0.970 -0.2247  0.4497  1.4120
 1463SOL    HW2 5136   0.683   2.124   1.043 -0.2140 -0.6444 -0.4939
 1464SOL     OW 5137   5.112   2.276   6.140 -0.0981 -0.1596 -0.3141
 1464SOL    HW1 5138   5.096   2.233   6.056 -0.5055 -0.6024 -0.0174
 1464SOL    HW2 5139   5.028   2.271   6.185  0.1625 -0.0785  0.1844
 1465SOL     OW 5140   2.146   1.048   4.131  0.0076  0.7539  0.5416
 1465SOL    HW1 5141   2.231   1.066   4.091  0.0030 -0.3443 -0.0006
 1465SOL    HW2 5142   2.157   0.963   4.174 -1.3491 -0.3745 -1.2072
 1466SOL     OW 5143   4.862   5.125   5.177 -0.3625 -0.1161  0.6608
 1466SOL    HW1 5144   4.792   5.076   5.133 -0.6772 -0.1194  1.1570
 1466SOL    HW2 5145   4.847   5.216   5.150  0.5701 -0.3458 -0.7260
 1467SOL     OW 5146   0.602   4.514   0.370  0.4837  0.2831  0.1632
 1467SOL    HW1 5147   0.678   4.542   0.319  0.9436 -2.0760 -0.5662
 1467SOL    HW2 5148   0.535   4.495   0.304  1.0736 -2.7672  0.2999
 1468SOL     OW 5149   0.654   1.452   4.814 -0.5801 -0.8089 -0.2571
 1468SOL    HW1 5150   0.720   1.400   4.767  1.1399  0.6273  0.4282
 1468SOL    HW2 5151   0.578   1.452   4.756  0.3991 -1.6286 -1.6046
 1469SOL     OW 5152   5.776   0.261   3.548 -0.0928  0.4325 -0.1575
 1469SOL    HW1 5153   5.808   0.297   3.466 -1.4794  1.2246 -0.3798
 1469SOL    HW2 5154   5.746   0.173   3.526 -0.2052  0.5443 -0.4533
 1470SOL     OW 5155   4.093   5.001   2.208 -0.0008  0.2492 -0.0083
 1470SOL    HW1 5156   4.152   4.941   2.253 -0.7994  0.3176  1.1715
 1470SOL    HW2 5157   4.051   5.051   2.279 -0.5768  1.0346 -0.8803
 1471SOL     OW 5158   0.650   2.328   2.297  0.0510 -0.2569  0.1431
 1471SOL    HW1 5159   0.681   2.362   2.380  0.9356 -0.2004 -0.2020
 1471SOL    HW2 5160   0.679   2.392   2.232  0.9544 -1.1935 -0.4077
 1472SOL     OW 5161   5.989   2.180   5.376  0.3162 -0.4850 -0.0174
 1472SOL    HW1 5162   6.049   2.248   5.407  0.1641 -0.6812  0.7193
 1472SOL    HW2 5163   6.040   2.099   5.377 -0.2728 -0.8956  1.8304
 1473SOL     OW 5164   3.506   0.754   5.979  0.3510  0.3308 -1.1137
 1473SOL    HW1 5165   3.464   0.676   5.944  0.2285  0.2704 -0.8310
 1473SOL    HW2 5166   3.563   0.785   5.908  1.5021 -0.8269 -0.7225
 1474SOL     OW 5167   5.675   3.489   1.121  0.8373  0.5501  0.1914
 1474SOL    HW1 5168   5.724   3.564   1.087  1.7298 -0.1551 -0.1124
 1474SOL    HW2 5169   5.637   3.448   1.044  2.0220 -0.4618  0.1165
 1475SOL     OW 5170   5.875   0.345   5.684 -0.2289  0.3548  0.0836
 1475SOL    HW1 5171   5.805   0.360   5.747  0.4789  0.9887  0.7476
 1475SOL    HW2 5172   5.841   0.380   5.602 -0.6911  0.6590  0.3970
 1476SOL     OW 5173   1.926   5.732   0.047  0.1024  0.6917  0.1521
 1476SOL    HW1 5174   1.957   5.696   0.130 -0.7981  1.2047  0.7237
 1476SOL    HW2 5175   1.987   5.804   0.028  0.1785  0.7115  0.4708
 1477SOL     OW 5176   5.279   5.358   5.168 -0.2820 -0.0641  0.1705
 1477SOL    HW1 5177   5.340   5.291   5.137 -0.3113 -1.0732  2.1373
 1477SOL    HW2 5178   5.262   5.335   5.259  0.1634  2.9881  1.1342
 1478SOL     OW 5179   3.025   2.941   1.312 -0.1452 -0.0276  0.6954
 1478SOL    HW1 5180   3.077   2.860   1.308  0.8700  0.5699  1.2190
 1478SOL    HW2 5181   3.016   2.969   1.221  0.7061 -0.0051  0.6072
 1479SOL     OW 5182   3.682   0.209   4.855  0.2637  0.0480 -0.1919
 1479SOL    HW1 5183   3.748   0.168   4.799  0.5147 -0.7622  0.6693
 1479SOL    HW2 5184   3.598   0.176   4.821  0.4527 -1.0458  0.3577
 1480SOL     OW 5185   0.124   5.527   4.898 -0.0769 -0.0824 -0.4327
 1480SOL    HW1 5186   0.183   5.535   4.974 -0.4627 -3.0382  0.3344
 1480SOL    HW2 5187   0.182   5.526   4.822  0.6939 -0.8860  0.1525
 1481SOL     OW 5188   0.055   1.313   2.396 -0.4505  0.2990  1.0389
 1481SOL    HW1 5189   0.067   1.253   2.322 -0.1257  0.7237  0.7356
 1481SOL    HW2 5190   0.070   1.259   2.473  1.7805  0.3708  0.7365
 1482SOL     OW 5191   3.836   5.712   6.240  0.2909 -0.0096 -0.0110
 1482SOL    HW1 5192   3.769   5.744   6.180 -0.1881 -0.0698  0.4910
 1482SOL    HW2 5193   3.788   5.684   6.318  0.7727 -1.2176 -0.1247
 1483SOL     OW 5194   1.153   5.537   4.071 -0.0878  0.5493  0.5249
 1483SOL    HW1 5195   1.147   5.540   4.167 -1.8026 -3.3241  0.7268
 1483SOL    HW2 5196   1.072   5.578   4.041 -0.2521  0.4365  0.8073
 1484SOL     OW 5197   4.281   5.014   0.511  0.3468  0.1722 -0.2816
 1484SOL    HW1 5198   4.265   4.950   0.442  2.2135 -0.8382  0.1488
 1484SOL    HW2 5199   4.228   5.090   0.486 -1.2653 -1.1928 -1.2658
 1485SOL     OW 5200   3.487   0.525   0.125 -0.3754  0.4145  0.5178
 1485SOL    HW1 5201   3.398   0.542   0.093 -0.8069  1.1068  1.9576
 1485SOL    HW2 5202   3.545   0.562   0.059 -1.1470 -0.0622 -0.4519
 1486SOL     OW 5203   1.161   3.179   4.856  0.3340 -0.0885  0.2692
 1486SOL    HW1 5204   1.211   3.102   4.884  0.3175 -0.4133 -0.5495
 1486SOL    HW2 5205   1.140   3.225   4.937 -0.5556 -1.4974  0.8884
 1487SOL     OW 5206   3.690   3.564   0.540 -0.4983 -0.0884 -0.0148
 1487SOL    HW1 5207   3.694   3.508   0.617  0.3045  1.3465  1.0374
 1487SOL    HW2 5208   3.622   3.525   0.485 -0.5505 -1.5767  1.0525
 1488SOL     OW 5209   5.325   4.588   5.771  0.1241  0.6028 -0.7092
 1488SOL    HW1 5210   5.315   4.541   5.854 -2.1222  1.3181 -0.5011
 1488SOL    HW2 5211   5.353   4.676   5.797 -0.8634  0.9117 -0.6742
 1489SOL     OW 5212   3.395   4.175   1.046  0.3934  0.1092 -0.5997
 1489SOL    HW1 5213   3.412   4.085   1.073  0.0861  0.1058 -0.4123
 1489SOL    HW2 5214   3.381   4.222   1.128 -0.3580  0.1382 -0.7392
 1490SOL     OW 5215   2.084   4.215   6.197 -0.3223  0.0735  0.4447
 1490SOL    HW1 5216   2.166   4.172   6.222 -0.6298 -1.2836 -0.7375
 1490SOL    HW2 5217   2.028   4.207   6.274 -1.1347 -3.7302 -0.3496
 1491SOL     OW 5218   4.769   0.492   2.986 -0.0770  0.2235 -0.2474
 1491SOL    HW1 5219   4.802   0.463   2.902  0.6267  1.1046 -0.2930
 1491SOL    HW2 5220   4.676   0.509   2.971  0.1962  1.1041 -1.0599
 1492SOL     OW 5221   5.981   0.803   4.401  0.1714 -0.5095 -0.2491
 1492SOL    HW1 5222   6.033   0.838   4.473  1.0123  0.1987 -1.1723
 1492SOL    HW2 5223   6.045   0.786   4.331 -0.7979  0.1856 -1.3407
 1493SOL     OW 5224   1.977   0.638   2.074 -0.0947  0.0548  0.6481
 1493SOL    HW1 5225   2.058   0.684   2.096  0.4407  0.2752 -1.5529
 1493SOL    HW2 5226   1.995   0.547   2.096  1.4188 -0.1816 -1.2909
 1494SOL     OW 5227   5.279   6.294   2.572 -0.4311 -0.0010  0.6911
 1494SOL    HW1 5228   5.292   6.389   2.567 -0.1242 -0.0974 -2.3472
 1494SOL    HW2 5229   5.235   6.280   2.656 -0.8565  2.8738  1.0484
 1495SOL     OW 5230   0.589   0.627   1.229 -0.0633  0.4367  0.4174
 1495SOL    HW1 5231   0.511   0.629   1.172  1.8635  0.4948 -2.4166
 1495SOL    HW2 5232   0.615   0.535   1.231 -0.4966  0.3172  1.8898
 1496SOL     OW 5233   5.685   0.196   4.823 -0.3811  0.1084  0.3787
 1496SOL    HW1 5234   5.591   0.203   4.803  0.2195  1.5258 -2.6031
 1496SOL    HW2 5235   5.719   0.135   4.757  1.2340  2.1664 -0.8399
 1497SOL     OW 5236   0.768   3.040   0.173  0.1067  0.1822  0.3017
 1497SOL    HW1 5237   0.776   3.096   0.250  0.2605 -1.0902  1.2619
 1497SOL    HW2 5238   0.823   3.081   0.107  1.4697  0.3279  1.4783
 1498SOL     OW 5239   4.836   5.890   2.463 -0.0683  0.3126  0.4362
 1498SOL    HW1 5240   4.784   5.845   2.396 -0.8653  2.1564 -0.2267
 1498SOL    HW2 5241   4.927   5.869   2.441 -0.3410  0.5533 -0.9681
 1499SOL     OW 5242   3.493   2.277   3.368 -0.4098  0.0188  0.0758
 1499SOL    HW1 5243   3.574   2.324   3.348 -1.2144  1.0063 -1.0384
 1499SOL    HW2 5244   3.521   2.203   3.421  1.1716  0.5563  0.0662
 1500SOL     OW 5245   2.744   2.194   5.342 -0.5766 -0.2088  0.4629
 1500SOL    HW1 5246   2.739   2.100   5.323  2.9161 -0.0149 -2.6467
 1500SOL    HW2 5247   2.743   2.200   5.437  0.5342 -3.5511  0.7984
 1501SOL     OW 5248   5.187   2.141   3.441 -0.2927 -0.0218  0.3666
 1501SOL    HW1 5249   5.117   2.116   3.501 -0.7975 -1.1293 -0.6413
 1501SOL    HW2 5250   5.181   2.078   3.369  0.4005  1.1486 -0.7702
 1502SOL     OW 5251   1.656   6.142   1.243  0.1133 -0.2538 -0.4435
 1502SOL    HW1 5252   1.713   6.212   1.214  0.6499 -1.0515 -1.3728
 1502SOL    HW2 5253   1.706   6.061   1.228 -0.6571 -0.8711  0.1725
 1503SOL     OW 5254   1.322   0.154   3.605 -0.4030 -0.2304 -0.2146
 1503SOL    HW1 5255   1.321   0.249   3.617  2.2812 -0.0889 -0.5912
 1503SOL    HW2 5256   1.348   0.141   3.514  0.1601 -1.3379  0.0964
 1504SOL     OW 5257   2.745   2.922   5.781  0.5798  0.6477  0.1483
 1504SOL    HW1 5258   2.684   2.984   5.742  1.0936 -0.3001 -2.3456
 1504SOL    HW2 5259   2.829   2.968   5.781  0.7237  0.3994 -0.5929
 1505SOL     OW 5260   0.403   1.490   3.904  0.5562 -0.3452 -0.2251
 1505SOL    HW1 5261   0.415   1.486   3.809  1.0050  0.0418 -0.1881
 1505SOL    HW2 5262   0.308   1.495   3.916  0.4697 -0.9516 -0.6292
 1506SOL     OW 5263   0.960   2.448   4.523  0.3582  0.7256  0.1215
 1506SOL    HW1 5264   0.969   2.400   4.441  0.3369  2.8027 -1.1758
 1506SOL    HW2 5265   0.874   2.423   4.556  1.0789 -1.5094  0.5257
 1507SOL     OW 5266   1.274   4.914   1.432 -0.2394 -0.2542 -0.1815
 1507SOL    HW1 5267   1.284   4.976   1.505  0.7690 -0.4841 -0.1123
 1507SOL    HW2 5268   1.318   4.956   1.359  0.6932 -1.0033 -0.0620
 1508SOL     OW 5269   5.170   0.693   2.190  0.0621  0.1363 -0.0619
 1508SOL    HW1 5270   5.137   0.757   2.127 -0.7963  1.8987  2.0308
 1508SOL    HW2 5271   5.116   0.615   2.175 -3.8368  2.1789  1.7561
 1509SOL     OW 5272   0.288   4.526   5.659 -0.1762 -0.3779 -0.0162
 1509SOL    HW1 5273   0.350   4.481   5.601  0.1113  0.2344 -0.2044
 1509SOL    HW2 5274   0.262   4.460   5.723 -1.8134 -1.5895 -1.8236
 1510SOL     OW 5275   4.738   5.913   1.985 -0.8644  0.5469 -0.5706
 1510SOL    HW1 5276   4.790   5.833   1.988 -0.8452  0.4551 -2.4240
 1510SOL    HW2 5277   4.803   5.983   1.977 -0.9127  0.6905  0.2495
 1511SOL     OW 5278   2.958   3.057   5.759  0.0663  0.3058 -0.2912
 1511SOL    HW1 5279   3.018   3.121   5.796  1.3720  0.3115 -2.2543
 1511SOL    HW2 5280   3.013   3.000   5.705 -1.3463 -1.2778 -0.1632
 1512SOL     OW 5281   3.067   2.195   4.219 -0.2191 -0.3912  0.4000
 1512SOL    HW1 5282   2.979   2.213   4.251 -0.9980 -1.4050 -1.0351
 1512SOL    HW2 5283   3.053   2.163   4.130  1.5914 -0.8771  0.2603
 1513SOL     OW 5284   4.541   5.749   4.045 -0.0947 -0.1635 -0.2704
 1513SOL    HW1 5285   4.553   5.655   4.032  0.4239  0.0367 -1.4090
 1513SOL    HW2 5286   4.594   5.790   3.977 -1.7684  0.9151 -1.0174
 1514SOL     OW 5287   1.001   4.691   5.418 -0.0298  0.4375  0.2335
 1514SOL    HW1 5288   0.993   4.672   5.511 -1.3386  0.8987  0.2344
 1514SOL    HW2 5289   0.983   4.785   5.411 -1.8229  0.0575 -0.6846
 1515SOL     OW 5290   2.202   5.335   5.432 -0.4837  0.2227 -0.0743
 1515SOL    HW1 5291   2.197   5.317   5.526 -0.0908  0.2440 -0.0492
 1515SOL    HW2 5292   2.113   5.361   5.408 -1.1425 -1.9053 -0.1473
 1516SOL     OW 5293   0.099   1.953   1.286  0.8306 -0.7512 -0.0179
 1516SOL    HW1 5294   0.022   1.896   1.286  0.6907 -0.6023  1.3950
 1516SOL    HW2 5295   0.066   2.037   1.254  0.0587 -0.2899  1.8866
 1517SOL     OW 5296   4.462   1.614   5.096 -0.1797  0.1323 -0.2576
 1517SOL    HW1 5297   4.515   1.597   5.017 -1.2322 -0.9839 -0.7610
 1517SOL    HW2 5298   4.374   1.583   5.072 -1.0434  1.8331  0.6026
 1518SOL     OW 5299   4.503   3.460   0.248 -0.0664  0.0810  0.1667
 1518SOL    HW1 5300   4.410   3.460   0.272  0.1791  0.0716  1.1340
 1518SOL    HW2 5301   4.506   3.512   0.168 -0.6670  1.6196  1.0887
 1519SOL     OW 5302   3.335   2.275   2.313 -0.4676 -0.3842 -0.0061
 1519SOL    HW1 5303   3.309   2.183   2.323 -0.0626 -0.3876  1.0487
 1519SOL    HW2 5304   3.306   2.317   2.393 -0.3878  0.3572 -0.3625
 1520SOL     OW 5305   3.892   2.164   2.045  0.0536  0.5237  0.2911
 1520SOL    HW1 5306   3.799   2.179   2.029  0.1945  0.9406 -0.1916
 1520SOL    HW2 5307   3.896   2.082   2.094 -0.4973 -0.2202 -0.8668
 1521SOL     OW 5308   6.249   4.908   0.073  0.5107 -0.0768  0.0988
 1521SOL    HW1 5309   6.336   4.923   0.035 -0.3597 -1.5990 -2.8086
 1521SOL    HW2 5310   6.235   4.814   0.064 -1.7380  0.2458 -0.2232
 1522SOL     OW 5311   0.170   4.383   0.150 -0.1190 -0.4000  0.8488
 1522SOL    HW1 5312   0.144   4.320   0.083  0.0273 -0.1822  0.5834
 1522SOL    HW2 5313   0.094   4.440   0.159 -0.2660 -0.6378  1.1174
 1523SOL     OW 5314   1.572   3.825   4.407  0.6391 -0.4170 -0.1763
 1523SOL    HW1 5315   1.581   3.803   4.314  1.6531  0.8305 -0.4075
 1523SOL    HW2 5316   1.498   3.773   4.438  0.4187 -0.9996 -1.6347
 1524SOL     OW 5317   0.216   1.375   1.008  0.4583 -0.5994  0.0975
 1524SOL    HW1 5318   0.217   1.281   0.993  1.0736 -0.4147 -1.1544
 1524SOL    HW2 5319   0.305   1.404   0.986  0.1286  0.3373 -0.0685
 1525SOL     OW 5320   0.499   0.599   5.677 -0.1379  0.0022 -0.2826
 1525SOL    HW1 5321   0.508   0.505   5.689 -0.0408  0.2289  1.7278
 1525SOL    HW2 5322   0.519   0.637   5.762  1.0314  1.9557 -1.3440
 1526SOL     OW 5323   6.124   1.562   3.005 -0.0584  0.0591  0.4359
 1526SOL    HW1 5324   6.181   1.614   3.062  0.8659 -0.2676 -0.1600
 1526SOL    HW2 5325   6.102   1.485   3.057 -2.8557  1.7379  1.9938
 1527SOL     OW 5326   3.446   5.098   4.768  1.0654  0.3536 -0.3072
 1527SOL    HW1 5327   3.532   5.130   4.795  1.2467  0.1772 -0.6630
 1527SOL    HW2 5328   3.457   5.077   4.675 -0.0582  2.8015 -1.0839
 1528SOL     OW 5329   1.291   3.667   3.673 -0.1511  0.0884 -0.0125
 1528SOL    HW1 5330   1.329   3.724   3.740 -1.0889  2.1075 -1.1010
 1528SOL    HW2 5331   1.314   3.578   3.701  2.1603  1.0023  1.3064
 1529SOL     OW 5332   1.099   4.903   4.007 -0.0538  0.0050 -0.6409
 1529SOL    HW1 5333   1.147   4.983   3.985  0.3362 -0.3711 -1.1883
 1529SOL    HW2 5334   1.010   4.933   4.027 -1.5534  0.2147 -6.0268
 1530SOL     OW 5335   4.396   2.602   4.258 -0.4483 -0.8821 -0.0192
 1530SOL    HW1 5336   4.333   2.674   4.252  0.2086 -0.1920  1.1198
 1530SOL    HW2 5337   4.433   2.596   4.170  0.0103  0.6707  0.0379
 1531SOL     OW 5338   5.306   1.721   1.056 -0.3986 -0.0214  0.1648
 1531SOL    HW1 5339   5.384   1.693   1.103 -0.0470  0.6291 -0.0172
 1531SOL    HW2 5340   5.331   1.804   1.015 -1.0565 -0.0077 -0.2276
 1532SOL     OW 5341   2.162   2.151   4.207  0.1393 -0.2298  0.3027
 1532SOL    HW1 5342   2.074   2.183   4.227 -0.4953 -0.8519 -1.3677
 1532SOL    HW2 5343   2.148   2.063   4.172  1.2806  0.2119 -1.3815
 1533SOL     OW 5344   3.466   6.073   2.007  0.1052  0.2965 -0.5367
 1533SOL    HW1 5345   3.513   6.042   1.930 -0.9156  1.9419 -1.8980
 1533SOL    HW2 5346   3.496   6.164   2.018 -0.3957  0.3528  0.5159
 1534SOL     OW 5347   1.808   1.439   2.547  0.1731  0.5973  0.3241
 1534SOL    HW1 5348   1.842   1.407   2.630  1.7008  0.6476 -0.2575
 1534SOL    HW2 5349   1.717   1.410   2.546  0.3049  0.0557  1.7321
 1535SOL     OW 5350   4.343   5.811   0.291  0.2823 -0.4892  0.7044
 1535SOL    HW1 5351   4.355   5.812   0.386 -0.7689 -1.1562  0.8511
 1535SOL    HW2 5352   4.425   5.846   0.257  0.0038  1.5784  1.9254
 1536SOL     OW 5353   1.050   6.093   1.952  0.1410  0.5534  0.4121
 1536SOL    HW1 5354   1.095   6.008   1.951 -2.4643 -0.9505  1.3463
 1536SOL    HW2 5355   1.076   6.135   1.870  0.0969 -1.9437 -0.9739
 1537SOL     OW 5356   2.988   2.209   3.915 -0.0994  0.4038 -0.3137
 1537SOL    HW1 5357   2.900   2.237   3.888 -0.2060  0.5002  0.1281
 1537SOL    HW2 5358   3.024   2.165   3.837 -0.6554  0.0934 -0.4006
 1538SOL     OW 5359   1.815   2.524   4.997  0.3508 -0.5456 -0.6502
 1538SOL    HW1 5360   1.837   2.609   4.959 -0.9234  0.4076  0.6235
 1538SOL    HW2 5361   1.728   2.537   5.036  0.2400 -2.3628 -0.1962
 1539SOL     OW 5362   4.090   1.129   2.712  0.0027  0.2993 -0.5013
 1539SOL    HW1 5363   3.999   1.137   2.683  0.4984 -0.2361 -2.3873
 1539SOL    HW2 5364   4.087   1.065   2.784 -0.9686 -0.7806 -1.4482
 1540SOL     OW 5365   3.273   3.053   4.526 -0.3528  0.2487 -0.2456
 1540SOL    HW1 5366   3.281   3.030   4.433  2.1629 -1.5506  0.3218
 1540SOL    HW2 5367   3.357   3.094   4.548 -0.2947 -0.7534  1.5693
 1541SOL     OW 5368   6.060   5.921   0.615  0.1315 -0.4071  0.1525
 1541SOL    HW1 5369   6.017   5.920   0.701 -1.5197 -0.7663 -0.6417
 1541SOL    HW2 5370   6.143   5.966   0.631 -0.7740  0.8709  1.6487
 1542SOL     OW 5371   0.953   2.563   3.159 -0.3179 -0.2821 -0.3442
 1542SOL    HW1 5372   0.879   2.604   3.115  0.0059  1.1212  0.3702
 1542SOL    HW2 5373   0.928   2.561   3.252  0.5934  0.3567 -0.0756
 1543SOL     OW 5374   3.302   3.823   4.266 -0.2312 -0.1543 -0.8383
 1543SOL    HW1 5375   3.362   3.892   4.235  0.1234 -0.3229 -0.5374
 1543SOL    HW2 5376   3.319   3.816   4.360 -1.6733  0.7118 -0.4870
 1544SOL     OW 5377   5.559   5.902   5.419  0.0951 -0.2769  0.4219
 1544SOL    HW1 5378   5.622   5.969   5.446  1.9102 -1.9988  0.7346
 1544SOL    HW2 5379   5.611   5.822   5.411 -1.8517 -1.5268 -0.5872
 1545SOL     OW 5380   5.725   5.243   1.450  0.1071  0.1959  0.1684
 1545SOL    HW1 5381   5.741   5.297   1.528  1.3360  0.0184  0.0719
 1545SOL    HW2 5382   5.780   5.283   1.382 -0.7073  0.1591 -0.5233
 1546SOL     OW 5383   3.656   0.854   5.791  0.1945  0.4447 -0.4084
 1546SOL    HW1 5384   3.747   0.880   5.778 -0.1160  0.9624 -1.7087
 1546SOL    HW2 5385   3.608   0.937   5.795 -0.2866  0.1653 -0.2923
 1547SOL     OW 5386   2.407   1.498   3.883  0.0431 -0.1737 -0.4631
 1547SOL    HW1 5387   2.395   1.537   3.970 -2.3128 -1.4250 -0.1369
 1547SOL    HW2 5388   2.475   1.552   3.842 -0.4139  1.9171  1.2976
 1548SOL     OW 5389   2.893   4.838   4.433  1.1952 -0.4103  0.2411
 1548SOL    HW1 5390   2.900   4.743   4.427 -1.8545 -0.7994  0.9976
 1548SOL    HW2 5391   2.920   4.858   4.523 -0.7073 -0.9920  1.0052
 1549SOL     OW 5392   4.399   0.443   0.740  0.0698  0.3381 -0.0613
 1549SOL    HW1 5393   4.344   0.401   0.806  1.3558 -0.0994  0.7781
 1549SOL    HW2 5394   4.370   0.534   0.739 -1.8927 -0.2567 -0.9867
 1550SOL     OW 5395   0.069   5.327   4.420 -0.1770 -0.2023  0.3117
 1550SOL    HW1 5396   0.131   5.254   4.427  0.7561  0.6428  1.2437
 1550SOL    HW2 5397   0.070   5.350   4.328 -0.7616 -1.5873 -0.0650
 1551SOL     OW 5398   3.150   1.850   3.601  0.2506  0.3834 -0.4627
 1551SOL    HW1 5399   3.127   1.817   3.514  1.1956  0.9093 -0.9214
 1551SOL    HW2 5400   3.191   1.775   3.644  1.0180  0.4999 -0.9647
 1552SOL     OW 5401   6.055   2.154   3.499  0.5542  0.4423  0.3208
 1552SOL    HW1 5402   6.139   2.134   3.457  0.1700  0.8193 -0.6638
 1552SOL    HW2 5403   6.038   2.245   3.476 -1.3916 -0.3640 -1.8289
 1553SOL     OW 5404   0.020   5.657   6.177  0.3349  0.1724 -0.6718
 1553SOL    HW1 5405   0.052   5.747   6.183  0.4925  0.0909 -0.1717
 1553SOL    HW2 5406   0.022   5.626   6.268 -1.3140  0.2089 -0.5997
 1554SOL     OW 5407   4.418   0.217   3.024 -0.0518  0.2241  0.4334
 1554SOL    HW1 5408   4.333   0.173   3.030 -0.0677  0.3348  1.1515
 1554SOL    HW2 5409   4.469   0.179   3.096  0.4989  0.1786  0.0204
 1555SOL     OW 5410   1.227   5.897   4.540 -0.0676 -0.2107  0.1728
 1555SOL    HW1 5411   1.153   5.845   4.508  0.7748 -0.6768 -1.0871
 1555SOL    HW2 5412   1.188   5.980   4.567 -1.1208 -0.6472  0.0523
 1556SOL     OW 5413   2.489   0.926   2.562  0.0116  0.2521 -0.2933
 1556SOL    HW1 5414   2.579   0.957   2.571  0.7070 -1.3898 -1.1523
 1556SOL    HW2 5415   2.475   0.870   2.639 -0.4390  0.8456  0.0635
 1557SOL     OW 5416   3.364   1.364   0.355  0.0623  0.2684 -0.3678
 1557SOL    HW1 5417   3.448   1.410   0.348 -0.3894  1.2456  0.3047
 1557SOL    HW2 5418   3.387   1.276   0.385  0.9088  0.2313 -1.0892
 1558SOL     OW 5419   0.041   1.487   3.323  0.4117  0.2084  0.0653
 1558SOL    HW1 5420   0.084   1.562   3.363  0.5758  1.5993 -2.4849
 1558SOL    HW2 5421  -0.041   1.476   3.372  0.2385  2.2744  0.2948
 1559SOL     OW 5422   1.018   1.539   3.942  0.1804 -0.0051 -0.3337
 1559SOL    HW1 5423   1.037   1.546   4.035  0.3995 -1.0116 -0.2961
 1559SOL    HW2 5424   1.036   1.627   3.907  0.4655  0.2740  0.4992
 1560SOL     OW 5425   2.732   5.714   4.675 -0.5027  0.2858 -0.3403
 1560SOL    HW1 5426   2.827   5.713   4.662 -0.6373  0.1260 -1.4152
 1560SOL    HW2 5427   2.706   5.622   4.670 -0.9473  0.4726 -2.1078
 1561SOL     OW 5428   4.548   2.634   4.988  0.0079 -0.7287  0.0865
 1561SOL    HW1 5429   4.563   2.677   4.904  1.8125 -0.2041  0.6325
 1561SOL    HW2 5430   4.607   2.559   4.987  0.8615 -0.0995  1.2995
 1562SOL     OW 5431   0.874   5.926   2.084  0.4324 -0.0256  0.2651
 1562SOL    HW1 5432   0.833   5.879   2.012  0.0860  1.8266 -0.7940
 1562SOL    HW2 5433   0.936   5.985   2.043  1.0142  0.3179  1.5740
 1563SOL     OW 5434   4.162   1.795   1.618 -0.7109 -0.6387 -0.5239
 1563SOL    HW1 5435   4.147   1.834   1.705 -0.5859  1.2561 -1.2987
 1563SOL    HW2 5436   4.199   1.709   1.637 -0.5786 -0.2280  1.3175
 1564SOL     OW 5437   4.278   1.463   3.136 -0.5911 -0.1607 -0.0092
 1564SOL    HW1 5438   4.243   1.383   3.097  0.5038 -0.2104 -0.9371
 1564SOL    HW2 5439   4.248   1.460   3.227  0.0654 -2.0252  0.1943
 1565SOL     OW 5440   4.846   0.361   5.042  0.0157  0.3278  0.2941
 1565SOL    HW1 5441   4.785   0.415   5.092  0.4154  0.3237  0.7991
 1565SOL    HW2 5442   4.889   0.307   5.108  1.0638  0.8238  0.0436
 1566SOL     OW 5443   3.178   3.594   4.672  0.3605  0.3929 -0.0143
 1566SOL    HW1 5444   3.258   3.552   4.704  0.7207  0.5213 -0.7371
 1566SOL    HW2 5445   3.191   3.601   4.578 -0.9910 -0.6198 -0.3067
 1567SOL     OW 5446   0.669   3.106   2.782  0.2731  0.3475 -0.0637
 1567SOL    HW1 5447   0.645   3.015   2.766 -0.1010  0.1598  1.4108
 1567SOL    HW2 5448   0.595   3.157   2.749  0.9006  0.1954 -1.7669
 1568SOL     OW 5449   6.023   1.041   3.112 -0.1294  0.8865  0.0475
 1568SOL    HW1 5450   6.038   1.029   3.018 -2.6304 -0.2876 -0.2771
 1568SOL    HW2 5451   6.062   0.963   3.152 -1.1630  0.1827 -0.2871
 1569SOL     OW 5452   3.534   1.098   5.781  0.0905 -0.7299 -0.0304
 1569SOL    HW1 5453   3.483   1.129   5.856 -1.9174 -1.1542 -1.1283
 1569SOL    HW2 5454   3.528   1.170   5.717 -0.1851 -1.2614 -0.6222
 1570SOL     OW 5455   2.239   0.032   0.510  0.2189  0.5006 -0.0694
 1570SOL    HW1 5456   2.212   0.109   0.560 -0.6348  0.9979 -1.2495
 1570SOL    HW2 5457   2.238   0.061   0.419 -0.6457 -1.0529 -0.5926
 1571SOL     OW 5458   2.900   3.374   3.313  0.2835 -0.0356 -0.3741
 1571SOL    HW1 5459   2.924   3.425   3.236  0.7974  0.7387  0.2670
 1571SOL    HW2 5460   2.814   3.408   3.339  1.4669  2.0097  1.2090
 1572SOL     OW 5461   0.373   3.177   2.341  0.1798  0.0639  0.3863
 1572SOL    HW1 5462   0.400   3.266   2.365  0.7402 -0.2387  0.9048
 1572SOL    HW2 5463   0.326   3.145   2.417 -0.3605  0.0500  0.0500
 1573SOL     OW 5464   2.748   0.697   1.487  0.2232 -0.4225 -0.2444
 1573SOL    HW1 5465   2.660   0.734   1.501  1.2013  1.4357  1.5816
 1573SOL    HW2 5466   2.761   0.638   1.561  0.4941 -0.7339 -0.5400
 1574SOL     OW 5467   4.347   4.937   4.387  0.0651  0.7191 -0.3751
 1574SOL    HW1 5468   4.317   4.860   4.437  0.5727 -0.6239 -2.0437
 1574SOL    HW2 5469   4.346   5.008   4.451 -2.2099 -0.2406  0.7907
 1575SOL     OW 5470   5.661   1.010   5.272 -0.1063  0.0575 -0.7930
 1575SOL    HW1 5471   5.610   0.992   5.193 -0.1966  0.6401 -0.8737
 1575SOL    HW2 5472   5.623   1.091   5.307  0.2200  0.0423 -0.3938
 1576SOL     OW 5473   4.323   5.765   1.256  0.5181 -0.1644 -0.3537
 1576SOL    HW1 5474   4.352   5.707   1.326 -0.4867 -0.4350 -0.1383
 1576SOL    HW2 5475   4.376   5.739   1.180  1.8350  0.3471  0.3624
 1577SOL     OW 5476   6.250   3.260   5.413 -0.0540 -0.3297  0.0117
 1577SOL    HW1 5477   6.292   3.328   5.362  0.6526  0.3043  1.3740
 1577SOL    HW2 5478   6.199   3.307   5.479  0.0322 -1.1018  0.6491
 1578SOL     OW 5479   1.581   3.701   0.449 -0.4129 -0.1674 -0.3948
 1578SOL    HW1 5480   1.492   3.725   0.475 -0.3135 -0.0906 -0.1176
 1578SOL    HW2 5481   1.615   3.653   0.524  0.6196  1.8751  0.5420
 1579SOL     OW 5482   2.378   0.097   2.415 -0.5665  0.1077  0.3054
 1579SOL    HW1 5483   2.343   0.186   2.420  0.1958  0.4869 -0.6429
 1579SOL    HW2 5484   2.432   0.098   2.336  0.0334 -0.9901  0.6887
 1580SOL     OW 5485   6.153   0.334   1.319  0.2991 -0.2166 -0.3734
 1580SOL    HW1 5486   6.122   0.388   1.392  1.3854 -0.9728  0.6896
 1580SOL    HW2 5487   6.156   0.394   1.245 -1.8183  0.3264 -0.0694
 1581SOL     OW 5488   0.058   1.867   5.938 -0.4392 -0.1534  0.4160
 1581SOL    HW1 5489   0.051   1.823   6.023 -2.6567 -0.9187 -0.1003
 1581SOL    HW2 5490   0.039   1.959   5.957 -1.6807 -0.4439  0.6813
 1582SOL     OW 5491   1.777   5.905   1.201 -0.2093  0.0862  0.3518
 1582SOL    HW1 5492   1.808   5.891   1.291 -0.2418 -0.9442  0.2220
 1582SOL    HW2 5493   1.763   5.816   1.167 -0.3972  0.4711 -0.6043
 1583SOL     OW 5494   1.817   3.865   0.467  0.4200 -0.6573  0.3405
 1583SOL    HW1 5495   1.815   3.942   0.410  0.3158 -1.2301 -0.4524
 1583SOL    HW2 5496   1.729   3.829   0.462  0.7739 -1.4851 -0.2311
 1584SOL     OW 5497   1.687   3.316   2.250  0.0443  0.0467  0.2515
 1584SOL    HW1 5498   1.734   3.393   2.280  1.5922 -0.1543 -1.4863
 1584SOL    HW2 5499   1.674   3.330   2.156 -1.2876 -0.9967  0.2403
 1585SOL     OW 5500   4.923   5.765   0.375 -0.2897 -0.3761  0.1998
 1585SOL    HW1 5501   4.971   5.803   0.301  1.5728 -0.6249  1.2164
 1585SOL    HW2 5502   4.915   5.672   0.352 -1.9244 -0.0271 -0.7803
 1586SOL     OW 5503   1.375   4.048   3.377 -0.1297 -0.1114  0.8514
 1586SOL    HW1 5504   1.397   4.133   3.340 -0.6792  0.8773  2.6601
 1586SOL    HW2 5505   1.311   4.011   3.317 -1.6600  1.8069  1.2255
 1587SOL     OW 5506   1.060   0.606   5.168  0.3170  0.4822  0.1829
 1587SOL    HW1 5507   1.107   0.568   5.242  3.5420  0.5989 -1.5933
 1587SOL    HW2 5508   1.065   0.701   5.184  0.0759  0.4700  0.3306
 1588SOL     OW 5509   6.094   5.700   1.388  0.5680 -0.2501 -0.4807
 1588SOL    HW1 5510   6.047   5.696   1.305  1.0002  1.1028 -0.8195
 1588SOL    HW2 5511   6.077   5.615   1.429 -0.6669 -0.4771 -1.3891
 1589SOL     OW 5512   4.850   0.989   1.450 -0.3222 -0.0876 -0.1964
 1589SOL    HW1 5513   4.775   0.972   1.392  1.2732 -1.0726 -2.1090
 1589SOL    HW2 5514   4.921   1.012   1.390  1.3507 -0.8336  1.4181
 1590SOL     OW 5515   3.160   0.155   2.988 -0.0639  0.1663  0.3067
 1590SOL    HW1 5516   3.205   0.124   2.910 -0.7024  0.9629 -0.3822
 1590SOL    HW2 5517   3.221   0.134   3.060 -0.2014 -2.1579 -0.1604
 1591SOL     OW 5518   2.260   4.889   2.399 -0.1608 -0.5051  0.1439
 1591SOL    HW1 5519   2.260   4.801   2.437  1.2570 -0.9308 -0.7544
 1591SOL    HW2 5520   2.314   4.941   2.459  1.3195 -0.9566 -0.7419
 1592SOL     OW 5521   2.208   3.324   5.352  0.0837 -0.1840  0.5119
 1592SOL    HW1 5522   2.147   3.308   5.425 -0.8149 -0.6062 -0.3120
 1592SOL    HW2 5523   2.173   3.273   5.279  2.1680 -1.4973  0.3521
 1593SOL     OW 5524   1.370   5.432   0.478  0.2090 -0.3315 -0.2135
 1593SOL    HW1 5525   1.311   5.506   0.496  0.3812 -0.5337  1.2739
 1593SOL    HW2 5526   1.430   5.466   0.412  0.6021  1.0558  0.8020
 1594SOL     OW 5527   4.933   4.225   0.940 -0.5175  0.4360 -0.3723
 1594SOL    HW1 5528   5.000   4.268   0.887  0.4590 -0.1876  0.3372
 1594SOL    HW2 5529   4.976   4.148   0.976 -1.5853  0.0843  0.1963
 1595SOL     OW 5530   0.922   0.683   0.141  0.0708 -0.3891  0.2120
 1595SOL    HW1 5531   0.953   0.726   0.061 -0.5554 -0.9520 -0.3559
 1595SOL    HW2 5532   0.903   0.593   0.113 -1.8386 -0.1404  0.5443
 1596SOL     OW 5533   1.740   0.179   4.012 -0.4370  0.5603  0.2237
 1596SOL    HW1 5534   1.793   0.127   4.072 -1.9146  0.5657  1.5998
 1596SOL    HW2 5535   1.802   0.210   3.946  1.4850  1.4753  2.3286
 1597SOL     OW 5536   4.128   0.548   5.075 -0.0158 -0.2028 -0.2952
 1597SOL    HW1 5537   4.081   0.588   5.002 -1.5109 -0.8844  0.2479
 1597SOL    HW2 5538   4.116   0.608   5.148  0.8758  0.1275 -0.4032
 1598SOL     OW 5539   6.092   3.485   0.276 -0.3210 -0.2669 -0.5929
 1598SOL    HW1 5540   6.024   3.551   0.264 -0.3804 -0.3149 -0.5173
 1598SOL    HW2 5541   6.157   3.505   0.208 -1.1927 -1.2168 -1.7429
 1599SOL     OW 5542   0.890   0.680   4.276 -0.5018 -0.2059  0.2653
 1599SOL    HW1 5543   0.859   0.591   4.256  0.1367 -0.0603 -1.5718
 1599SOL    HW2 5544   0.974   0.666   4.320  0.6474 -0.5626 -1.8949
 1600SOL     OW 5545   4.458   1.029   6.211 -0.1777 -0.1553 -0.1716
 1600SOL    HW1 5546   4.450   1.116   6.172  0.8141  0.5254  1.0539
 1600SOL    HW2 5547   4.397   1.031   6.285  2.3229  0.8201  1.9990
 1601SOL     OW 5548   6.282   0.976   4.372 -0.3990  0.5317  0.0245
 1601SOL    HW1 5549   6.306   1.000   4.461 -0.9292  1.1033  0.0233
 1601SOL    HW2 5550   6.209   1.035   4.350  0.3063  1.0279 -1.0988
 1602SOL     OW 5551   5.903   4.388   0.921 -0.0591  0.3890 -0.4523
 1602SOL    HW1 5552   5.912   4.381   1.016  0.4348 -1.2815 -0.5925
 1602SOL    HW2 5553   5.981   4.437   0.893  0.8093 -0.7626 -0.1525
 1603SOL     OW 5554   4.922   0.981   1.174  0.0400  0.1689  0.6007
 1603SOL    HW1 5555   4.920   0.978   1.079  0.7233 -0.5622  0.6011
 1603SOL    HW2 5556   4.831   0.968   1.201 -0.1468  0.3333  0.0612
 1604SOL     OW 5557   1.102   3.790   5.405 -0.0388  0.0794 -0.0408
 1604SOL    HW1 5558   1.139   3.844   5.475  0.0654 -1.7487  1.4034
 1604SOL    HW2 5559   1.173   3.780   5.343  0.5967 -0.0659  0.6933
 1605SOL     OW 5560   3.137   1.065   5.305  0.1815 -0.5296  0.0134
 1605SOL    HW1 5561   3.053   1.073   5.350  0.0313  0.9645 -0.4983
 1605SOL    HW2 5562   3.129   1.120   5.227  1.5948 -0.4347 -0.1008
 1606SOL     OW 5563   5.527   0.642   0.643  0.5506 -0.1114  0.8999
 1606SOL    HW1 5564   5.621   0.649   0.661  0.7860  1.1614 -0.6530
 1606SOL    HW2 5565   5.512   0.548   0.632  2.0972 -0.2165 -0.8925
 1607SOL     OW 5566   3.208   4.271   5.874 -0.2761 -0.0700 -0.0826
 1607SOL    HW1 5567   3.227   4.257   5.781 -0.5783  3.1784 -0.7593
 1607SOL    HW2 5568   3.281   4.325   5.905 -1.5355  1.1978  0.8056
 1608SOL     OW 5569   3.645   0.751   4.880  0.1038 -0.1203  0.9520
 1608SOL    HW1 5570   3.576   0.686   4.869 -0.4415  0.3802  1.3478
 1608SOL    HW2 5571   3.723   0.700   4.901  0.1533 -0.7719 -0.6919
 1609SOL     OW 5572   1.159   3.942   4.704  0.0059 -0.0481 -0.0698
 1609SOL    HW1 5573   1.209   3.890   4.767 -2.2273  0.3489  2.2064
 1609SOL    HW2 5574   1.112   3.877   4.652 -0.9079 -0.4011  1.1430
 1610SOL     OW 5575   2.919   6.289   5.714  0.0979 -0.3618  0.2656
 1610SOL    HW1 5576   2.998   6.278   5.662  0.1775 -0.5183  0.4174
 1610SOL    HW2 5577   2.851   6.242   5.664 -0.1545  0.7172 -0.4325
 1611SOL     OW 5578   3.321   5.174   1.275  0.5041  0.3498 -0.2876
 1611SOL    HW1 5579   3.411   5.172   1.309  0.4217 -1.0210 -0.0655
 1611SOL    HW2 5580   3.266   5.174   1.353  0.2918  1.8231 -0.4176
 1612SOL     OW 5581   5.792   4.136   2.206  0.1534  0.5621 -0.3395
 1612SOL    HW1 5582   5.861   4.109   2.145  0.8010  1.1179  0.1337
 1612SOL    HW2 5583   5.798   4.231   2.209 -0.5071  0.6026 -0.1333
 1613SOL     OW 5584   3.101   3.625   0.715 -0.4869  0.3657  0.0187
 1613SOL    HW1 5585   3.177   3.652   0.768 -0.5639  1.4225 -0.3733
 1613SOL    HW2 5586   3.026   3.660   0.763 -0.7076 -0.3286  0.1914
 1614SOL     OW 5587   4.905   3.923   3.861  0.1196 -0.1316 -0.4888
 1614SOL    HW1 5588   4.871   3.877   3.938  0.0968  0.3337 -0.2180
 1614SOL    HW2 5589   4.994   3.889   3.851  0.7031  0.9433  0.6999
 1615SOL     OW 5590   3.870   4.795   2.557  0.9631  0.0723  0.3619
 1615SOL    HW1 5591   3.824   4.712   2.544  0.4565  0.6013 -1.5628
 1615SOL    HW2 5592   3.913   4.786   2.642  0.9137 -2.1452  0.2015
 1616SOL     OW 5593   0.839   1.618   3.122 -0.4246  0.6972 -0.3881
 1616SOL    HW1 5594   0.881   1.698   3.092  0.3044  0.6321  0.4109
 1616SOL    HW2 5595   0.781   1.646   3.193 -0.9258  0.6408 -0.7671
 1617SOL     OW 5596   1.773   3.226   2.932  0.1228  0.0545  0.1875
 1617SOL    HW1 5597   1.798   3.134   2.936 -0.0432  0.0404  2.2456
 1617SOL    HW2 5598   1.856   3.274   2.934  0.2081 -0.0264 -0.8709
 1618SOL     OW 5599   0.040   4.165   5.911  0.0540 -0.9977 -0.1383
 1618SOL    HW1 5600   0.000   4.081   5.892  0.8194 -1.3460 -0.2381
 1618SOL    HW2 5601  -0.031   4.219   5.946  0.1493 -2.5808  2.7325
 1619SOL     OW 5602   5.301   1.309   2.212  0.0388 -0.5969  0.0838
 1619SOL    HW1 5603   5.371   1.280   2.154  0.4791 -0.6159  0.6072
 1619SOL    HW2 5604   5.221   1.298   2.162  0.5058  0.6277 -0.9991
 1620SOL     OW 5605   0.375   3.293   3.677  0.6954 -0.1220 -0.4227
 1620SOL    HW1 5606   0.394   3.365   3.737  0.0321 -0.0354 -0.3011
 1620SOL    HW2 5607   0.445   3.295   3.612  1.1504  0.0883  0.0789
 1621SOL     OW 5608   0.896   2.218   1.376  0.5309  0.0933 -0.1517
 1621SOL    HW1 5609   0.903   2.125   1.355 -0.4013  0.3466 -1.8057
 1621SOL    HW2 5610   0.870   2.259   1.293 -1.0104  1.5542  0.9859
 1622SOL     OW 5611   4.374   0.334   4.705  0.4835 -0.2639  0.2406
 1622SOL    HW1 5612   4.409   0.353   4.792  1.6465 -0.7071 -0.1107
 1622SOL    HW2 5613   4.339   0.418   4.674  1.8141  0.3537  0.3598
 1623SOL     OW 5614   1.746   0.541   4.953 -0.1953  0.2804 -0.3175
 1623SOL    HW1 5615   1.841   0.556   4.954  0.1388 -1.5172  0.6710
 1623SOL    HW2 5616   1.714   0.584   5.032 -0.0648  0.2359 -0.2401
 1624SOL     OW 5617   0.658   2.056   1.217 -0.2353  0.2298 -0.3730
 1624SOL    HW1 5618   0.574   2.058   1.262 -0.0165  0.4391  0.0393
 1624SOL    HW2 5619   0.711   1.994   1.267  0.7030  2.0200  0.9693
 1625SOL     OW 5620   3.427   3.178   3.138 -0.6537 -0.0716  0.0334
 1625SOL    HW1 5621   3.513   3.178   3.095 -0.7328  0.3582 -0.1323
 1625SOL    HW2 5622   3.376   3.112   3.090 -0.4820 -0.1816  0.0007
 1626SOL     OW 5623   0.134   3.220   1.739 -0.2153 -0.2152 -0.6063
 1626SOL    HW1 5624   0.150   3.151   1.803 -1.0532  1.0703  1.0941
 1626SOL    HW2 5625   0.168   3.186   1.657  0.9143 -1.9507  0.5188
 1627SOL     OW 5626   3.061   4.178   3.674 -0.6848 -0.2175 -0.0402
 1627SOL    HW1 5627   2.989   4.153   3.731  0.2623 -0.8514  0.9209
 1627SOL    HW2 5628   3.036   4.264   3.640 -2.4009 -0.9038 -0.6448
 1628SOL     OW 5629   5.161   0.535   2.875  0.0597  0.3594 -0.0927
 1628SOL    HW1 5630   5.132   0.623   2.898  0.9374  0.2740  1.4627
 1628SOL    HW2 5631   5.207   0.546   2.792  1.8517  1.7338  1.0085
 1629SOL     OW 5632   3.743   1.908   2.448  0.5765  0.6231 -0.5956
 1629SOL    HW1 5633   3.696   1.909   2.531  0.7552 -1.7078 -0.3980
 1629SOL    HW2 5634   3.714   1.987   2.403 -0.9831  0.9513  0.8827
 1630SOL     OW 5635   1.198   0.937   3.807 -0.0688  0.0263  0.2041
 1630SOL    HW1 5636   1.113   0.895   3.820  0.5979 -2.0122 -1.4782
 1630SOL    HW2 5637   1.189   0.985   3.724  0.5592 -0.6594 -0.2731
 1631SOL     OW 5638   4.792   5.718   5.039 -0.1444 -0.0026  0.0552
 1631SOL    HW1 5639   4.859   5.684   5.099 -0.5092 -1.1529 -0.1483
 1631SOL    HW2 5640   4.835   5.787   4.991  0.7716 -0.4292  0.2352
 1632SOL     OW 5641   0.521   4.895   4.582 -0.0833  0.2339  0.6909
 1632SOL    HW1 5642   0.598   4.950   4.588 -0.0789  0.4118 -0.6165
 1632SOL    HW2 5643   0.458   4.947   4.532  0.3384 -1.3146 -1.6137
 1633SOL     OW 5644   5.987   4.511   5.314  0.5195  0.3506  0.0859
 1633SOL    HW1 5645   6.024   4.510   5.402  2.0150 -2.8212 -0.4662
 1633SOL    HW2 5646   6.049   4.562   5.263 -0.3627  2.2241  0.7779
 1634SOL     OW 5647   0.071   3.761   4.875 -0.0881  0.6351 -0.7298
 1634SOL    HW1 5648   0.012   3.823   4.831 -0.2728  0.2682 -1.0093
 1634SOL    HW2 5649   0.043   3.675   4.843 -1.3736  0.1860  1.4273
 1635SOL     OW 5650   4.941   5.961   5.267 -0.0722  0.1297  0.0569
 1635SOL    HW1 5651   4.992   5.999   5.338  3.1035  1.0760 -2.4779
 1635SOL    HW2 5652   4.888   6.033   5.234  0.7690  0.5379 -0.4256
 1636SOL     OW 5653   1.316   3.135   5.341 -0.5846  0.4082  0.1484
 1636SOL    HW1 5654   1.249   3.066   5.340 -0.0002 -0.1879  0.8418
 1636SOL    HW2 5655   1.378   3.109   5.272 -0.8240  0.7198 -0.1882
 1637SOL     OW 5656   2.678   0.995   6.032 -0.2999  0.2936  0.0182
 1637SOL    HW1 5657   2.648   1.057   5.965 -0.2846  2.1864  1.6669
 1637SOL    HW2 5658   2.745   1.044   6.080  1.1947 -1.7589  0.1395
 1638SOL     OW 5659   0.415   1.718   5.944  0.2994  0.2265  0.0606
 1638SOL    HW1 5660   0.329   1.739   5.908 -0.3237  0.4147  1.5905
 1638SOL    HW2 5661   0.475   1.777   5.898 -0.2371 -0.4554 -1.6083
 1639SOL     OW 5662   0.553   3.738   4.819 -0.1001  0.1169  0.0329
 1639SOL    HW1 5663   0.603   3.724   4.899 -1.0502 -1.3810  0.4008
 1639SOL    HW2 5664   0.612   3.788   4.762  0.7903  0.7232  1.4375
 1640SOL     OW 5665   5.216   0.016   0.152  0.0048 -0.3376  0.2468
 1640SOL    HW1 5666   5.177  -0.064   0.117  0.0042 -0.1232 -0.2531
 1640SOL    HW2 5667   5.168   0.033   0.233 -3.5091  1.8468 -1.9890
 1641SOL     OW 5668   0.101   4.179   4.390 -0.2898 -0.1006  0.3290
 1641SOL    HW1 5669   0.159   4.229   4.447  0.5045  2.3105 -2.3575
 1641SOL    HW2 5670   0.157   4.109   4.355  1.4230  2.4311 -2.5537
 1642SOL     OW 5671   4.896   1.308   4.868 -0.3721 -0.1610 -0.2540
 1642SOL    HW1 5672   4.842   1.299   4.789 -1.3486  0.7528  0.2949
 1642SOL    HW2 5673   4.984   1.283   4.839 -0.9812 -1.2161 -1.2805
 1643SOL     OW 5674   0.427   5.490   0.587  0.1443  0.2339 -0.0901
 1643SOL    HW1 5675   0.401   5.579   0.609  0.3459  0.0554  0.9727
 1643SOL    HW2 5676   0.424   5.444   0.671  0.7892 -0.5668 -0.4917
 1644SOL     OW 5677   2.904   5.915   1.867 -0.1496  0.3962 -1.0017
 1644SOL    HW1 5678   2.909   5.916   1.771 -1.1414 -1.4050 -1.1051
 1644SOL    HW2 5679   2.989   5.949   1.896  1.4293 -1.9785 -2.5196
 1645SOL     OW 5680   2.169   4.325   2.859 -0.3634 -0.2297  0.0777
 1645SOL    HW1 5681   2.231   4.398   2.857 -1.1887  0.4823 -2.1311
 1645SOL    HW2 5682   2.084   4.366   2.843 -1.1450 -1.4508  0.9341
 1646SOL     OW 5683   4.695   4.823   6.076  0.1441 -0.1710  0.2199
 1646SOL    HW1 5684   4.700   4.918   6.071 -0.0081 -0.2096 -0.7028
 1646SOL    HW2 5685   4.703   4.792   5.986  2.0800 -1.1403  0.6605
 1647SOL     OW 5686   3.728   5.462   4.598  0.2645 -0.7536 -0.2243
 1647SOL    HW1 5687   3.753   5.548   4.630  1.0389 -1.1835  0.3772
 1647SOL    HW2 5688   3.700   5.477   4.508 -1.9411  0.4814  0.5998
 1648SOL     OW 5689   5.500   4.837   0.857  0.4825 -0.2627  0.6575
 1648SOL    HW1 5690   5.565   4.890   0.812  0.5726 -2.1791 -1.6119
 1648SOL    HW2 5691   5.535   4.748   0.856 -1.1275 -0.9609  1.4507
 1649SOL     OW 5692   5.734   3.819   1.343  0.4567  0.5562  0.3897
 1649SOL    HW1 5693   5.684   3.880   1.288 -0.0183  0.1608  0.3749
 1649SOL    HW2 5694   5.679   3.807   1.420  0.4798  0.0336  0.3272
 1650SOL     OW 5695   6.240   2.774   2.380  0.4468  0.2697  0.0878
 1650SOL    HW1 5696   6.204   2.861   2.397  1.7619  0.3958  2.8012
 1650SOL    HW2 5697   6.334   2.790   2.368  0.5628 -0.6840 -0.3319
 1651SOL     OW 5698   2.114   5.543   5.174 -0.4936  0.1244 -0.4251
 1651SOL    HW1 5699   2.175   5.473   5.150 -2.0208 -0.3441 -3.5242
 1651SOL    HW2 5700   2.051   5.501   5.233  0.7481 -0.0168  0.8476
 1652SOL     OW 5701   0.648   4.436   3.965  0.5077  0.0416 -0.3357
 1652SOL    HW1 5702   0.578   4.467   4.023 -0.0632 -1.0704 -0.4146
 1652SOL    HW2 5703   0.696   4.516   3.941 -1.0570  0.9199 -0.7037
 1653SOL     OW 5704   0.030   3.383   5.773 -0.0207  0.2075 -0.5763
 1653SOL    HW1 5705   0.072   3.344   5.850  0.4736  1.5693 -0.1308
 1653SOL    HW2 5706   0.096   3.443   5.738 -1.5094  2.3038  0.0570
 1654SOL     OW 5707   5.362   0.450   4.197 -0.2072 -0.1295 -0.0054
 1654SOL    HW1 5708   5.392   0.448   4.106 -1.7283 -0.1929 -0.5357
 1654SOL    HW2 5709   5.394   0.368   4.235 -2.0571 -1.5667 -1.3541
 1655SOL     OW 5710   4.833   2.298   6.207 -0.2253  0.8288  0.0329
 1655SOL    HW1 5711   4.766   2.272   6.143 -0.5047  1.5011  0.0417
 1655SOL    HW2 5712   4.847   2.220   6.259  0.9152 -0.1220 -1.6165
 1656SOL     OW 5713   3.763   4.002   4.950 -0.0206  0.5072 -1.1669
 1656SOL    HW1 5714   3.811   3.923   4.976 -0.6395  0.3402 -0.5019
 1656SOL    HW2 5715   3.829   4.072   4.955  0.2503  0.2222 -0.5902
 1657SOL     OW 5716   3.360   4.913   2.222 -0.0029 -0.0806  0.5301
 1657SOL    HW1 5717   3.405   4.952   2.147  0.0981 -0.5723  0.3264
 1657SOL    HW2 5718   3.275   4.956   2.225  0.2684  0.4603  0.5767
 1658SOL     OW 5719   1.767   3.659   2.974 -0.3641  0.5662  0.5092
 1658SOL    HW1 5720   1.847   3.632   2.928 -1.6716 -1.9151 -0.5165
 1658SOL    HW2 5721   1.728   3.577   3.003 -3.5700  1.4515 -0.8688
 1659SOL     OW 5722   0.466   4.955   0.069 -0.3150  0.1536 -0.0208
 1659SOL    HW1 5723   0.418   4.958   0.152  0.2353  2.2313  0.2651
 1659SOL    HW2 5724   0.397   4.952   0.002 -0.7660 -2.1281  0.4516
 1660SOL     OW 5725   2.276   5.427   4.072 -0.2237 -0.3645 -0.5173
 1660SOL    HW1 5726   2.371   5.439   4.070 -0.0118 -1.4567  1.1967
 1660SOL    HW2 5727   2.249   5.463   4.156 -0.6770 -3.9796  1.0245
 1661SOL     OW 5728   3.032   4.343   1.143  0.0697 -0.3809  0.4563
 1661SOL    HW1 5729   3.127   4.343   1.132  0.1698  1.0989  1.0477
 1661SOL    HW2 5730   3.013   4.265   1.195  0.9694 -0.6382  0.4026
 1662SOL     OW 5731   3.377   4.047   3.095 -0.1745 -0.8265 -0.1914
 1662SOL    HW1 5732   3.331   3.980   3.145 -0.9476 -1.2780 -1.4624
 1662SOL    HW2 5733   3.463   4.008   3.078 -0.8161 -1.8005 -1.4270
 1663SOL     OW 5734   2.300   0.895   1.330  0.4587 -1.0007  0.6162
 1663SOL    HW1 5735   2.288   0.866   1.421  0.7316 -2.5110  0.2105
 1663SOL    HW2 5736   2.306   0.813   1.280  0.7158 -0.1987 -0.7097
 1664SOL     OW 5737   2.042   0.102   1.481  0.3264 -0.2773 -0.1476
 1664SOL    HW1 5738   2.038   0.015   1.441 -0.7636 -1.1710  1.7568
 1664SOL    HW2 5739   1.951   0.132   1.483  0.3549 -0.2137  1.4547
 1665SOL     OW 5740   5.966   4.108   2.428  0.0845  0.6156  0.2325
 1665SOL    HW1 5741   5.959   4.158   2.510  1.7741  1.2661  0.0260
 1665SOL    HW2 5742   5.973   4.175   2.360  1.4928  0.1096 -0.1449
 1666SOL     OW 5743   0.479   2.917   5.466  0.1276  0.1791  0.2151
 1666SOL    HW1 5744   0.475   2.982   5.396  1.6389 -0.1708 -0.2343
 1666SOL    HW2 5745   0.454   2.964   5.545  2.3384  1.6730  0.1119
 1667SOL     OW 5746   3.874   3.401   2.821 -0.0119  0.4811 -0.0045
 1667SOL    HW1 5747   3.870   3.370   2.912 -1.1827  0.3880 -0.0671
 1667SOL    HW2 5748   3.839   3.491   2.825 -1.1701  0.0807 -0.5010
 1668SOL     OW 5749   4.898   0.367   3.882  0.2984  0.1787 -0.2099
 1668SOL    HW1 5750   4.846   0.442   3.912  0.4297 -0.1749  0.9536
 1668SOL    HW2 5751   4.955   0.346   3.956 -1.8058 -2.9702  0.7132
 1669SOL     OW 5752   5.228   0.560   4.706  0.1592  0.9362  0.7492
 1669SOL    HW1 5753   5.188   0.592   4.624  2.5161  1.9693 -0.0809
 1669SOL    HW2 5754   5.207   0.466   4.707 -2.3303  1.4085  0.4718
 1670SOL     OW 5755   5.104   5.452   2.972 -0.1402 -0.1596 -0.7766
 1670SOL    HW1 5756   5.083   5.396   3.047  1.2776 -1.3529 -1.2243
 1670SOL    HW2 5757   5.200   5.456   2.971 -0.0807 -0.7975 -2.9383
 1671SOL     OW 5758   4.733   5.818   1.204  0.3729  0.1778 -0.4285
 1671SOL    HW1 5759   4.807   5.879   1.210  2.2997 -1.6682 -2.9612
 1671SOL    HW2 5760   4.667   5.866   1.154  0.9419  0.9615 -0.4585
 1672SOL     OW 5761   5.618   4.791   3.499  0.0663 -0.0884 -0.5457
 1672SOL    HW1 5762   5.674   4.726   3.542  1.3498  1.1218 -0.3281
 1672SOL    HW2 5763   5.668   4.872   3.503 -1.0657  0.7009 -1.7271
 1673SOL     OW 5764   0.896   5.336   5.748 -0.3681 -0.0976  0.3569
 1673SOL    HW1 5765   0.852   5.323   5.664 -0.0707  1.2417 -0.0423
 1673SOL    HW2 5766   0.989   5.339   5.726 -0.2656 -0.0951  0.7830
 1674SOL     OW 5767   3.609   5.700   0.106 -0.2047 -0.2877 -0.2517
 1674SOL    HW1 5768   3.651   5.777   0.145  0.3595 -0.9789  0.5504
 1674SOL    HW2 5769   3.585   5.727   0.018 -1.3347  1.2724  0.5064
 1675SOL     OW 5770   1.931   3.509   0.195 -0.8109  0.4758  0.2341
 1675SOL    HW1 5771   1.936   3.419   0.226 -1.2615  0.2157 -0.4161
 1675SOL    HW2 5772   2.002   3.517   0.131  0.1510  1.0256  1.3420
 1676SOL     OW 5773   3.953   1.522   5.783  0.4009 -0.1045  0.2445
 1676SOL    HW1 5774   4.048   1.531   5.782  0.2935  1.2120  0.1851
 1676SOL    HW2 5775   3.924   1.574   5.858 -0.4775  2.4696 -1.6955
 1677SOL     OW 5776   2.364   1.077   1.058  0.2403 -0.4456 -0.3317
 1677SOL    HW1 5777   2.333   1.104   1.145 -0.1957 -1.2075 -0.2391
 1677SOL    HW2 5778   2.458   1.097   1.059  0.1689 -0.1067  0.1810
 1678SOL     OW 5779   3.077   0.766   4.789  0.4080 -0.0889 -0.3656
 1678SOL    HW1 5780   3.113   0.686   4.751 -1.0695 -0.4717 -1.0244
 1678SOL    HW2 5781   3.139   0.834   4.763  0.7717 -0.7474 -1.2795
 1679SOL     OW 5782   6.098   2.862   3.624  0.1551  0.1000 -0.1307
 1679SOL    HW1 5783   6.094   2.855   3.719  0.8138  3.1264  0.2390
 1679SOL    HW2 5784   6.037   2.795   3.592  0.2872 -1.3175  2.3569
 1680SOL     OW 5785   3.360   0.879   0.157 -0.2919  0.3065 -0.0274
 1680SOL    HW1 5786   3.404   0.841   0.234  0.6518  0.7483 -0.3305
 1680SOL    HW2 5787   3.399   0.833   0.083 -1.5313 -0.4480 -0.2414
 1681SOL     OW 5788   1.381   4.376   1.600  0.2554 -0.2922  0.3351
 1681SOL    HW1 5789   1.350   4.451   1.548 -0.9435  1.2147  3.0355
 1681SOL    HW2 5790   1.333   4.301   1.564 -0.2486  0.5941 -0.9421
 1682SOL     OW 5791   5.752   4.836   2.177 -0.3217  0.1513 -0.1819
 1682SOL    HW1 5792   5.684   4.878   2.229 -1.2123  0.6553 -1.6910
 1682SOL    HW2 5793   5.813   4.906   2.155 -0.7794  0.2880 -1.0810
 1683SOL     OW 5794   2.332   2.996   2.289 -0.0847  0.0076  0.6224
 1683SOL    HW1 5795   2.427   3.002   2.281 -0.0642  0.8936  1.3332
 1683SOL    HW2 5796   2.308   3.071   2.343 -1.3123  0.4478 -0.4866
 1684SOL     OW 5797   1.628   4.193   0.720  0.3480  0.6055  0.4081
 1684SOL    HW1 5798   1.710   4.153   0.692 -0.3247 -0.1733 -0.4934
 1684SOL    HW2 5799   1.589   4.228   0.639 -0.7687 -0.0813  0.6268
 1685SOL     OW 5800   0.002   4.009   4.760 -0.7252  0.4392 -1.2881
 1685SOL    HW1 5801   0.024   4.072   4.691  1.1274 -0.4825 -1.6194
 1685SOL    HW2 5802   0.029   4.053   4.841  4.1120 -1.0741 -1.7385
 1686SOL     OW 5803   1.894   0.398   1.173 -0.0331 -0.5225  0.2970
 1686SOL    HW1 5804   1.967   0.411   1.234  1.0149 -1.8652 -0.6109
 1686SOL    HW2 5805   1.825   0.360   1.227  0.1921  0.0483  1.0136
 1687SOL     OW 5806   2.247   5.760   5.111  0.2773 -0.1513 -0.4136
 1687SOL    HW1 5807   2.181   5.693   5.125 -0.3291  0.4713 -0.2267
 1687SOL    HW2 5808   2.313   5.744   5.179  0.8229 -1.3674 -1.1956
 1688SOL     OW 5809   2.125   4.352   0.162  0.5029  0.0544  0.2011
 1688SOL    HW1 5810   2.120   4.384   0.252  0.9198  1.4919 -0.2590
 1688SOL    HW2 5811   2.106   4.259   0.168  0.9746  0.0433  1.8377
 1689SOL     OW 5812   2.454   0.455   1.496  0.3273  0.0813 -0.2078
 1689SOL    HW1 5813   2.521   0.451   1.427 -0.9702 -0.0287 -1.4931
 1689SOL    HW2 5814   2.411   0.370   1.493  0.4353 -0.0261  0.9511
 1690SOL     OW 5815   1.519   1.409   5.386  0.5631 -0.4050 -0.1831
 1690SOL    HW1 5816   1.490   1.426   5.296 -0.5755 -0.2421  0.1986
 1690SOL    HW2 5817   1.564   1.489   5.412  1.1338 -0.5524 -0.6956
 1691SOL     OW 5818   4.484   1.325   1.428 -0.0813  0.6306  0.3279
 1691SOL    HW1 5819   4.476   1.285   1.342 -1.1432  0.1161  0.6481
 1691SOL    HW2 5820   4.396   1.319   1.465  0.1648  1.6223  1.1089
 1692SOL     OW 5821   0.773   1.029   0.504 -0.4778 -0.0410  0.1060
 1692SOL    HW1 5822   0.728   0.945   0.508  0.1691 -0.4345 -0.5616
 1692SOL    HW2 5823   0.715   1.084   0.451 -0.2855 -0.4808 -0.5750
 1693SOL     OW 5824   5.183   3.169   1.952 -0.4095  0.0839  0.0060
 1693SOL    HW1 5825   5.267   3.127   1.933 -0.4165  0.3703 -0.6989
 1693SOL    HW2 5826   5.200   3.224   2.028  0.1672  0.4880 -0.4049
 1694SOL     OW 5827   4.998   3.571   5.572  0.0614 -0.2870  0.1062
 1694SOL    HW1 5828   5.086   3.540   5.550  0.7836  1.0105  0.9956
 1694SOL    HW2 5829   4.980   3.534   5.658  0.4001  0.6416  0.6008
 1695SOL     OW 5830   4.101   5.768   5.075 -0.5151  0.1007 -0.0430
 1695SOL    HW1 5831   4.065   5.829   5.010 -2.3392 -1.1725 -0.3279
 1695SOL    HW2 5832   4.144   5.700   5.023  0.6965  0.6526  0.2285
 1696SOL     OW 5833   0.757   3.565   3.781  0.7903  0.4507 -0.0365
 1696SOL    HW1 5834   0.682   3.622   3.766  0.8852  0.0669 -2.4160
 1696SOL    HW2 5835   0.723   3.493   3.834  0.0124  1.3376  0.6850
 1697SOL     OW 5836   3.728   4.898   4.927  0.7595 -0.2601  0.2132
 1697SOL    HW1 5837   3.768   4.830   4.873 -0.1902 -1.5726  1.1183
 1697SOL    HW2 5838   3.707   4.855   5.010 -1.4403  0.6508  0.2147
 1698SOL     OW 5839   3.771   1.843   3.189 -0.3522  0.1758  0.4901
 1698SOL    HW1 5840   3.752   1.898   3.265  0.8231  0.6692  0.4502
 1698SOL    HW2 5841   3.790   1.906   3.119 -0.5998 -0.2807  0.0114
 1699SOL     OW 5842   1.016   4.844   3.025 -0.3580 -0.4172  0.9096
 1699SOL    HW1 5843   1.010   4.796   2.942  0.7499  0.6378  0.1891
 1699SOL    HW2 5844   0.954   4.917   3.015  0.8979  0.6120  0.3463
 1700SOL     OW 5845   3.442   0.966   0.784 -0.4734  0.3246  0.7364
 1700SOL    HW1 5846   3.436   0.877   0.749 -0.7398 -0.3123  2.2995
 1700SOL    HW2 5847   3.517   0.964   0.843 -1.0083  0.8855  1.4573
 1701SOL     OW 5848   0.514   3.485   3.031  0.0614  0.4145  0.7866
 1701SOL    HW1 5849   0.593   3.533   3.007 -0.4517  0.4297 -0.9603
 1701SOL    HW2 5850   0.452   3.504   2.962 -0.1788 -2.7504 -0.0353
 1702SOL     OW 5851   4.176   4.103   0.631  0.4348  0.4920 -0.3336
 1702SOL    HW1 5852   4.152   4.194   0.647 -1.0420  0.1016 -0.1372
 1702SOL    HW2 5853   4.214   4.073   0.713 -0.6130  0.4826  0.1662
 1703SOL     OW 5854   0.077   3.227   5.997  0.3779 -0.5404 -0.2250
 1703SOL    HW1 5855   0.067   3.233   6.091  0.8064 -0.6003 -0.1721
 1703SOL    HW2 5856   0.121   3.143   5.982 -2.6326 -2.1542 -0.7202
 1704SOL     OW 5857   2.338   2.562   3.447 -0.0341 -0.1443 -0.1395
 1704SOL    HW1 5858   2.415   2.506   3.457  0.0925  0.2683  1.4826
 1704SOL    HW2 5859   2.373   2.643   3.410  0.3828  0.1558  0.8771
 1705SOL     OW 5860   3.357   5.991   4.028  0.4010 -0.0589  0.2109
 1705SOL    HW1 5861   3.377   6.084   4.017 -0.3402  0.0231 -0.5332
 1705SOL    HW2 5862   3.371   5.974   4.121 -2.2663  1.4890  0.9729
 1706SOL     OW 5863   1.367   0.602   5.571 -0.1540 -0.2530  0.0357
 1706SOL    HW1 5864   1.320   0.524   5.600 -0.7707  0.3155  0.5714
 1706SOL    HW2 5865   1.459   0.581   5.587 -0.2531 -1.1443 -0.4876
 1707SOL     OW 5866   5.397   0.854   2.869 -0.3317 -0.0564  0.4822
 1707SOL    HW1 5867   5.394   0.859   2.964  1.5899 -0.9912  0.6370
 1707SOL    HW2 5868   5.314   0.894   2.840 -1.6585 -1.1427  2.5478
 1708SOL     OW 5869   5.270   1.581   2.201 -0.1503  0.5028 -0.5199
 1708SOL    HW1 5870   5.292   1.489   2.211 -1.5370  0.1693 -0.3712
 1708SOL    HW2 5871   5.174   1.583   2.193 -0.2899  2.0273  0.8247
 1709SOL     OW 5872   4.397   1.581   1.531  0.0198  0.0977 -0.3878
 1709SOL    HW1 5873   4.415   1.514   1.465 -0.5205 -0.0195 -0.4191
 1709SOL    HW2 5874   4.429   1.662   1.492  2.5749 -0.4075  0.4654
 1710SOL     OW 5875   4.856   0.950   1.730 -0.4545 -0.6423 -0.3972
 1710SOL    HW1 5876   4.903   1.031   1.751 -2.3052 -0.0751  2.1377
 1710SOL    HW2 5877   4.832   0.959   1.638  0.7241  0.9810 -0.5751
 1711SOL     OW 5878   2.136   1.559   3.470  0.4108 -0.5980  0.4695
 1711SOL    HW1 5879   2.109   1.470   3.492 -0.3644 -0.5442 -0.2251
 1711SOL    HW2 5880   2.212   1.547   3.412  1.3716 -0.7604  1.7083
 1712SOL     OW 5881   4.936   3.914   5.186 -0.5157  0.3022 -0.0007
 1712SOL    HW1 5882   4.897   3.827   5.179 -0.7964  0.5183 -1.3154
 1712SOL    HW2 5883   5.029   3.900   5.167  0.2229 -0.2506  3.3591
 1713SOL     OW 5884   4.842   1.658   2.353 -0.5921  0.3148  0.0162
 1713SOL    HW1 5885   4.822   1.744   2.316 -0.0417  0.5062  0.1557
 1713SOL    HW2 5886   4.888   1.612   2.283 -2.2828 -0.4741 -0.6519
 1714SOL     OW 5887   2.973   2.053   4.563  0.4513 -0.2715  0.1642
 1714SOL    HW1 5888   3.060   2.079   4.533  0.1183  0.9487  0.1848
 1714SOL    HW2 5889   2.989   2.007   4.645  1.0975 -0.2948  0.0312
 1715SOL     OW 5890   4.259   5.489   4.269  0.1052  0.2159  0.0741
 1715SOL    HW1 5891   4.279   5.563   4.326 -1.0681  0.1067  0.6660
 1715SOL    HW2 5892   4.185   5.445   4.312  1.4562 -1.9658  0.3285
 1716SOL     OW 5893   2.475   1.408   1.218 -0.4065  0.6065  0.1667
 1716SOL    HW1 5894   2.397   1.355   1.234 -0.8902  2.0163  3.2000
 1716SOL    HW2 5895   2.548   1.350   1.239 -0.8826  0.6276  2.0894
 1717SOL     OW 5896   3.931   0.452   3.131  0.2456 -0.3176 -0.0390
 1717SOL    HW1 5897   3.960   0.372   3.175  0.9293 -0.5377 -0.8566
 1717SOL    HW2 5898   3.983   0.455   3.050  0.1910  0.9315 -0.0464
 1718SOL     OW 5899   0.516   6.142   4.154 -0.2722 -0.0758 -0.1765
 1718SOL    HW1 5900   0.423   6.133   4.176 -0.0373  0.2354  0.9888
 1718SOL    HW2 5901   0.562   6.122   4.235  0.5683  2.7527  0.1475
 1719SOL     OW 5902   5.809   0.275   4.206  0.2154 -0.6081  0.0793
 1719SOL    HW1 5903   5.857   0.292   4.125 -0.5645  1.9521  0.0780
 1719SOL    HW2 5904   5.850   0.333   4.270 -0.5248 -1.0792  1.0046
 1720SOL     OW 5905   3.863   0.771   2.843  0.3379  0.2520 -0.2228
 1720SOL    HW1 5906   3.930   0.733   2.900 -0.2064  0.3100  0.4536
 1720SOL    HW2 5907   3.844   0.857   2.880 -0.2320  0.1722 -0.3192
 1721SOL     OW 5908   2.904   1.547   5.341 -0.2815  0.4252  0.2723
 1721SOL    HW1 5909   2.959   1.578   5.413  0.2941 -0.4108  0.2077
 1721SOL    HW2 5910   2.966   1.513   5.277 -0.8686 -0.7593  0.3041
 1722SOL     OW 5911   4.233   2.393   5.056  0.3407  0.0088 -0.2279
 1722SOL    HW1 5912   4.238   2.485   5.081  1.2623  0.1513 -0.8837
 1722SOL    HW2 5913   4.239   2.345   5.139  1.1302  0.5174  0.0221
 1723SOL     OW 5914   2.810   5.608   5.578  0.2636  0.4979 -0.0111
 1723SOL    HW1 5915   2.836   5.613   5.486  0.5925  0.5041  0.0829
 1723SOL    HW2 5916   2.844   5.524   5.608  1.5550  1.1939  0.5375
 1724SOL     OW 5917   4.592   2.877   4.828  0.2479 -0.1296 -0.0599
 1724SOL    HW1 5918   4.681   2.912   4.820  0.0535  0.4948  0.3601
 1724SOL    HW2 5919   4.546   2.942   4.882  0.4242 -2.0010  2.5443
 1725SOL     OW 5920   5.171   2.095   5.223 -0.1981 -0.3044 -0.0521
 1725SOL    HW1 5921   5.208   2.049   5.148  0.5998  1.2644 -0.6809
 1725SOL    HW2 5922   5.247   2.130   5.270 -0.6809 -1.3109  1.5615
 1726SOL     OW 5923   1.851   3.508   2.429  0.4220 -0.1410  0.1828
 1726SOL    HW1 5924   1.785   3.516   2.499 -1.0634 -0.1814 -1.1587
 1726SOL    HW2 5925   1.928   3.473   2.474 -0.4326 -0.0506  1.8282
 1727SOL     OW 5926   1.277   4.015   4.312  0.6657 -0.1408  0.5031
 1727SOL    HW1 5927   1.310   4.035   4.400  0.7225  1.9517  0.0625
 1727SOL    HW2 5928   1.183   4.035   4.317  0.2091 -2.1713  0.6588
 1728SOL     OW 5929   0.822   0.150   4.997  0.2822 -0.0458  0.0192
 1728SOL    HW1 5930   0.793   0.200   4.921 -1.3423 -0.5674  0.2622
 1728SOL    HW2 5931   0.891   0.204   5.036  0.2707  0.8146 -1.0950
 1729SOL     OW 5932   6.066   5.165   3.611  0.7158 -0.2062 -0.4776
 1729SOL    HW1 5933   6.043   5.251   3.647  0.0411 -0.1827 -0.9619
 1729SOL    HW2 5934   6.066   5.178   3.516 -0.6631 -1.0473 -0.6154
 1730SOL     OW 5935   3.080   3.529   0.360 -0.1909  0.7161 -0.2034
 1730SOL    HW1 5936   3.012   3.508   0.424  0.7009  0.2640  0.6295
 1730SOL    HW2 5937   3.102   3.620   0.378 -0.8671  0.9985 -0.7660
 1731SOL     OW 5938   0.526   2.889   6.128  0.3135  0.2523 -0.2573
 1731SOL    HW1 5939   0.478   2.819   6.171  2.1997 -0.6315  0.4667
 1731SOL    HW2 5940   0.604   2.847   6.092  0.3797  1.5732 -1.7740
 1732SOL     OW 5941   0.847   5.689   5.839 -0.0755  0.3553  0.4402
 1732SOL    HW1 5942   0.877   5.632   5.910 -0.3387 -0.2178  0.1039
 1732SOL    HW2 5943   0.794   5.631   5.783 -0.1851  0.8876 -0.0151
 1733SOL     OW 5944   3.826   5.039   2.087  0.2829  0.0498 -0.2161
 1733SOL    HW1 5945   3.909   5.002   2.116 -0.5007 -0.1472  1.9394
 1733SOL    HW2 5946   3.760   4.977   2.118 -0.9051  2.0119  1.3773
 1734SOL     OW 5947   2.997   0.889   4.232 -0.0522 -0.4933  0.3979
 1734SOL    HW1 5948   2.998   0.806   4.184 -1.1693  0.0680 -0.6669
 1734SOL    HW2 5949   2.929   0.878   4.298 -0.2385 -0.4130  0.2207
 1735SOL     OW 5950   2.955   0.527   0.835  0.0518  0.1945  0.2571
 1735SOL    HW1 5951   2.901   0.493   0.907 -0.7620 -0.2318 -0.5417
 1735SOL    HW2 5952   2.931   0.474   0.760  1.5875  0.0131 -0.1373
 1736SOL     OW 5953   2.857   1.389   2.197  0.1168  0.5139 -0.9373
 1736SOL    HW1 5954   2.887   1.479   2.208  1.5322 -0.1893  2.1838
 1736SOL    HW2 5955   2.787   1.379   2.262 -0.7685 -0.3871 -1.9775
 1737SOL     OW 5956   6.252   5.158   2.109 -0.0264 -0.0741  0.0727
 1737SOL    HW1 5957   6.249   5.097   2.035  0.8425 -1.2078  0.9369
 1737SOL    HW2 5958   6.345   5.178   2.120 -0.2754  1.2012 -0.0073
 1738SOL     OW 5959   3.407   0.292   0.037 -0.0113 -0.0328  0.5570
 1738SOL    HW1 5960   3.439   0.377   0.065 -0.5467  0.0670  0.8845
 1738SOL    HW2 5961   3.479   0.232   0.054  0.3068  0.3284  0.4786
 1739SOL     OW 5962   5.979   6.117   1.844 -0.4071 -0.7341  0.0142
 1739SOL    HW1 5963   6.032   6.042   1.869 -1.7705 -1.1623  1.8788
 1739SOL    HW2 5964   5.956   6.102   1.753  0.9561 -1.5619 -0.2066
 1740SOL     OW 5965   2.750   3.136   2.537 -0.1407  0.4840  0.2989
 1740SOL    HW1 5966   2.740   3.088   2.455  2.7782 -1.1553  0.7611
 1740SOL    HW2 5967   2.675   3.109   2.590 -1.0325  0.0632 -1.1249
 1741SOL     OW 5968   0.487   4.808   1.637 -0.6416 -0.1426 -0.6913
 1741SOL    HW1 5969   0.471   4.720   1.601  1.2142 -0.5926 -0.5544
 1741SOL    HW2 5970   0.562   4.840   1.587 -0.7573  1.0267 -0.1423
 1742SOL     OW 5971   4.896   0.601   0.416  0.7438  0.0385  0.5531
 1742SOL    HW1 5972   4.800   0.600   0.410  0.7081 -0.1422  1.0980
 1742SOL    HW2 5973   4.924   0.537   0.350  0.4852  0.0203  0.4590
 1743SOL     OW 5974   2.763   3.349   2.732 -0.0698  0.3098 -0.5173
 1743SOL    HW1 5975   2.669   3.332   2.736  0.1042 -0.5490  0.2310
 1743SOL    HW2 5976   2.775   3.393   2.648 -1.0194 -0.3775 -1.0400
 1744SOL     OW 5977   6.288   0.707   3.528 -0.2131 -0.0475  0.0747
 1744SOL    HW1 5978   6.225   0.657   3.578 -0.9140  0.8238  0.0931
 1744SOL    HW2 5979   6.358   0.728   3.591  0.0114 -0.8543  0.0998
 1745SOL     OW 5980   5.101   4.308   5.838  0.3875  0.1149  0.4492
 1745SOL    HW1 5981   5.043   4.384   5.835 -2.3800 -1.8580  0.0927
 1745SOL    HW2 5982   5.165   4.325   5.768 -0.6176  1.7442 -0.1576
 1746SOL     OW 5983   1.063   1.553   4.229  0.1640  0.0755  0.1585
 1746SOL    HW1 5984   1.064   1.639   4.272 -0.9630  0.1724  0.0287
 1746SOL    HW2 5985   1.040   1.492   4.299  0.4759 -0.0608  0.1448
 1747SOL     OW 5986   4.496   0.437   4.971  1.0316  0.1165 -0.0869
 1747SOL    HW1 5987   4.516   0.530   4.966  0.7336  0.2449  0.9171
 1747SOL    HW2 5988   4.566   0.394   4.922  1.6391  0.8015  0.1776
 1748SOL     OW 5989   2.045   3.749   2.033 -0.1775  0.1206 -0.3521
 1748SOL    HW1 5990   2.043   3.838   1.997  2.6312  0.7932  0.9181
 1748SOL    HW2 5991   1.980   3.750   2.103  1.0406  1.7772  0.8180
 1749SOL     OW 5992   5.010   3.731   4.411 -0.2347  0.8133 -0.6652
 1749SOL    HW1 5993   4.946   3.761   4.475 -0.6793  0.2691 -0.8479
 1749SOL    HW2 5994   5.070   3.676   4.461 -0.6361  0.3124 -0.7276
 1750SOL     OW 5995   4.518   6.297   4.273 -0.0726  0.1883 -0.0043
 1750SOL    HW1 5996   4.470   6.294   4.190 -0.1936 -0.3771  0.0838
 1750SOL    HW2 5997   4.549   6.388   4.279  0.9885 -0.0690 -1.2470
 1751SOL     OW 5998   3.430   1.413   4.335  0.1794 -0.8296  0.4188
 1751SOL    HW1 5999   3.460   1.502   4.355 -3.1456  1.2230 -2.6199
 1751SOL    HW2 6000   3.504   1.371   4.292  1.9288  0.2688  2.2057
 1752SOL     OW 6001   4.919   3.922   5.697  0.4868  0.1499  0.3501
 1752SOL    HW1 6002   4.853   3.860   5.728 -1.6803  2.8539  1.5658
 1752SOL    HW2 6003   4.893   3.941   5.607  0.8802 -0.3093  0.1323
 1753SOL     OW 6004   6.202   5.666   0.750  0.1488  0.0578 -0.0797
 1753SOL    HW1 6005   6.143   5.606   0.703  0.8103 -1.4576  0.9374
 1753SOL    HW2 6006   6.159   5.751   0.746 -2.9668 -1.2702  2.0054
 1754SOL     OW 6007   0.785   4.851   3.166  0.1088 -0.2073 -0.2047
 1754SOL    HW1 6008   0.720   4.803   3.218  0.5308 -1.5509 -0.8727
 1754SOL    HW2 6009   0.830   4.783   3.115  2.5860  0.5369  0.8166
 1755SOL     OW 6010   4.044   1.546   0.605 -0.0530  0.1459 -0.1832
 1755SOL    HW1 6011   4.003   1.504   0.680  1.0492 -2.0755 -0.7585
 1755SOL    HW2 6012   4.076   1.630   0.639 -0.9403 -0.1160  1.3938
 1756SOL     OW 6013   4.879   4.660   0.960 -0.1294  0.0692  0.0741
 1756SOL    HW1 6014   4.963   4.614   0.951 -0.9435 -1.6490  0.7908
 1756SOL    HW2 6015   4.893   4.722   1.032  0.0715 -1.4209  1.3826
 1757SOL     OW 6016   0.760   5.046   3.845 -0.3013 -0.2937  0.2317
 1757SOL    HW1 6017   0.712   5.112   3.796  0.9565 -0.2071 -0.9571
 1757SOL    HW2 6018   0.821   5.008   3.781  0.5019 -1.0870  1.4215
 1758SOL     OW 6019   5.731   5.667   2.899  0.8048 -0.6582  0.1755
 1758SOL    HW1 6020   5.714   5.595   2.959 -0.0613 -0.0507  0.6786
 1758SOL    HW2 6021   5.705   5.746   2.947 -0.9464 -0.2345 -1.3481
 1759SOL     OW 6022   4.701   2.614   3.460 -0.1293  0.1314 -0.3933
 1759SOL    HW1 6023   4.618   2.583   3.425  0.6203 -1.7537 -0.6084
 1759SOL    HW2 6024   4.716   2.562   3.539  1.1460 -0.0305 -0.7152
 1760SOL     OW 6025   5.399   4.513   3.357 -0.3834  0.2421 -0.2752
 1760SOL    HW1 6026   5.455   4.535   3.283 -3.3838  3.6381 -1.8250
 1760SOL    HW2 6027   5.324   4.469   3.319 -1.2631  0.6301  0.9304
 1761SOL     OW 6028   3.051   5.911   4.612 -0.2678  0.7346 -0.5394
 1761SOL    HW1 6029   3.136   5.954   4.621  0.2097 -0.4335  0.8117
 1761SOL    HW2 6030   3.007   5.961   4.544  1.2539  1.7550 -0.8354
 1762SOL     OW 6031   2.852   3.235   3.998 -0.3236  0.3279  0.5332
 1762SOL    HW1 6032   2.798   3.273   4.067  0.1679  0.5639  0.7970
 1762SOL    HW2 6033   2.939   3.273   4.013 -0.3521  0.8899 -0.6053
 1763SOL     OW 6034   1.137   3.445   4.403 -0.2625 -0.1639 -0.6763
 1763SOL    HW1 6035   1.060   3.450   4.460  1.6568 -0.5233  2.1398
 1763SOL    HW2 6036   1.135   3.356   4.369  0.0788 -0.9657  1.2645
 1764SOL     OW 6037   1.383   0.866   5.533  0.7338  0.6552 -0.2004
 1764SOL    HW1 6038   1.318   0.906   5.475  1.4272  1.0017 -0.7608
 1764SOL    HW2 6039   1.341   0.786   5.564  0.0460  0.8644 -0.5644
 1765SOL     OW 6040   4.354   3.435   1.303 -0.1948  0.6863  0.2416
 1765SOL    HW1 6041   4.260   3.415   1.309  0.0635 -0.1112  2.5621
 1765SOL    HW2 6042   4.381   3.452   1.393  1.9030  0.9190 -0.3808
 1766SOL     OW 6043   5.493   5.785   3.862  0.1685 -0.1786 -0.1507
 1766SOL    HW1 6044   5.556   5.855   3.844  0.8348 -0.5025  0.8473
 1766SOL    HW2 6045   5.410   5.829   3.877  0.4879  0.3606  0.0349
 1767SOL     OW 6046   0.535   3.086   0.023  0.4467 -0.0142 -0.2129
 1767SOL    HW1 6047   0.598   3.061   0.090 -0.9256 -0.9048  0.7912
 1767SOL    HW2 6048   0.520   3.005  -0.027 -0.3831  0.0192 -0.0251
 1768SOL     OW 6049   2.640   1.577   5.457 -0.0150 -0.4873 -0.0634
 1768SOL    HW1 6050   2.659   1.575   5.551 -1.2995 -1.4443  0.2088
 1768SOL    HW2 6051   2.716   1.534   5.417  0.3555 -0.4459  0.5750
 1769SOL     OW 6052   1.656   0.799   0.328  0.2121  0.3358 -0.2733
 1769SOL    HW1 6053   1.736   0.746   0.330  0.0127  0.0572  1.5154
 1769SOL    HW2 6054   1.621   0.794   0.416 -0.8667  1.8937 -0.5647
 1770SOL     OW 6055   0.461   3.982   1.094 -0.2909 -0.5200  0.4978
 1770SOL    HW1 6056   0.480   4.035   1.171  1.8557  0.5987 -0.6987
 1770SOL    HW2 6057   0.533   3.919   1.089  1.3332  1.3619 -2.1386
 1771SOL     OW 6058   4.090   2.173   1.602  0.3284  0.0730 -0.3560
 1771SOL    HW1 6059   4.165   2.184   1.661  0.4291  0.4045 -0.5445
 1771SOL    HW2 6060   4.096   2.083   1.572  0.2588 -0.1079  0.1687
 1772SOL     OW 6061   4.259   2.855   4.317 -0.0364 -0.2986  0.1784
 1772SOL    HW1 6062   4.350   2.880   4.329  0.4769 -2.0462  0.1238
 1772SOL    HW2 6063   4.212   2.903   4.386  1.1611 -0.6576  1.2750
 1773SOL     OW 6064   5.624   0.676   3.034 -0.3117  0.2910 -0.2916
 1773SOL    HW1 6065   5.589   0.662   3.122  0.3757  0.9904  0.1116
 1773SOL    HW2 6066   5.560   0.637   2.975 -1.2442  0.6312  0.4797
 1774SOL     OW 6067   3.820   0.399   3.918  0.7530  0.3319 -0.4269
 1774SOL    HW1 6068   3.779   0.479   3.950 -0.2342 -0.6157  0.7808
 1774SOL    HW2 6069   3.807   0.402   3.823 -1.9424  0.2423 -0.1480
 1775SOL     OW 6070   5.861   4.701   0.973 -0.0952 -0.3375  0.8210
 1775SOL    HW1 6071   5.771   4.669   0.973  0.2187 -1.3630  2.5324
 1775SOL    HW2 6072   5.899   4.668   0.891 -1.3126  0.3126 -0.0337
 1776SOL     OW 6073   0.069   0.573   3.034  0.4015  0.3428  0.1261
 1776SOL    HW1 6074  -0.019   0.548   3.006 -0.0844 -0.0276  1.8464
 1776SOL    HW2 6075   0.059   0.597   3.126  1.8371  1.7715 -0.0393
 1777SOL     OW 6076   0.343   1.151   5.182  0.1991 -0.6098  0.0777
 1777SOL    HW1 6077   0.382   1.238   5.175 -1.7499  0.4824  1.6106
 1777SOL    HW2 6078   0.363   1.109   5.098  1.8636  0.9992 -0.4002
 1778SOL     OW 6079   4.717   0.631   4.248 -0.2496 -0.3160  0.1098
 1778SOL    HW1 6080   4.633   0.675   4.264 -0.9925 -0.5661 -2.5010
 1778SOL    HW2 6081   4.770   0.696   4.201 -0.5105 -1.3482 -1.7351
 1779SOL     OW 6082   4.334   3.629   4.273 -0.1948  0.4754  0.1483
 1779SOL    HW1 6083   4.411   3.638   4.217  0.7260  1.1848  1.4778
 1779SOL    HW2 6084   4.345   3.695   4.341 -0.9893 -0.7280  1.5030
 1780SOL     OW 6085   0.264   3.506   3.390 -0.1396 -0.9494  0.1816
 1780SOL    HW1 6086   0.241   3.484   3.480  0.6314 -0.7024  0.4480
 1780SOL    HW2 6087   0.358   3.525   3.393 -0.2874 -0.0351 -0.4932
 1781SOL     OW 6088   0.423   2.518   4.351 -0.8071 -0.0835  0.0365
 1781SOL    HW1 6089   0.455   2.508   4.262 -0.2201 -0.7382  0.3126
 1781SOL    HW2 6090   0.328   2.524   4.342 -0.7183  0.4159 -0.6730
 1782SOL     OW 6091   0.681   3.925   2.105 -0.0228  0.2009  0.2784
 1782SOL    HW1 6092   0.749   3.981   2.069  0.4278 -0.0127  0.7889
 1782SOL    HW2 6093   0.661   3.863   2.034  0.1313  0.4261  0.0391
 1783SOL     OW 6094   0.838   6.119   4.716 -0.0271  0.2369 -0.5138
 1783SOL    HW1 6095   0.914   6.094   4.663 -0.2330  1.7007 -1.5453
 1783SOL    HW2 6096   0.780   6.043   4.711  0.7367 -0.3331 -0.9187
 1784SOL     OW 6097   4.206   5.659   2.476  0.1060 -0.4083 -0.0795
 1784SOL    HW1 6098   4.233   5.589   2.416 -1.2818 -1.4324  0.4141
 1784SOL    HW2 6099   4.239   5.630   2.562 -0.0813 -0.2285  0.0521
 1785SOL     OW 6100   3.765   3.394   1.348  0.0721 -0.1905 -0.3281
 1785SOL    HW1 6101   3.826   3.344   1.293 -0.7793  0.1101 -1.5895
 1785SOL    HW2 6102   3.760   3.345   1.429  1.0438 -0.8840 -0.6653
 1786SOL     OW 6103   5.455   2.986   0.744  0.0678  0.4030 -0.3783
 1786SOL    HW1 6104   5.399   2.972   0.821  0.0436  1.4075 -0.2077
 1786SOL    HW2 6105   5.543   2.997   0.780 -0.1603  2.4502 -0.3292
 1787SOL     OW 6106   1.465   4.226   3.869  0.3482 -0.1990 -0.3282
 1787SOL    HW1 6107   1.401   4.239   3.799 -0.1433  1.5014  0.3926
 1787SOL    HW2 6108   1.417   4.180   3.937  0.3239 -0.2806 -0.4003
 1788SOL     OW 6109   2.923   2.563   1.932  0.2087 -0.4831 -0.0089
 1788SOL    HW1 6110   2.905   2.654   1.953  0.6217 -0.3431 -0.2343
 1788SOL    HW2 6111   3.003   2.566   1.880 -1.0728 -0.7444 -2.1115
 1789SOL     OW 6112   5.758   0.784   6.282  0.4054 -0.5231  0.6859
 1789SOL    HW1 6113   5.751   0.770   6.187 -0.8481  0.6415  0.5750
 1789SOL    HW2 6114   5.719   0.706   6.321 -0.0324 -0.5346  0.2257
 1790SOL     OW 6115   3.910   0.717   3.467 -0.1749 -0.3543 -0.1684
 1790SOL    HW1 6116   3.975   0.699   3.399 -0.1639  1.1813 -0.5960
 1790SOL    HW2 6117   3.825   0.705   3.424 -0.1662 -0.2354 -0.2202
 1791SOL     OW 6118   0.355   5.346   3.657 -0.5097 -0.1660 -0.2028
 1791SOL    HW1 6119   0.420   5.388   3.601  0.9947 -2.8601 -0.6627
 1791SOL    HW2 6120   0.284   5.321   3.598 -0.8062  0.5778 -0.1615
 1792SOL     OW 6121   3.929   3.061   0.631 -0.0426 -0.6634  0.3011
 1792SOL    HW1 6122   3.935   3.079   0.725 -0.8740  0.9804  0.0816
 1792SOL    HW2 6123   3.835   3.067   0.611  0.0893 -1.3235 -0.5754
 1793SOL     OW 6124   2.682   2.290   3.768  0.4988 -0.2221  0.1428
 1793SOL    HW1 6125   2.723   2.293   3.681 -0.6487  1.7648 -0.4048
 1793SOL    HW2 6126   2.670   2.197   3.786  1.4484 -0.7012 -1.4949
 1794SOL     OW 6127   1.882   2.852   3.992 -0.0216  0.3670 -0.0401
 1794SOL    HW1 6128   1.959   2.904   3.970  0.6547 -1.3357 -2.1026
 1794SOL    HW2 6129   1.860   2.876   4.082  1.9280  2.0743  0.0290
 1795SOL     OW 6130   4.056   4.002   3.617  0.5287 -0.6145  0.6981
 1795SOL    HW1 6131   4.119   4.039   3.679  1.1375  0.1032 -0.3158
 1795SOL    HW2 6132   4.107   3.943   3.562 -0.3812 -2.8109  2.0981
 1796SOL     OW 6133   3.735   5.895   3.223  0.2245  0.3437  0.3372
 1796SOL    HW1 6134   3.658   5.909   3.278  0.2434  1.8447  0.0071
 1796SOL    HW2 6135   3.742   5.974   3.170  1.8377  0.1249  0.1669
 1797SOL     OW 6136   0.509   1.299   1.844  0.2865 -0.5066  0.0890
 1797SOL    HW1 6137   0.440   1.271   1.904  0.5200  1.3409  1.2817
 1797SOL    HW2 6138   0.483   1.263   1.759 -0.7828 -1.9869  0.9981
 1798SOL     OW 6139   3.326   3.413   0.582 -0.1737  0.8122 -0.2415
 1798SOL    HW1 6140   3.276   3.478   0.533 -1.6586 -1.2643 -1.6546
 1798SOL    HW2 6141   3.386   3.375   0.518  0.6715  0.7522  0.5566
 1799SOL     OW 6142   5.271   3.383   1.618 -0.3097  0.5547 -0.1013
 1799SOL    HW1 6143   5.235   3.295   1.620  0.1881  0.3174 -1.2385
 1799SOL    HW2 6144   5.217   3.430   1.554 -0.8286  1.2084  0.7793
 1800SOL     OW 6145   1.267   5.921   6.248 -0.3179  0.0548 -0.2180
 1800SOL    HW1 6146   1.232   5.991   6.303  0.3738 -0.5228  1.0043
 1800SOL    HW2 6147   1.248   5.841   6.297  0.5208 -0.4549 -0.7060
 1801SOL     OW 6148   2.817   2.236   4.839 -0.2641  0.2304 -0.1498
 1801SOL    HW1 6149   2.890   2.293   4.815 -0.3434  0.0931 -0.7352
 1801SOL    HW2 6150   2.795   2.261   4.929  0.6444  0.1189  0.1077
 1802SOL     OW 6151   3.505   1.365   4.012 -0.3258  0.6623  0.1581
 1802SOL    HW1 6152   3.586   1.396   3.972  0.3674 -0.5968  0.5318
 1802SOL    HW2 6153   3.506   1.271   3.998 -0.8613  0.4015  1.7049
 1803SOL     OW 6154   5.700   6.261   4.683 -0.0573 -0.1957  0.4033
 1803SOL    HW1 6155   5.647   6.183   4.666 -1.2023  0.9029 -1.4074
 1803SOL    HW2 6156   5.790   6.229   4.685 -0.5547 -1.6727  0.5564
 1804SOL     OW 6157   6.134   4.187   5.182 -0.8634  0.3142  0.0960
 1804SOL    HW1 6158   6.181   4.107   5.206  0.0724 -0.0359 -2.6039
 1804SOL    HW2 6159   6.190   4.258   5.214  0.6399 -0.1256 -1.4157
 1805SOL     OW 6160   0.024   2.540   1.150 -0.5783  0.1066 -0.1026
 1805SOL    HW1 6161   0.029   2.625   1.106 -3.1261 -0.5769 -1.9433
 1805SOL    HW2 6162  -0.069   2.524   1.161 -0.1907 -2.5343  0.0312
 1806SOL     OW 6163   0.112   4.886   5.155  0.3975  0.2955 -0.6429
 1806SOL    HW1 6164   0.053   4.854   5.223 -0.3533  2.0601 -0.3921
 1806SOL    HW2 6165   0.178   4.817   5.145  1.1972  0.4217  2.6701
 1807SOL     OW 6166   0.999   5.336   0.035 -0.6324 -0.0925  0.0329
 1807SOL    HW1 6167   1.082   5.370   0.001  0.8032 -2.0385  1.3424
 1807SOL    HW2 6168   0.960   5.290  -0.040  0.2995 -0.5545 -0.1859
 1808SOL     OW 6169   5.793   3.494   5.605 -0.5647 -0.7356 -0.2779
 1808SOL    HW1 6170   5.768   3.567   5.662  0.8737  0.5057 -1.1436
 1808SOL    HW2 6171   5.885   3.478   5.625 -0.8031 -2.2414 -0.2332
 1809SOL     OW 6172   0.761   5.953   3.043  0.5760 -0.9427  0.1713
 1809SOL    HW1 6173   0.832   5.927   3.102  0.0826 -1.5367  0.5101
 1809SOL    HW2 6174   0.688   5.973   3.101  0.8254  0.9131 -0.0947
 1810SOL     OW 6175   0.094   2.432   1.863 -0.0768 -0.0756 -0.4185
 1810SOL    HW1 6176   0.031   2.502   1.852  1.2073  1.4168  1.2842
 1810SOL    HW2 6177   0.041   2.353   1.875 -1.5732  0.1152 -4.2745
 1811SOL     OW 6178   4.402   5.134   2.830  0.4525 -0.1201 -0.2030
 1811SOL    HW1 6179   4.495   5.156   2.819  0.1717  2.8232  2.1539
 1811SOL    HW2 6180   4.398   5.086   2.913 -0.2239  0.6005  0.1913
 1812SOL     OW 6181   2.696   5.157   3.399 -0.4820  0.0220  0.0989
 1812SOL    HW1 6182   2.697   5.085   3.335 -1.2545  1.4279 -1.5644
 1812SOL    HW2 6183   2.608   5.193   3.393 -0.1298  1.0563  0.9790
 1813SOL     OW 6184   4.259   2.559   1.721  0.5287 -0.2815 -0.2099
 1813SOL    HW1 6185   4.222   2.483   1.765  0.5405 -1.0350 -1.4394
 1813SOL    HW2 6186   4.188   2.624   1.721  0.5770 -0.2050  1.0007
 1814SOL     OW 6187   0.205   4.607   3.509  0.0796 -0.1695  0.1605
 1814SOL    HW1 6188   0.299   4.623   3.498 -0.1272  1.0397  0.0412
 1814SOL    HW2 6189   0.175   4.676   3.568 -0.8413 -0.1656 -0.2830
 1815SOL     OW 6190   3.601   0.381   2.560 -0.5425  0.0573 -0.7267
 1815SOL    HW1 6191   3.535   0.312   2.548 -1.6377  0.5715  1.6637
 1815SOL    HW2 6192   3.572   0.452   2.502 -1.9533  0.1381  0.0277
 1816SOL     OW 6193   3.835   3.762   3.919  0.2788  0.6191 -0.1717
 1816SOL    HW1 6194   3.837   3.711   3.839 -0.1043  1.0470 -0.4646
 1816SOL    HW2 6195   3.757   3.732   3.965 -0.1101  1.1272 -0.4816
 1817SOL     OW 6196   5.441   1.399   0.629 -0.0427 -0.2456  0.6642
 1817SOL    HW1 6197   5.354   1.430   0.655  0.3442  2.3818 -0.8178
 1817SOL    HW2 6198   5.426   1.355   0.545 -0.1537 -1.5124  1.3191
 1818SOL     OW 6199   3.513   2.336   0.230 -0.0066 -0.2189  0.0210
 1818SOL    HW1 6200   3.465   2.278   0.288 -0.5624  0.8006  0.5966
 1818SOL    HW2 6201   3.597   2.291   0.215 -0.7969 -1.6165 -0.3413
 1819SOL     OW 6202   0.854   2.003   2.551  0.1313 -0.2576  0.5874
 1819SOL    HW1 6203   0.813   2.047   2.476  1.1160 -0.9792 -0.4034
 1819SOL    HW2 6204   0.944   1.985   2.522  0.8910  0.4572  2.3583
 1820SOL     OW 6205   4.558   3.651   3.382 -0.0522 -0.1086 -0.2106
 1820SOL    HW1 6206   4.584   3.714   3.315 -0.4548 -0.4481 -0.6961
 1820SOL    HW2 6207   4.571   3.566   3.341  2.6617 -0.4905  1.1950
 1821SOL     OW 6208   5.399   0.756   5.156  0.0601  0.1356 -0.0053
 1821SOL    HW1 6209   5.439   0.769   5.069 -0.2362 -2.8513 -0.6970
 1821SOL    HW2 6210   5.324   0.816   5.157  0.8276  1.1830 -1.2522
 1822SOL     OW 6211   5.692   2.549   2.387  0.0516  0.8046  0.0755
 1822SOL    HW1 6212   5.676   2.591   2.303  0.7864  2.0513  0.5293
 1822SOL    HW2 6213   5.767   2.596   2.424  0.1140 -0.1014  1.1722
 1823SOL     OW 6214   4.343   0.306   4.391  0.2649 -0.3955 -0.3929
 1823SOL    HW1 6215   4.412   0.275   4.450  0.8126  1.9566  0.2990
 1823SOL    HW2 6216   4.329   0.397   4.415 -1.1825 -0.0188 -2.3606
 1824SOL     OW 6217   0.093   2.861   1.364 -0.2115 -0.0644  0.1699
 1824SOL    HW1 6218   0.040   2.839   1.441 -0.6122 -0.9216 -0.3449
 1824SOL    HW2 6219   0.045   2.932   1.321 -0.7066 -0.5286 -0.0450
 1825SOL     OW 6220   5.065   1.854   4.055 -1.2986  0.2756 -0.3426
 1825SOL    HW1 6221   5.146   1.901   4.037 -1.7417  0.9341 -0.6848
 1825SOL    HW2 6222   5.091   1.762   4.064 -0.0169  0.8348  3.0645
 1826SOL     OW 6223   0.222   2.965   0.999  0.2217 -0.0642  0.0814
 1826SOL    HW1 6224   0.268   3.002   0.924  0.9608 -0.8228  0.1405
 1826SOL    HW2 6225   0.250   3.018   1.073  0.6484 -0.2350  0.0438
 1827SOL     OW 6226   2.313   1.705   0.570 -0.4074 -0.2893 -0.4129
 1827SOL    HW1 6227   2.402   1.717   0.539 -0.1008 -0.6845  0.2777
 1827SOL    HW2 6228   2.291   1.615   0.547 -1.1242  0.1976 -1.7494
 1828SOL     OW 6229   2.207   3.680   3.772 -0.2174  0.2177  0.6120
 1828SOL    HW1 6230   2.170   3.605   3.819 -1.0669 -0.7954 -1.5432
 1828SOL    HW2 6231   2.295   3.651   3.747 -0.8370 -0.4320 -0.9217
 1829SOL     OW 6232   3.070   1.562   4.032 -0.0477 -0.0968 -0.1494
 1829SOL    HW1 6233   3.138   1.513   3.985 -0.9260 -0.0550 -1.5198
 1829SOL    HW2 6234   3.096   1.654   4.022 -0.7777 -0.0129 -1.5110
 1830SOL     OW 6235   1.583   2.860   1.841  0.2343 -0.1776  0.4963
 1830SOL    HW1 6236   1.497   2.901   1.843  0.3075  0.0858 -0.9365
 1830SOL    HW2 6237   1.644   2.931   1.857  0.2314 -0.2456  0.8266
 1831SOL     OW 6238   0.103   2.811   4.416 -0.2814 -0.2019  0.2349
 1831SOL    HW1 6239   0.008   2.812   4.422 -0.4295 -1.3537 -1.3442
 1831SOL    HW2 6240   0.128   2.904   4.414 -1.5495  0.1430 -1.4444
 1832SOL     OW 6241   3.892   5.403   3.890 -0.7411 -0.1373  0.4084
 1832SOL    HW1 6242   3.883   5.313   3.920 -2.4707  0.2325  1.1453
 1832SOL    HW2 6243   3.971   5.435   3.934 -0.2107 -1.2147  0.2783
 1833SOL     OW 6244   4.664   3.922   3.283 -0.2081 -0.5919  0.4507
 1833SOL    HW1 6245   4.619   3.934   3.367  1.5581 -1.1164  1.5106
 1833SOL    HW2 6246   4.594   3.932   3.218 -1.6831 -0.4508  1.9680
 1834SOL     OW 6247   2.525   1.783   1.175 -0.7288 -0.3052 -0.2930
 1834SOL    HW1 6248   2.582   1.817   1.244 -0.7710  0.4142 -0.6030
 1834SOL    HW2 6249   2.454   1.740   1.222 -0.9401  0.4759  0.1356
 1835SOL     OW 6250   0.032   6.050   1.337 -0.4897  0.4084 -0.5558
 1835SOL    HW1 6251  -0.043   6.026   1.282 -2.3322 -0.8001  2.2315
 1835SOL    HW2 6252   0.056   5.969   1.382  0.7712  1.3479  0.5687
 1836SOL     OW 6253   0.778   0.502   5.916  0.0746 -0.0678  0.4148
 1836SOL    HW1 6254   0.749   0.450   5.992  0.8452  0.4517  1.0785
 1836SOL    HW2 6255   0.789   0.438   5.846 -0.5438 -0.5715  0.7649
 1837SOL     OW 6256   4.643   4.547   5.913 -0.3595 -0.4303  0.2924
 1837SOL    HW1 6257   4.583   4.510   5.848  0.4249 -0.2537 -0.5445
 1837SOL    HW2 6258   4.604   4.523   5.997 -1.6398 -0.2637 -0.2236
 1838SOL     OW 6259   0.152   2.830   1.861 -0.1771  0.1045 -0.6639
 1838SOL    HW1 6260   0.081   2.894   1.859 -0.2486 -0.0008 -1.9191
 1838SOL    HW2 6261   0.108   2.745   1.859 -0.0348  0.0292 -0.6344
 1839SOL     OW 6262   4.654   3.885   0.730  0.1524 -0.5504  0.5427
 1839SOL    HW1 6263   4.573   3.868   0.779 -0.9067  1.5499 -0.3668
 1839SOL    HW2 6264   4.716   3.820   0.763 -1.3413 -1.0210  2.6129
 1840SOL     OW 6265   5.891   5.552   2.047  0.4576  0.3586  0.1984
 1840SOL    HW1 6266   5.831   5.611   2.001  0.6591  1.5073  1.3446
 1840SOL    HW2 6267   5.840   5.517   2.120  0.8969  0.6411  0.6539
 1841SOL     OW 6268   3.810   4.135   3.251  0.2682  0.0372 -0.4157
 1841SOL    HW1 6269   3.891   4.182   3.269  0.7187 -1.5050  2.0465
 1841SOL    HW2 6270   3.741   4.201   3.264  0.9991  0.7537 -0.0623
 1842SOL     OW 6271   0.898   5.060   6.131  0.1110 -0.7960  0.2418
 1842SOL    HW1 6272   0.815   5.017   6.109 -0.5477  0.5683 -0.0029
 1842SOL    HW2 6273   0.933   5.090   6.048 -0.2080  0.4946  0.5570
 1843SOL     OW 6274   4.086   4.082   1.475 -0.6768 -0.2938  0.1157
 1843SOL    HW1 6275   4.009   4.076   1.419  0.9355 -0.6352 -2.1957
 1843SOL    HW2 6276   4.052   4.108   1.560 -3.3409 -0.6092 -0.7825
 1844SOL     OW 6277   4.009   4.226   1.812 -0.1462 -0.1574 -0.1742
 1844SOL    HW1 6278   4.003   4.172   1.891  0.2544 -1.2848 -0.8916
 1844SOL    HW2 6279   4.097   4.263   1.815 -0.4739  0.6056  0.3971
 1845SOL     OW 6280   2.139   3.022   1.593 -0.6633 -0.0124 -0.3291
 1845SOL    HW1 6281   2.137   2.961   1.667  0.0745  1.4735  0.9786
 1845SOL    HW2 6282   2.072   3.086   1.613  0.1170  0.8802 -0.5032
 1846SOL     OW 6283   2.718   3.570   5.664 -0.6388  0.6554  0.3296
 1846SOL    HW1 6284   2.687   3.575   5.755 -1.4382  1.7396  0.0242
 1846SOL    HW2 6285   2.732   3.662   5.639  0.3360  0.3250 -0.3950
 1847SOL     OW 6286   0.917   4.977   1.303 -0.7123  0.2017 -0.4030
 1847SOL    HW1 6287   0.831   4.990   1.262 -0.6243  0.3659 -0.5418
 1847SOL    HW2 6288   0.963   5.059   1.286 -0.4728  0.0541 -0.4621
 1848SOL     OW 6289   5.287   3.346   5.953 -0.0257 -0.4078  0.4683
 1848SOL    HW1 6290   5.293   3.416   5.888  0.1082 -0.4737  0.4090
 1848SOL    HW2 6291   5.226   3.379   6.019 -0.1394 -0.3299  0.3215
 1849SOL     OW 6292   1.150   1.062   3.542  1.0608 -0.1310 -0.0175
 1849SOL    HW1 6293   1.183   0.996   3.480  0.1019 -0.2139 -0.4626
 1849SOL    HW2 6294   1.174   1.146   3.502  0.7038 -0.1890 -0.3615
 1850SOL     OW 6295   5.426   5.709   2.793  0.1471 -0.3402  0.4660
 1850SOL    HW1 6296   5.470   5.793   2.804 -0.4999 -0.0016  0.5349
 1850SOL    HW2 6297   5.482   5.660   2.733  1.5637 -0.6227  1.9537
 1851SOL     OW 6298   2.164   2.272   5.099 -0.6447  0.1205  0.0232
 1851SOL    HW1 6299   2.174   2.294   5.192 -2.6566  0.2911  0.2507
 1851SOL    HW2 6300   2.135   2.353   5.058 -1.9155 -0.4842 -0.3241
 1852SOL     OW 6301   2.667   1.297   1.929 -0.1099 -0.3499  0.2935
 1852SOL    HW1 6302   2.713   1.376   1.958 -0.3887 -0.7680  1.9413
 1852SOL    HW2 6303   2.652   1.247   2.009 -2.0823 -0.9490 -0.3924
 1853SOL     OW 6304   3.548   6.298   0.700  0.0024  0.7479 -0.1409
 1853SOL    HW1 6305   3.456   6.280   0.687 -0.3272  2.7459 -1.0411
 1853SOL    HW2 6306   3.580   6.227   0.756 -2.2685  0.4991  0.9352
 1854SOL     OW 6307   5.610   5.034   2.838 -0.4781  0.9788 -0.0027
 1854SOL    HW1 6308   5.515   5.026   2.852 -0.4406  0.8682  0.1990
 1854SOL    HW2 6309   5.649   4.984   2.910 -0.2726 -3.0498 -2.5792
 1855SOL     OW 6310   2.076   3.231   2.528 -0.1762 -0.0319  0.5018
 1855SOL    HW1 6311   2.171   3.223   2.529 -0.0998  0.7820  1.7850
 1855SOL    HW2 6312   2.059   3.324   2.542 -1.1692 -0.0077 -0.6461
 1856SOL     OW 6313   2.823   6.069   4.289  0.4808  0.8003  0.5495
 1856SOL    HW1 6314   2.858   6.143   4.239 -0.1095 -0.1462 -1.3581
 1856SOL    HW2 6315   2.755   6.107   4.344  0.7405  1.8003  0.1928
 1857SOL     OW 6316   2.547   0.326   0.315  0.4811  0.4101  0.7200
 1857SOL    HW1 6317   2.631   0.290   0.343  0.6792  1.4501  1.5576
 1857SOL    HW2 6318   2.542   0.306   0.222  2.0149  0.9606  0.4775
 1858SOL     OW 6319   3.528   0.178   5.204 -0.6602  0.1231 -0.6480
 1858SOL    HW1 6320   3.485   0.260   5.178  0.4484  0.8215 -0.3293
 1858SOL    HW2 6321   3.515   0.173   5.298 -1.1027 -0.3107 -0.7244
 1859SOL     OW 6322   5.388   3.010   1.869  0.7575  0.3638  0.4367
 1859SOL    HW1 6323   5.350   2.923   1.856 -0.2021  1.1129 -2.5939
 1859SOL    HW2 6324   5.470   3.008   1.819 -0.0843  1.6383 -1.0951
 1860SOL     OW 6325   0.412   0.732   0.788  0.0068 -0.0137 -0.1905
 1860SOL    HW1 6326   0.435   0.640   0.803  0.0342 -0.3897 -2.2285
 1860SOL    HW2 6327   0.327   0.743   0.832 -0.5909 -1.3717 -0.9469
 1861SOL     OW 6328   0.689   3.680   5.038  0.2417  0.2422 -0.6026
 1861SOL    HW1 6329   0.634   3.652   5.111  0.6716 -4.7603 -1.8270
 1861SOL    HW2 6330   0.778   3.654   5.064  0.7161  0.4375 -1.9612
 1862SOL     OW 6331   3.834   1.898   0.436 -0.0630 -0.2359 -0.4352
 1862SOL    HW1 6332   3.899   1.905   0.506 -0.0590 -1.6880 -0.2691
 1862SOL    HW2 6333   3.764   1.957   0.462 -0.3695 -1.2475  1.1448
 1863SOL     OW 6334   0.987   3.551   5.667  0.0504  0.4492 -0.0928
 1863SOL    HW1 6335   0.984   3.511   5.753 -0.1980 -0.3911 -0.4838
 1863SOL    HW2 6336   1.055   3.618   5.674  1.7475 -1.2125  0.0914
 1864SOL     OW 6337   4.324   4.967   2.405 -0.0432  0.1257  0.6947
 1864SOL    HW1 6338   4.280   5.001   2.483 -0.7928  3.0912 -0.9108
 1864SOL    HW2 6339   4.388   5.034   2.381  2.1064 -1.9450  0.2222
 1865SOL     OW 6340   1.816   3.357   4.774 -0.5655 -0.2238  0.0696
 1865SOL    HW1 6341   1.812   3.285   4.710 -1.1472 -1.4271  1.4012
 1865SOL    HW2 6342   1.908   3.359   4.801 -0.3907  0.0490 -0.5343
 1866SOL     OW 6343   4.903   4.932   2.552  0.1187 -0.0629 -0.3223
 1866SOL    HW1 6344   4.922   4.841   2.529  0.5496 -0.2245  0.6299
 1866SOL    HW2 6345   4.973   4.983   2.511  0.0670 -0.1900 -0.5698
 1867SOL     OW 6346   3.400   3.561   4.844 -0.0545 -0.0201  0.5618
 1867SOL    HW1 6347   3.427   3.571   4.935  2.0653 -2.7404  0.3976
 1867SOL    HW2 6348   3.459   3.619   4.795  0.1569 -0.0470  0.7844
 1868SOL     OW 6349   4.599   2.574   4.451 -0.6129 -0.0783 -0.5797
 1868SOL    HW1 6350   4.516   2.605   4.415 -0.4907  1.0949  0.0925
 1868SOL    HW2 6351   4.657   2.651   4.449 -0.4738 -0.0437  1.6795
 1869SOL     OW 6352   0.833   5.426   6.050  0.8599  0.4018 -0.0273
 1869SOL    HW1 6353   0.863   5.347   6.005  0.6403 -0.8889  1.9732
 1869SOL    HW2 6354   0.764   5.395   6.109 -0.2793  2.3465 -0.2650
 1870SOL     OW 6355   2.627   4.433   0.853  0.2205 -0.7275 -0.0105
 1870SOL    HW1 6356   2.713   4.430   0.897  0.4175  2.4525  0.0454
 1870SOL    HW2 6357   2.574   4.369   0.900  1.9202 -1.1574  1.4347
 1871SOL     OW 6358   4.151   2.007   0.955  0.3273  0.2719  0.4182
 1871SOL    HW1 6359   4.082   2.073   0.956  0.3628  0.3518 -0.7055
 1871SOL    HW2 6360   4.132   1.954   0.877  1.7333  0.5095 -0.1130
 1872SOL     OW 6361   3.341   0.043   5.008 -0.4747  0.1551  0.5183
 1872SOL    HW1 6362   3.420   0.059   5.060 -1.0017  1.6422  0.8839
 1872SOL    HW2 6363   3.369   0.057   4.918 -0.1541 -0.0503  0.5823
 1873SOL     OW 6364   1.491   6.288   2.244 -0.7326 -0.0423  0.2091
 1873SOL    HW1 6365   1.580   6.318   2.263 -1.0248  0.8854  0.1925
 1873SOL    HW2 6366   1.443   6.308   2.325 -0.7668 -1.2278  0.4904
 1874SOL     OW 6367   4.498   0.472   2.942  0.5797 -0.2900  0.2087
 1874SOL    HW1 6368   4.477   0.380   2.961 -0.2230  0.2783  2.3862
 1874SOL    HW2 6369   4.444   0.494   2.866 -2.1646 -0.6405  1.9077
 1875SOL     OW 6370   5.237   2.442   1.519 -0.0561 -0.5765 -0.3868
 1875SOL    HW1 6371   5.274   2.441   1.607  0.3484  1.2134 -0.4774
 1875SOL    HW2 6372   5.154   2.488   1.528  0.5923  0.8168 -1.0900
 1876SOL     OW 6373   6.028   5.467   1.522  0.0265 -0.6540 -0.0305
 1876SOL    HW1 6374   5.968   5.484   1.595 -1.0366  0.4832 -1.1201
 1876SOL    HW2 6375   6.040   5.372   1.523  0.5086 -0.6123  1.9630
 1877SOL     OW 6376   0.498   2.517   1.956 -0.2251 -0.2366  0.0720
 1877SOL    HW1 6377   0.548   2.530   1.876 -1.2053 -0.1085 -0.5267
 1877SOL    HW2 6378   0.437   2.590   1.959  0.1867  0.0871  1.2447
 1878SOL     OW 6379   2.199   5.495   0.897 -0.0958 -0.4151 -0.6094
 1878SOL    HW1 6380   2.281   5.525   0.858 -1.1536  1.2505 -1.7067
 1878SOL    HW2 6381   2.142   5.477   0.822 -1.4776  0.7731  0.1047
 1879SOL     OW 6382   5.553   5.441   4.347 -0.1164  0.0649 -0.3793
 1879SOL    HW1 6383   5.486   5.377   4.326  0.4878 -1.1223  1.0709
 1879SOL    HW2 6384   5.551   5.447   4.443 -0.1740  2.2678 -0.4611
 1880SOL     OW 6385   2.055   2.392   5.411  0.0732  0.0511  0.1678
 1880SOL    HW1 6386   1.981   2.386   5.350 -0.8535 -3.0344  1.4235
 1880SOL    HW2 6387   2.093   2.304   5.412  0.9782  0.3780  2.9038
 1881SOL     OW 6388   0.538   5.803   0.884  0.2532 -0.8801  0.6023
 1881SOL    HW1 6389   0.574   5.826   0.798  0.2333  1.9532  1.2566
 1881SOL    HW2 6390   0.590   5.728   0.912  3.0138  0.5896 -0.1999
 1882SOL     OW 6391   3.435   1.203   4.664  0.3665 -0.5648  0.3400
 1882SOL    HW1 6392   3.448   1.133   4.728 -2.2585  0.1792  1.8515
 1882SOL    HW2 6393   3.373   1.263   4.707 -0.6856  0.5258 -2.5002
 1883SOL     OW 6394   0.118   5.318   2.718  0.2303  0.0413  0.3899
 1883SOL    HW1 6395   0.051   5.329   2.785  0.0529  1.4115  0.0267
 1883SOL    HW2 6396   0.095   5.236   2.674 -0.1902 -0.3896  1.3809
 1884SOL     OW 6397   1.103   5.279   1.632 -0.3786 -1.0947 -0.1199
 1884SOL    HW1 6398   1.103   5.275   1.728 -1.6061 -1.7462 -0.1187
 1884SOL    HW2 6399   1.187   5.241   1.606  0.3342 -0.1204  0.7077
 1885SOL     OW 6400   0.946   1.684   0.776  0.1284 -0.2435 -0.5040
 1885SOL    HW1 6401   0.886   1.741   0.824  1.8105 -0.7576  2.3715
 1885SOL    HW2 6402   0.995   1.744   0.719  0.7815  1.0335  1.3131
 1886SOL     OW 6403   1.980   1.934   3.684 -0.3235  0.2424  0.4113
 1886SOL    HW1 6404   2.004   2.005   3.745 -0.6943 -1.6703  2.9495
 1886SOL    HW2 6405   2.055   1.874   3.687 -0.7345 -0.3226 -0.3534
 1887SOL     OW 6406   1.271   3.602   5.696 -0.4091  0.4920  0.9459
 1887SOL    HW1 6407   1.288   3.509   5.677 -3.0126 -0.1017  1.1677
 1887SOL    HW2 6408   1.315   3.649   5.625 -1.2718 -1.1100 -0.7499
 1888SOL     OW 6409   2.217   4.356   4.360 -0.2274 -0.7980  0.6427
 1888SOL    HW1 6410   2.176   4.360   4.274  1.0741 -0.8969 -0.0069
 1888SOL    HW2 6411   2.145   4.370   4.422 -0.8730  1.4981 -0.5083
 1889SOL     OW 6412   2.709   0.804   2.805 -1.0027 -0.7241  0.4625
 1889SOL    HW1 6413   2.648   0.734   2.782 -0.7742 -1.2570  1.4052
 1889SOL    HW2 6414   2.655   0.870   2.849 -1.1389 -0.5288  0.0019
 1890SOL     OW 6415   6.161   5.476   4.812 -0.0092  0.6220  0.1200
 1890SOL    HW1 6416   6.097   5.541   4.839  1.3321  1.9118  0.3100
 1890SOL    HW2 6417   6.243   5.503   4.854  0.9389 -0.3064 -1.0341
 1891SOL     OW 6418   2.164   2.804   2.375  0.2494 -0.0389  0.5554
 1891SOL    HW1 6419   2.084   2.819   2.325 -0.0563 -1.7701  0.4908
 1891SOL    HW2 6420   2.227   2.866   2.339 -0.1577 -0.7753 -1.5229
 1892SOL     OW 6421   2.050   3.127   5.785  0.6852 -0.2036  0.1617
 1892SOL    HW1 6422   2.063   3.054   5.724  1.8596  0.4746 -0.4209
 1892SOL    HW2 6423   2.009   3.087   5.862 -1.1310 -1.0380 -1.1570
 1893SOL     OW 6424   1.916   0.157   5.822 -0.4902  0.3903  0.2487
 1893SOL    HW1 6425   1.826   0.150   5.854 -0.9821  1.4027 -0.8372
 1893SOL    HW2 6426   1.966   0.187   5.898 -1.2214  0.6630  0.6327
 1894SOL     OW 6427   5.511   5.574   1.230 -0.7292 -0.2671  0.4085
 1894SOL    HW1 6428   5.435   5.526   1.197  0.2947 -1.2094 -0.6976
 1894SOL    HW2 6429   5.568   5.584   1.153 -0.8360  2.6575  0.5975
 1895SOL     OW 6430   1.517   3.519   5.086 -0.0363 -0.1529 -0.1111
 1895SOL    HW1 6431   1.606   3.553   5.078  0.0307  0.2255  1.6943
 1895SOL    HW2 6432   1.516   3.440   5.033  1.2117  0.1342 -0.5918
 1896SOL     OW 6433   2.583   2.363   2.944 -0.4727  0.4529 -0.3327
 1896SOL    HW1 6434   2.543   2.385   2.860 -0.6153  0.6334 -0.2164
 1896SOL    HW2 6435   2.605   2.270   2.935 -2.2874 -0.0652  0.1372
 1897SOL     OW 6436   5.448   3.000   5.150  0.1147  0.3225 -0.4062
 1897SOL    HW1 6437   5.525   3.032   5.197  0.8010  0.3402 -1.4987
 1897SOL    HW2 6438   5.374   3.026   5.204  0.9085 -0.6279  1.2133
 1898SOL     OW 6439   3.023   4.506   1.774  0.3352 -0.2725  0.5337
 1898SOL    HW1 6440   2.957   4.468   1.716  1.3888 -0.3556 -0.6450
 1898SOL    HW2 6441   3.062   4.577   1.723  2.9531 -1.8562  0.1415
 1899SOL     OW 6442   2.415   5.641   0.179  0.1415  0.1770  0.1113
 1899SOL    HW1 6443   2.497   5.665   0.135 -0.3318 -1.9136 -2.1306
 1899SOL    HW2 6444   2.347   5.657   0.114 -1.1780  0.9423  1.5999
 1900SOL     OW 6445   5.826   3.479   0.627 -0.0914  0.8547 -0.0887
 1900SOL    HW1 6446   5.734   3.499   0.648 -0.5460 -0.2683 -0.9237
 1900SOL    HW2 6447   5.865   3.453   0.711 -1.1615 -0.9045 -0.0814
 1901SOL     OW 6448   5.273   4.763   3.009 -1.0579  0.0013  0.0316
 1901SOL    HW1 6449   5.184   4.746   3.040 -0.8159 -0.2158  0.6181
 1901SOL    HW2 6450   5.290   4.695   2.945 -1.3027  0.0225 -0.0578
 1902SOL     OW 6451   5.165   1.721   3.081  0.6674  0.3802  0.2495
 1902SOL    HW1 6452   5.213   1.738   3.000  0.4643  0.5580  0.1647
 1902SOL    HW2 6453   5.205   1.779   3.146  0.5378  0.5639  0.1671
 1903SOL     OW 6454   4.126   3.622   3.887 -0.3976  0.0690  0.1045
 1903SOL    HW1 6455   4.160   3.708   3.912  1.5006 -0.1191 -1.6073
 1903SOL    HW2 6456   4.141   3.616   3.793  2.6382 -3.3946  0.5989
 1904SOL     OW 6457   3.580   1.552   1.330  0.6281  0.4594  0.3703
 1904SOL    HW1 6458   3.487   1.560   1.306  0.7406 -0.6722 -0.5898
 1904SOL    HW2 6459   3.619   1.634   1.302  0.2770  0.1409 -1.1977
 1905SOL     OW 6460   2.868   1.836   5.955 -0.4936 -0.0626  0.3458
 1905SOL    HW1 6461   2.820   1.847   6.037  0.3554  1.3022  0.7082
 1905SOL    HW2 6462   2.818   1.888   5.892  0.1610  0.9087  0.5975
 1906SOL     OW 6463   4.602   2.602   0.786  0.5855  0.5283  0.1683
 1906SOL    HW1 6464   4.641   2.524   0.746 -0.1243 -0.0631  0.6208
 1906SOL    HW2 6465   4.666   2.672   0.768 -0.5265  0.7667 -3.6889
 1907SOL     OW 6466   4.348   4.254   4.148  0.4311 -0.7205  0.4721
 1907SOL    HW1 6467   4.396   4.175   4.123  0.9456 -0.2971  0.0844
 1907SOL    HW2 6468   4.416   4.314   4.179  0.1113 -0.2290  0.2296
 1908SOL     OW 6469   5.866   4.849   4.240 -0.1355  0.7403 -0.2686
 1908SOL    HW1 6470   5.785   4.824   4.195 -1.5849  0.6503  2.1903
 1908SOL    HW2 6471   5.933   4.792   4.202 -1.0943  1.0754 -2.6368
 1909SOL     OW 6472   2.491   1.165   6.250  0.2979  0.0240  0.1314
 1909SOL    HW1 6473   2.460   1.082   6.216  2.3795 -1.4027  1.4957
 1909SOL    HW2 6474   2.411   1.212   6.276 -1.1236 -0.2290 -3.2772
 1910SOL     OW 6475   3.210   5.688   3.586 -0.4329  0.5401 -0.2358
 1910SOL    HW1 6476   3.183   5.601   3.617  0.7005 -0.1484 -1.0954
 1910SOL    HW2 6477   3.268   5.720   3.655 -0.2949  0.3015 -0.2374
 1911SOL     OW 6478   2.637   2.519   1.754  0.0165  0.8687 -0.4682
 1911SOL    HW1 6479   2.627   2.527   1.659  0.4060  0.3678 -0.5595
 1911SOL    HW2 6480   2.678   2.601   1.781  1.0054  0.5332 -0.9113
 1912SOL     OW 6481   0.299   2.354   5.701 -0.5059 -0.0710  0.1369
 1912SOL    HW1 6482   0.259   2.378   5.785 -0.7831 -1.2788  0.3689
 1912SOL    HW2 6483   0.267   2.266   5.684  0.0131 -0.0585 -0.9658
 1913SOL     OW 6484   0.216   1.232   5.671  0.0986  0.0389  0.1781
 1913SOL    HW1 6485   0.253   1.191   5.593  0.3541 -0.2106  0.4249
 1913SOL    HW2 6486   0.144   1.286   5.639  1.0681  1.0246 -0.3758
 1914SOL     OW 6487   0.778   1.052   4.409 -0.7062 -0.4079  0.3182
 1914SOL    HW1 6488   0.730   0.969   4.403 -1.2022 -0.1645  0.8646
 1914SOL    HW2 6489   0.732   1.110   4.348 -0.8338 -0.3116  0.5037
 1915SOL     OW 6490   5.026   5.499   0.756 -0.6861 -0.0068  0.2799
 1915SOL    HW1 6491   4.937   5.501   0.722 -0.9160 -0.4141  0.8481
 1915SOL    HW2 6492   5.066   5.423   0.713 -0.8495 -0.2787  0.6098
 1916SOL     OW 6493   4.816   4.758   4.894  0.0332  0.0001  0.0423
 1916SOL    HW1 6494   4.895   4.709   4.868 -0.8782 -1.0399 -0.8995
 1916SOL    HW2 6495   4.751   4.735   4.828 -1.7471 -0.9499  1.9985
 1917SOL     OW 6496   5.455   2.949   1.499 -0.0430 -0.6907 -0.1925
 1917SOL    HW1 6497   5.515   2.875   1.506 -0.0991 -0.6527  0.7995
 1917SOL    HW2 6498   5.449   2.966   1.405 -0.4903 -2.3311 -0.5021
 1918SOL     OW 6499   4.990   5.686   3.126 -0.2649  0.2394 -0.5774
 1918SOL    HW1 6500   5.055   5.646   3.068  0.2196  0.5300 -0.2384
 1918SOL    HW2 6501   4.920   5.715   3.067 -1.4374 -2.5565 -0.7180
 1919SOL     OW 6502   3.929   5.110   5.284  0.1644 -0.2404  0.1848
 1919SOL    HW1 6503   3.883   5.189   5.313  1.0333  0.0129  0.9220
 1919SOL    HW2 6504   3.859   5.047   5.266 -0.6196  1.0518 -1.6013
 1920SOL     OW 6505   4.058   1.442   1.994  0.2405 -0.2152 -0.5141
 1920SOL    HW1 6506   3.999   1.511   2.024 -0.1126 -1.1014  0.9012
 1920SOL    HW2 6507   4.146   1.474   2.014  0.0405 -0.4929  0.8822
 1921SOL     OW 6508   5.213   0.086   6.044 -0.1597  0.2994 -0.1645
 1921SOL    HW1 6509   5.165   0.012   6.005  2.9438 -1.9170 -0.1162
 1921SOL    HW2 6510   5.208   0.155   5.977  0.4087 -1.4884 -2.1781
 1922SOL     OW 6511   4.193   5.510   2.238  0.6536 -0.7855 -0.2215
 1922SOL    HW1 6512   4.129   5.440   2.247 -0.7374  0.4192 -0.2811
 1922SOL    HW2 6513   4.175   5.548   2.152  0.9637  0.0184  0.0577
 1923SOL     OW 6514   2.966   1.020   1.017 -0.6660  0.7920  0.3024
 1923SOL    HW1 6515   3.037   0.967   1.052 -1.6057  0.2422  1.4180
 1923SOL    HW2 6516   2.962   1.097   1.074  0.1105  1.6705 -0.7764
 1924SOL     OW 6517   4.386   5.927   3.420 -0.4002 -0.2781 -0.3004
 1924SOL    HW1 6518   4.323   5.897   3.355 -0.3865  0.0981 -0.4908
 1924SOL    HW2 6519   4.471   5.899   3.385 -0.2585  1.1387 -1.1594
 1925SOL     OW 6520   4.697   3.283   0.830  0.0296  0.6584 -0.2598
 1925SOL    HW1 6521   4.681   3.301   0.737  3.0851  1.3514 -0.7887
 1925SOL    HW2 6522   4.705   3.370   0.870 -1.5141  0.3695  0.7690
 1926SOL     OW 6523   2.776   0.553   3.911  0.0255 -0.2979 -0.1641
 1926SOL    HW1 6524   2.814   0.631   3.872 -0.9704  0.0037 -0.5645
 1926SOL    HW2 6525   2.847   0.488   3.910  1.4395  1.1071  1.8273
 1927SOL     OW 6526   3.895   1.702   2.004  0.6036 -0.6578  0.1132
 1927SOL    HW1 6527   3.907   1.702   1.909 -2.4012 -1.1995 -0.3590
 1927SOL    HW2 6528   3.859   1.789   2.024 -0.3972 -1.1283  0.4551
 1928SOL     OW 6529   6.116   5.892   1.886  0.2746 -0.5296 -0.5898
 1928SOL    HW1 6530   6.076   5.875   1.971 -0.1939 -0.4370 -0.7907
 1928SOL    HW2 6531   6.197   5.939   1.906 -1.2847  2.2367 -0.3211
 1929SOL     OW 6532   4.600   3.079   4.189 -0.1864 -0.5273  0.1927
 1929SOL    HW1 6533   4.537   3.148   4.209 -0.5927 -0.9848  0.5184
 1929SOL    HW2 6534   4.671   3.124   4.144 -0.4842  0.0893  0.3240
 1930SOL     OW 6535   2.255   6.048   0.124  0.1222 -0.4566  0.6035
 1930SOL    HW1 6536   2.205   5.996   0.061 -0.0900 -0.5837  0.8730
 1930SOL    HW2 6537   2.227   6.138   0.108  0.0927 -0.4853  0.4937
 1931SOL     OW 6538   0.934   3.055   3.348 -0.0726  0.3608 -0.2341
 1931SOL    HW1 6539   0.984   3.112   3.290  1.1901 -1.6988 -1.3044
 1931SOL    HW2 6540   0.981   2.972   3.347 -1.5803 -0.6090  1.5743
 1932SOL     OW 6541   4.163   3.773   5.357 -0.1645  0.7043 -0.3698
 1932SOL    HW1 6542   4.087   3.723   5.330  0.6188  0.2270 -1.8436
 1932SOL    HW2 6543   4.153   3.858   5.314 -0.2007  0.8867 -0.0063
 1933SOL     OW 6544   0.270   3.487   0.838 -0.3269  0.7815 -0.3394
 1933SOL    HW1 6545   0.193   3.460   0.889  0.6309 -1.7181 -0.0974
 1933SOL    HW2 6546   0.343   3.482   0.900  0.9188 -2.6223 -1.8731
 1934SOL     OW 6547   3.758   1.025   6.292  0.6057 -0.1301 -0.0791
 1934SOL    HW1 6548   3.753   0.962   6.364  1.1750 -1.4944 -1.1882
 1934SOL    HW2 6549   3.674   1.016   6.246  0.5492  0.1738 -0.0363
 1935SOL     OW 6550   5.723   4.088   1.530  0.4250  0.2662  0.2586
 1935SOL    HW1 6551   5.654   4.082   1.464  1.2835 -0.2423 -0.6209
 1935SOL    HW2 6552   5.712   4.175   1.568 -0.2447  0.4698 -0.3773
 1936SOL     OW 6553   4.234   1.269   4.442 -0.3453  0.2456  0.1109
 1936SOL    HW1 6554   4.206   1.254   4.352 -1.2298  0.9106  0.2551
 1936SOL    HW2 6555   4.328   1.249   4.443  0.2150  2.5301 -1.5080
 1937SOL     OW 6556   5.111   3.962   3.582  0.2388  0.3682  0.5710
 1937SOL    HW1 6557   5.141   3.934   3.668  0.9353  1.8073  0.8286
 1937SOL    HW2 6558   5.127   4.056   3.581 -0.0852  0.4273 -1.0071
 1938SOL     OW 6559   4.510   4.768   2.787 -0.2887 -0.3788  0.2867
 1938SOL    HW1 6560   4.469   4.715   2.719 -0.8255 -0.3933  0.6082
 1938SOL    HW2 6561   4.539   4.847   2.742 -0.7553 -0.3310  0.0602
 1939SOL     OW 6562   3.516   4.859   2.008  0.3437 -0.5233 -0.0029
 1939SOL    HW1 6563   3.444   4.838   1.949  0.0250  0.3425  0.0540
 1939SOL    HW2 6564   3.528   4.781   2.062 -1.8465 -0.0425  1.2931
 1940SOL     OW 6565   3.046   0.116   0.715 -0.4847 -0.4561  0.0239
 1940SOL    HW1 6566   2.969   0.079   0.757  0.3121 -1.2259  0.8633
 1940SOL    HW2 6567   3.053   0.205   0.751 -1.0068 -0.3570 -0.1107
 1941SOL     OW 6568   4.928   0.472   4.787 -0.1802 -0.3466 -0.4140
 1941SOL    HW1 6569   4.879   0.454   4.867 -3.3259  1.8514 -1.6221
 1941SOL    HW2 6570   4.978   0.551   4.806  0.4496 -0.8210 -0.0996
 1942SOL     OW 6571   0.715   2.665   6.126 -0.2113 -0.0399  0.3827
 1942SOL    HW1 6572   0.743   2.600   6.061 -1.0161 -1.9531  1.8605
 1942SOL    HW2 6573   0.629   2.635   6.155  0.9512 -0.4870  3.8039
 1943SOL     OW 6574   0.372   0.149   0.951 -0.2420 -0.0453 -0.0040
 1943SOL    HW1 6575   0.384   0.238   0.917  1.8180 -0.2287  0.0892
 1943SOL    HW2 6576   0.391   0.092   0.876  0.7483 -0.4088  0.5016
 1944SOL     OW 6577   3.549   0.789   6.243  0.0089 -0.2671  0.3832
 1944SOL    HW1 6578   3.517   0.771   6.155 -3.7937 -0.8100  1.6569
 1944SOL    HW2 6579   3.622   0.730   6.255 -0.0496 -0.9265 -2.0313
 1945SOL     OW 6580   1.701   4.648   1.921  0.7956  0.1398 -0.1573
 1945SOL    HW1 6581   1.620   4.624   1.875 -0.4892  2.1751  0.8595
 1945SOL    HW2 6582   1.771   4.633   1.858 -0.2974 -2.1470 -0.9135
 1946SOL     OW 6583   6.252   0.344   6.253 -0.1177  0.4170  0.0113
 1946SOL    HW1 6584   6.298   0.321   6.333 -1.3894  1.6923  1.1391
 1946SOL    HW2 6585   6.183   0.404   6.280 -1.9440 -0.7591 -1.7203
 1947SOL     OW 6586   3.961   0.187   3.213  0.0992  0.0682 -0.3928
 1947SOL    HW1 6587   3.998   0.200   3.300 -0.5906 -2.3518  0.3331
 1947SOL    HW2 6588   3.926   0.098   3.215 -2.1331  0.8111 -2.3400
 1948SOL     OW 6589   5.346   1.115   4.107 -0.3366 -0.7204  0.2586
 1948SOL    HW1 6590   5.351   1.165   4.188  1.5800  0.2991 -0.4239
 1948SOL    HW2 6591   5.435   1.116   4.072 -1.4094  0.5719 -2.8378
 1949SOL     OW 6592   1.417   4.359   1.143 -0.0563  0.0119 -0.0275
 1949SOL    HW1 6593   1.328   4.324   1.142 -0.0853  0.0838  0.0070
 1949SOL    HW2 6594   1.467   4.301   1.085  0.1259 -0.6948  0.8057
 1950SOL     OW 6595   2.024   5.043   5.050 -0.3537  0.6035  0.5544
 1950SOL    HW1 6596   1.951   5.023   5.108 -1.8589  0.7981 -1.1428
 1950SOL    HW2 6597   2.056   4.958   5.021  0.3875  0.5076  1.6189
 1951SOL     OW 6598   5.265   5.307   2.326 -0.6451  0.4936  0.0356
 1951SOL    HW1 6599   5.182   5.297   2.280 -0.4394 -0.5793 -0.1199
 1951SOL    HW2 6600   5.255   5.256   2.407  0.6632 -1.7033 -1.0825
 1952SOL     OW 6601   3.294   5.490   5.648  0.1229  0.0258  0.1877
 1952SOL    HW1 6602   3.229   5.514   5.714 -0.4246 -0.7177 -0.0687
 1952SOL    HW2 6603   3.311   5.570   5.600 -1.2689  0.0430 -0.3100
 1953SOL     OW 6604   1.716   2.028   3.872  0.1357  0.4823 -0.5345
 1953SOL    HW1 6605   1.806   2.015   3.903 -0.4347 -2.2423  0.2676
 1953SOL    HW2 6606   1.675   2.083   3.939  0.3144 -1.1271  0.9623
 1954SOL     OW 6607   4.764   2.306   5.470  0.2307  0.1830 -0.2215
 1954SOL    HW1 6608   4.693   2.331   5.412 -0.4488 -0.2066  0.4258
 1954SOL    HW2 6609   4.824   2.257   5.414 -1.7748 -2.6574 -0.0899
 1955SOL     OW 6610   0.956   1.394   0.293  0.3764  0.1452  0.5628
 1955SOL    HW1 6611   0.949   1.438   0.377 -1.8471 -1.5290  1.3547
 1955SOL    HW2 6612   0.866   1.388   0.261  1.2690  2.3097 -2.8760
 1956SOL     OW 6613   1.555   3.418   3.108  0.1514 -0.1586  0.9546
 1956SOL    HW1 6614   1.567   3.357   3.035 -0.0835  0.1290  0.6747
 1956SOL    HW2 6615   1.594   3.373   3.183  1.3910  0.0055  0.4378
 1957SOL     OW 6616   1.291   5.864   5.533  0.4334  0.1663 -0.3038
 1957SOL    HW1 6617   1.342   5.930   5.580  0.8718 -0.8603  0.7081
 1957SOL    HW2 6618   1.342   5.847   5.453 -0.8034  2.6143 -1.7323
 1958SOL     OW 6619   2.063   4.946   4.098  0.0430 -0.4454 -0.0922
 1958SOL    HW1 6620   2.091   5.023   4.048  1.6790 -0.3160  0.9590
 1958SOL    HW2 6621   2.094   4.963   4.187 -0.0923 -2.0690  0.2886
 1959SOL     OW 6622   3.192   5.950   3.338  0.5739 -0.0806  0.9073
 1959SOL    HW1 6623   3.127   5.937   3.269 -0.9939 -2.1156  2.6217
 1959SOL    HW2 6624   3.254   5.878   3.327 -0.0718 -0.8285  1.9716
 1960SOL     OW 6625   2.205   0.339   2.311 -0.1212  0.0569 -0.4246
 1960SOL    HW1 6626   2.138   0.304   2.370  1.3157 -2.1108  0.0886
 1960SOL    HW2 6627   2.176   0.313   2.223 -1.3137  1.6132 -0.5203
 1961SOL     OW 6628   6.168   2.322   5.929  0.4134 -0.6995 -0.2309
 1961SOL    HW1 6629   6.117   2.338   6.008 -1.7903 -0.9395 -1.5101
 1961SOL    HW2 6630   6.164   2.404   5.880 -0.3742 -1.2980 -1.1975
 1962SOL     OW 6631   3.951   0.447   0.104  0.3577  0.3309  0.3159
 1962SOL    HW1 6632   3.975   0.523   0.158  0.7213  0.0595  0.5437
 1962SOL    HW2 6633   4.018   0.445   0.036 -0.5481  1.1449 -0.6376
 1963SOL     OW 6634   0.268   2.514   4.026  0.8138  0.2481 -0.0155
 1963SOL    HW1 6635   0.243   2.531   3.935  1.9227 -0.3006 -0.4421
 1963SOL    HW2 6636   0.207   2.567   4.078 -1.0719 -0.8951 -0.9768
 1964SOL     OW 6637   3.664   0.577   2.352 -0.1237 -0.3782  0.4579
 1964SOL    HW1 6638   3.694   0.659   2.314 -0.3625 -0.1234  0.8169
 1964SOL    HW2 6639   3.731   0.513   2.327  0.2508 -0.0006  0.4941
 1965SOL     OW 6640   1.598   1.373   6.258 -0.2015  0.2898 -0.3961
 1965SOL    HW1 6641   1.606   1.364   6.353 -0.3021  0.4590 -0.3712
 1965SOL    HW2 6642   1.633   1.460   6.239  0.2768  0.0667 -0.5712
 1966SOL     OW 6643   5.115   4.946   0.026  0.0740  0.6314  0.1589
 1966SOL    HW1 6644   5.044   4.891  -0.007  1.7136 -0.3690 -1.9981
 1966SOL    HW2 6645   5.159   4.892   0.092  1.2475 -0.4702 -1.4452
 1967SOL     OW 6646   0.794   2.814   4.591 -0.2543 -0.5428  0.0851
 1967SOL    HW1 6647   0.883   2.843   4.610  0.3732 -0.8089 -2.0918
 1967SOL    HW2 6648   0.800   2.776   4.503 -3.1957  2.7880 -1.8410
 1968SOL     OW 6649   2.422   0.105   1.716 -0.6787  0.4465 -0.4850
 1968SOL    HW1 6650   2.512   0.104   1.749  0.2223 -0.3897 -2.7686
 1968SOL    HW2 6651   2.390   0.016   1.732 -0.6922  0.4109 -0.7129
 1969SOL     OW 6652   6.155   4.175   0.395  0.5983  0.0108  0.2240
 1969SOL    HW1 6653   6.229   4.178   0.334  0.4353  2.5518  0.0241
 1969SOL    HW2 6654   6.125   4.084   0.392  2.5968 -0.6736 -1.0276
 1970SOL     OW 6655   2.637   5.797   2.799 -0.3916 -0.0794  0.3125
 1970SOL    HW1 6656   2.699   5.762   2.863 -1.3521 -0.1070  1.2545
 1970SOL    HW2 6657   2.687   5.801   2.717  1.1175  0.7562  1.2293
 1971SOL     OW 6658   3.294   0.118   2.769  0.0693 -0.3705  0.2168
 1971SOL    HW1 6659   3.354   0.153   2.702  0.6707 -2.0816 -0.1900
 1971SOL    HW2 6660   3.331   0.033   2.792 -1.7275 -1.0785  0.6288
 1972SOL     OW 6661   6.191   0.797   4.945  0.3933 -0.5252  0.5753
 1972SOL    HW1 6662   6.177   0.853   5.021  0.2451  1.6772 -0.9998
 1972SOL    HW2 6663   6.285   0.804   4.927  0.1580  0.3609 -0.4228
 1973SOL     OW 6664   4.355   2.190   0.503  0.0788  0.0711 -0.5202
 1973SOL    HW1 6665   4.333   2.125   0.570  0.9801  1.7371  1.5033
 1973SOL    HW2 6666   4.274   2.200   0.452  0.4540 -4.0989 -2.4040
 1974SOL     OW 6667   3.962   3.464   4.004  0.0907 -0.1687 -0.7373
 1974SOL    HW1 6668   4.019   3.518   3.948 -0.5844  0.8568 -0.4528
 1974SOL    HW2 6669   3.884   3.448   3.951 -0.5391  0.7815 -0.1274
 1975SOL     OW 6670   0.790   2.821   0.346 -0.1029  0.4722  0.5562
 1975SOL    HW1 6671   0.759   2.907   0.375  0.0357  1.2316 -1.4503
 1975SOL    HW2 6672   0.783   2.823   0.251  2.8629 -0.5812  0.2053
 1976SOL     OW 6673   1.971   0.271   3.540  0.2070 -0.2835  0.4953
 1976SOL    HW1 6674   1.883   0.248   3.511 -0.1160 -2.5004  2.8541
 1976SOL    HW2 6675   2.028   0.208   3.496  0.6583  1.0812 -0.9464
 1977SOL     OW 6676   5.985   2.976   5.793 -0.5036  0.2816 -0.9301
 1977SOL    HW1 6677   5.971   2.974   5.698 -0.9896  0.4817 -0.8646
 1977SOL    HW2 6678   5.921   2.914   5.828 -1.2426  1.1785 -0.6330
 1978SOL     OW 6679   3.475   4.373   2.995  0.1740  0.2312 -0.1970
 1978SOL    HW1 6680   3.564   4.406   3.012 -0.3053  2.3974 -1.4585
 1978SOL    HW2 6681   3.489   4.294   2.943  1.4022  1.2699 -1.5424
 1979SOL     OW 6682   2.669   4.171   4.779 -0.4785 -0.2841 -0.0386
 1979SOL    HW1 6683   2.660   4.252   4.729 -0.2776 -0.0978  0.2230
 1979SOL    HW2 6684   2.762   4.167   4.801 -0.4756 -0.6227 -0.1083
 1980SOL     OW 6685   3.380   0.649   0.424  0.2724  0.8884 -0.5423
 1980SOL    HW1 6686   3.421   0.577   0.376  0.0567  0.3493  0.0705
 1980SOL    HW2 6687   3.288   0.624   0.431  0.4954  0.4127  1.1020
 1981SOL     OW 6688   5.119   4.965   2.091 -0.0319 -0.7525  0.2344
 1981SOL    HW1 6689   5.036   5.013   2.087  0.7898  0.6951 -0.0839
 1981SOL    HW2 6690   5.137   4.940   2.000  1.3864  1.7000 -0.2554
 1982SOL     OW 6691   4.510   3.192   3.195 -0.1499 -0.3406 -0.0380
 1982SOL    HW1 6692   4.568   3.118   3.211  1.5467  1.1605  1.1301
 1982SOL    HW2 6693   4.451   3.193   3.271  0.6179  0.1755  0.5733
 1983SOL     OW 6694   0.319   3.480   0.215  0.3365  0.0731  0.2992
 1983SOL    HW1 6695   0.293   3.497   0.306  1.4921  1.0422  0.4808
 1983SOL    HW2 6696   0.237   3.462   0.170 -0.5710  1.9771  1.0457
 1984SOL     OW 6697   0.128   3.533   0.422  0.1125 -0.4378  0.3376
 1984SOL    HW1 6698   0.054   3.556   0.478 -0.3002 -1.2642  0.1526
 1984SOL    HW2 6699   0.092   3.531   0.333  0.8339  1.1698 -0.0251
 1985SOL     OW 6700   4.898   2.835   5.723 -0.3492  0.2925 -0.3198
 1985SOL    HW1 6701   4.886   2.830   5.817 -1.2284  1.6067 -0.3390
 1985SOL    HW2 6702   4.812   2.859   5.688 -0.0377 -0.1425 -1.4611
 1986SOL     OW 6703   0.660   2.450   4.508 -0.0246 -0.3270 -0.1177
 1986SOL    HW1 6704   0.706   2.534   4.508  0.7649 -0.7349  1.0849
 1986SOL    HW2 6705   0.582   2.466   4.455 -0.8469  1.7094  1.5554
 1987SOL     OW 6706   2.274   1.439   2.551  0.0572  0.0160 -0.0963
 1987SOL    HW1 6707   2.276   1.522   2.504  3.4455 -0.1725 -0.5292
 1987SOL    HW2 6708   2.317   1.459   2.635 -0.8278 -0.9025  0.5939
 1988SOL     OW 6709   1.933   3.882   4.429 -0.3572 -0.8030 -0.2787
 1988SOL    HW1 6710   1.998   3.916   4.490 -0.8916 -1.5415  0.7340
 1988SOL    HW2 6711   1.984   3.833   4.364  0.2783  0.6011 -0.8845
 1989SOL     OW 6712   4.764   0.545   5.456 -0.2355  0.6157 -0.1743
 1989SOL    HW1 6713   4.752   0.602   5.532 -0.5862 -1.3091  1.2984
 1989SOL    HW2 6714   4.823   0.476   5.487  0.1408  0.1328 -1.8663
 1990SOL     OW 6715   3.936   4.814   1.534 -0.1614 -0.3086 -0.1537
 1990SOL    HW1 6716   3.999   4.802   1.605  0.1541 -0.7232 -0.4939
 1990SOL    HW2 6717   3.921   4.908   1.531  0.1941 -0.2407  0.1465
 1991SOL     OW 6718   4.853   2.264   3.888 -0.1029  0.0298  0.5014
 1991SOL    HW1 6719   4.903   2.184   3.873  0.9423  0.9270 -1.0940
 1991SOL    HW2 6720   4.914   2.322   3.935 -0.2047  0.5433  0.0064
 1992SOL     OW 6721   2.054   0.637   3.207 -0.2098 -0.5950  0.4678
 1992SOL    HW1 6722   2.024   0.701   3.271 -0.4660 -0.2119 -0.0270
 1992SOL    HW2 6723   2.149   0.641   3.210 -0.2239  0.1476  0.1125
 1993SOL     OW 6724   1.118   2.931   4.155  0.3074  0.4006 -0.1731
 1993SOL    HW1 6725   1.034   2.934   4.110  0.6289  0.3181 -0.7818
 1993SOL    HW2 6726   1.182   2.914   4.086  0.6236 -1.5968  0.5512
 1994SOL     OW 6727   4.061   0.480   0.592  0.1985 -0.5615 -0.0611
 1994SOL    HW1 6728   3.978   0.431   0.589  0.6525 -1.3308 -0.2741
 1994SOL    HW2 6729   4.039   0.560   0.639 -0.8847 -0.3368 -0.8805
 1995SOL     OW 6730   3.812   2.664   0.223  0.1331  0.3303 -0.0419
 1995SOL    HW1 6731   3.786   2.664   0.131  0.8254 -0.2877 -0.2481
 1995SOL    HW2 6732   3.897   2.620   0.224  1.1607  2.1990  0.6073
 1996SOL     OW 6733   3.616   6.295   5.461 -0.0257  0.0339 -0.0154
 1996SOL    HW1 6734   3.616   6.218   5.518  0.2571 -0.0919 -0.1854
 1996SOL    HW2 6735   3.539   6.345   5.489 -0.4546 -0.5221 -0.1912
 1997SOL     OW 6736   0.238   3.355   1.261  0.3070  0.0593  0.5907
 1997SOL    HW1 6737   0.187   3.333   1.338 -0.5193  0.9198  0.3065
 1997SOL    HW2 6738   0.262   3.271   1.223  0.3130 -0.3622  1.5127
 1998SOL     OW 6739   4.245   2.587   3.082  0.0149 -0.3349 -0.1230
 1998SOL    HW1 6740   4.301   2.545   3.148 -1.7894 -1.6484  0.6520
 1998SOL    HW2 6741   4.193   2.651   3.131 -0.4999 -0.4652 -0.4911
 1999SOL     OW 6742   2.920   4.262   4.529 -0.0186  0.0016  0.9812
 1999SOL    HW1 6743   2.898   4.258   4.435  0.2379 -1.8508  0.9475
 1999SOL    HW2 6744   2.843   4.302   4.569  0.1872  1.5507 -0.0901
 2000SOL     OW 6745   4.652   5.501   6.174 -0.1117 -0.4195  1.0157
 2000SOL    HW1 6746   4.568   5.478   6.214 -0.1777 -0.1970  1.0054
 2000SOL    HW2 6747   4.645   5.469   6.084 -0.3272 -0.0742  0.9067
 2001SOL     OW 6748   6.041   3.073   5.306 -0.4982 -0.2121 -0.1735
 2001SOL    HW1 6749   6.010   3.152   5.261 -0.1908 -0.6848 -1.2640
 2001SOL    HW2 6750   6.112   3.104   5.362  1.7879 -0.0453 -2.8919
 2002SOL     OW 6751   2.173   0.864   0.138 -0.0942 -0.1084 -0.2026
 2002SOL    HW1 6752   2.105   0.819   0.188  0.9111  0.6477  1.9373
 2002SOL    HW2 6753   2.202   0.935   0.194  1.3931  0.5526 -1.7059
 2003SOL     OW 6754   1.126   2.679   1.288  0.1250  0.0404  0.1185
 2003SOL    HW1 6755   1.032   2.666   1.273  0.2679 -2.2999  0.8029
 2003SOL    HW2 6756   1.167   2.651   1.205  0.2311  1.5643 -0.3720
 2004SOL     OW 6757   2.326   5.682   3.121  0.5188 -0.5709 -0.2659
 2004SOL    HW1 6758   2.321   5.588   3.105 -2.2771 -0.5338 -0.2226
 2004SOL    HW2 6759   2.300   5.721   3.037 -2.0460 -0.0237  0.6982
 2005SOL     OW 6760   6.016   3.649   1.693  0.0333 -0.8084  0.1358
 2005SOL    HW1 6761   6.035   3.580   1.629  0.7988 -1.0666  0.6385
 2005SOL    HW2 6762   5.923   3.669   1.678  0.3747 -0.3395 -1.5502
 2006SOL     OW 6763   5.391   1.185   4.364  0.5226  0.2609  0.6607
 2006SOL    HW1 6764   5.473   1.228   4.388  2.3735 -1.2790 -2.2512
 2006SOL    HW2 6765   5.401   1.095   4.395 -0.0141  0.0363  0.1944
 2007SOL     OW 6766   3.079   4.014   4.517 -0.6239  0.2212  0.3590
 2007SOL    HW1 6767   3.147   4.041   4.455 -0.3206 -1.0739  0.0881
 2007SOL    HW2 6768   3.016   4.085   4.516  1.9473  2.7743  2.5969
 2008SOL     OW 6769   5.746   3.090   3.939  0.0839 -1.0358  0.7573
 2008SOL    HW1 6770   5.826   3.110   3.989  0.5027 -1.3878  0.2315
 2008SOL    HW2 6771   5.712   3.010   3.979  0.7975 -1.7068  0.0422
 2009SOL     OW 6772   2.361   3.088   5.937  0.4304  0.1169  0.3951
 2009SOL    HW1 6773   2.297   3.151   5.970  0.2248  0.5983 -0.8921
 2009SOL    HW2 6774   2.310   3.025   5.886  0.7053 -0.8083  1.2295
 2010SOL     OW 6775   0.605   0.996   5.369  0.1277  0.3268  0.2213
 2010SOL    HW1 6776   0.569   0.980   5.457  1.6609 -1.5300  0.5589
 2010SOL    HW2 6777   0.650   0.915   5.346 -1.4102  0.1984 -2.9250
 2011SOL     OW 6778   1.108   1.953   1.207  0.1588  0.2054 -0.3942
 2011SOL    HW1 6779   1.202   1.969   1.212  0.4198 -1.2433 -0.4362
 2011SOL    HW2 6780   1.082   1.991   1.123  1.1509 -1.3895 -1.4715
 2012SOL     OW 6781   5.669   0.593   0.126  0.3873 -0.3095  0.1647
 2012SOL    HW1 6782   5.576   0.595   0.102  0.3398  0.8091  0.3915
 2012SOL    HW2 6783   5.669   0.568   0.218  0.3313 -0.5123  0.1117
 2013SOL     OW 6784   0.882   0.495   4.657 -0.0389  0.3281  0.2152
 2013SOL    HW1 6785   0.849   0.455   4.576 -2.3303  1.6184  0.4389
 2013SOL    HW2 6786   0.829   0.456   4.726  0.0253  1.2423  0.7931
 2014SOL     OW 6787   2.832   5.006   2.777  0.1439 -0.1268  0.2378
 2014SOL    HW1 6788   2.907   5.065   2.769 -0.4421  0.6070  0.0251
 2014SOL    HW2 6789   2.870   4.918   2.777  1.1594  0.2710  2.0716
 2015SOL     OW 6790   1.801   0.027   4.838  0.4808 -0.4242 -0.0666
 2015SOL    HW1 6791   1.738   0.059   4.773  0.4707 -0.9980 -0.3436
 2015SOL    HW2 6792   1.881   0.011   4.787 -0.2393 -3.2893 -0.4770
 2016SOL     OW 6793   1.101   5.980   5.388  0.0545  0.1823 -0.4377
 2016SOL    HW1 6794   1.169   5.920   5.420  0.7373  0.2752 -1.6414
 2016SOL    HW2 6795   1.146   6.064   5.379 -0.1400  0.1845 -1.5084
 2017SOL     OW 6796   5.744   2.408   5.970  0.0253 -0.3911 -0.0781
 2017SOL    HW1 6797   5.696   2.484   6.004 -1.6875 -1.0189 -0.9368
 2017SOL    HW2 6798   5.780   2.437   5.886 -0.0353 -0.3013 -0.0728
 2018SOL     OW 6799   0.712   2.557   2.162 -0.0739  0.4063  0.3959
 2018SOL    HW1 6800   0.707   2.646   2.196 -0.4696  0.7560 -0.5370
 2018SOL    HW2 6801   0.632   2.546   2.111  1.1844  0.4754 -1.7326
 2019SOL     OW 6802   4.846   5.968   5.949 -0.3301  0.2002 -0.5772
 2019SOL    HW1 6803   4.798   6.025   5.888  1.9083  1.4055 -1.3235
 2019SOL    HW2 6804   4.855   5.886   5.902 -1.1738  0.1483 -0.6549
 2020SOL     OW 6805   1.971   5.352   5.891 -0.2154  0.2497  0.1871
 2020SOL    HW1 6806   1.946   5.370   5.800  1.1017  1.3199  0.0039
 2020SOL    HW2 6807   2.035   5.420   5.912 -1.0780  0.5099  2.2010
 2021SOL     OW 6808   4.819   6.298   1.001 -0.2408 -0.4810  0.5408
 2021SOL    HW1 6809   4.823   6.286   1.096  0.8078  0.7735  0.6839
 2021SOL    HW2 6810   4.808   6.392   0.989 -0.5270 -0.6442 -0.5819
 2022SOL     OW 6811   4.812   5.693   2.922 -0.3471  0.2013  0.3390
 2022SOL    HW1 6812   4.725   5.728   2.941 -0.9537 -0.7325 -0.6272
 2022SOL    HW2 6813   4.842   5.742   2.845  0.0165  0.5505  0.6930
 2023SOL     OW 6814   3.010   3.022   1.863 -0.0628 -0.1630  0.5671
 2023SOL    HW1 6815   3.070   3.095   1.877  1.1060 -0.8991 -0.3544
 2023SOL    HW2 6816   2.925   3.063   1.849  0.5960  1.0418 -0.0680
 2024SOL     OW 6817   5.258   2.544   0.639 -0.2128  0.9656  0.1994
 2024SOL    HW1 6818   5.212   2.461   0.650  0.9560  0.3352  0.5157
 2024SOL    HW2 6819   5.201   2.609   0.680 -1.3559  0.3975 -0.4593
 2025SOL     OW 6820   5.254   2.258   0.419  0.0431  0.1011  0.0749
 2025SOL    HW1 6821   5.329   2.316   0.433  1.9210 -2.1435 -0.0771
 2025SOL    HW2 6822   5.221   2.283   0.333 -0.5225  2.2565  0.8591
 2026SOL     OW 6823   4.344   5.369   5.730  0.0872  0.0315 -0.3111
 2026SOL    HW1 6824   4.406   5.313   5.683 -1.2800 -1.4446 -0.4029
 2026SOL    HW2 6825   4.313   5.430   5.663  2.5746  1.9105  0.0795
 2027SOL     OW 6826   3.566   6.015   0.045  0.2683 -0.6791  0.1802
 2027SOL    HW1 6827   3.489   6.041   0.095 -0.2522  0.5921 -1.2380
 2027SOL    HW2 6828   3.569   6.075  -0.029  2.4877 -0.8549  0.0581
 2028SOL     OW 6829   5.953   4.429   5.591 -0.3563 -0.1639 -0.2778
 2028SOL    HW1 6830   5.909   4.508   5.621 -1.5094 -0.8116 -0.1789
 2028SOL    HW2 6831   6.043   4.437   5.622 -0.7837  0.5210  0.8183
 2029SOL     OW 6832   3.453   6.170   4.243  0.0634 -0.9086 -0.3339
 2029SOL    HW1 6833   3.438   6.229   4.169  0.2077 -2.4745 -1.6640
 2029SOL    HW2 6834   3.401   6.208   4.315  0.9340  1.3592 -0.8110
 2030SOL     OW 6835   0.804   4.772   3.561  0.3985 -0.3349 -0.5421
 2030SOL    HW1 6836   0.722   4.819   3.544  1.1554  0.4988 -2.0979
 2030SOL    HW2 6837   0.871   4.840   3.562  1.0850 -0.9870  0.8599
 2031SOL     OW 6838   4.993   0.978   4.860 -0.1141  0.2638  0.2515
 2031SOL    HW1 6839   5.057   0.908   4.847  0.2728  0.0763  2.6630
 2031SOL    HW2 6840   5.034   1.056   4.823 -0.6147 -0.7114 -2.6275
 2032SOL     OW 6841   5.197   1.002   1.687  0.3796  0.2934 -0.3584
 2032SOL    HW1 6842   5.143   1.082   1.684  0.0950  0.0884 -0.9087
 2032SOL    HW2 6843   5.151   0.941   1.629  0.7773 -0.1564 -0.1985
 2033SOL     OW 6844   0.212   2.051   2.595  0.3927  0.3808 -0.2915
 2033SOL    HW1 6845   0.217   1.961   2.628 -0.0600  0.3481 -0.3036
 2033SOL    HW2 6846   0.300   2.086   2.609  0.5975 -0.0895 -0.3626
 2034SOL     OW 6847   3.439   0.469   3.028  0.1388 -0.3953  0.0266
 2034SOL    HW1 6848   3.499   0.494   2.958  0.5991 -0.1201  0.5107
 2034SOL    HW2 6849   3.353   0.499   2.998  0.3273 -0.2984 -0.4232
 2035SOL     OW 6850   5.529   1.463   4.296  0.4618 -0.3152 -0.4666
 2035SOL    HW1 6851   5.568   1.391   4.345 -3.0738 -2.1438 -0.0377
 2035SOL    HW2 6852   5.525   1.536   4.358 -2.5357 -2.1231  1.7058
 2036SOL     OW 6853   0.157   3.986   2.115  0.2404 -0.2134 -0.1380
 2036SOL    HW1 6854   0.161   4.078   2.089  0.4387 -0.3873 -0.7401
 2036SOL    HW2 6855   0.243   3.966   2.151  0.7676 -0.6010 -1.5488
 2037SOL     OW 6856   3.455   0.772   1.721 -0.0022  0.3601  0.3076
 2037SOL    HW1 6857   3.517   0.710   1.759 -0.2030 -0.8537 -1.2505
 2037SOL    HW2 6858   3.375   0.722   1.709 -0.6471  1.3388  0.3570
 2038SOL     OW 6859   4.123   0.415   3.390  0.5744 -0.2359 -0.0858
 2038SOL    HW1 6860   4.112   0.501   3.350 -1.4086 -1.0584 -1.4445
 2038SOL    HW2 6861   4.050   0.407   3.451  1.1422 -0.7024  0.5539
 2039SOL     OW 6862   0.675   1.922   5.502  0.1037 -0.3279 -0.0013
 2039SOL    HW1 6863   0.736   1.917   5.428 -0.5295 -1.5324 -0.4557
 2039SOL    HW2 6864   0.661   1.831   5.528 -1.0100 -0.0290  0.4996
 2040SOL     OW 6865   5.203   5.044   1.078  0.0453  0.1134 -0.1201
 2040SOL    HW1 6866   5.279   5.071   1.026  0.8140 -0.9938  0.3966
 2040SOL    HW2 6867   5.236   5.038   1.167 -0.9630  0.7905  0.3251
 2041SOL     OW 6868   3.390   4.073   5.973 -0.4274  0.1810  0.1217
 2041SOL    HW1 6869   3.430   4.087   6.059  1.0670  0.5135 -0.5976
 2041SOL    HW2 6870   3.316   4.133   5.971 -0.3184  0.3587  1.0733
 2042SOL     OW 6871   5.830   5.197   4.258 -0.2482  0.5996  0.8832
 2042SOL    HW1 6872   5.919   5.231   4.263  0.0956 -0.1785  0.2260
 2042SOL    HW2 6873   5.841   5.103   4.247 -1.1009  0.7298 -1.5914
 2043SOL     OW 6874   4.091   0.101   1.934 -0.2640 -0.2740  0.0595
 2043SOL    HW1 6875   4.080   0.017   1.890 -1.8543 -0.2600  0.3503
 2043SOL    HW2 6876   4.161   0.145   1.885 -0.5547 -1.0982 -1.1473
 2044SOL     OW 6877   1.006   0.314   2.413  0.4644  0.2221 -0.0225
 2044SOL    HW1 6878   0.977   0.352   2.496 -0.1524 -1.9907  0.8729
 2044SOL    HW2 6879   1.100   0.327   2.412  0.3246  1.3282  0.4519
 2045SOL     OW 6880   3.829   1.699   2.551 -0.0947  0.4954  0.9463
 2045SOL    HW1 6881   3.740   1.666   2.565 -0.5601  1.2188 -0.1469
 2045SOL    HW2 6882   3.816   1.789   2.521  1.0138  0.6149  0.8008
 2046SOL     OW 6883   1.465   3.924   2.638  0.1006 -0.5086  0.3585
 2046SOL    HW1 6884   1.393   3.861   2.645  0.3755 -0.8385  0.2651
 2046SOL    HW2 6885   1.505   3.925   2.725  1.0049 -1.5691 -0.0304
 2047SOL     OW 6886   2.750   0.012   2.195 -0.1535  0.3534 -0.1820
 2047SOL    HW1 6887   2.730  -0.062   2.253 -1.5912  0.2147 -0.8001
 2047SOL    HW2 6888   2.672   0.020   2.140  0.5371  1.4880 -1.0271
 2048SOL     OW 6889   5.722   1.234   1.648  0.2786  0.5646 -0.0029
 2048SOL    HW1 6890   5.770   1.314   1.670  0.7565  0.5061 -0.7841
 2048SOL    HW2 6891   5.632   1.263   1.635  0.1508  0.7302  1.1599
 2049SOL     OW 6892   3.871   4.724   3.115 -0.0734  0.5983  0.0744
 2049SOL    HW1 6893   3.965   4.708   3.126 -0.4740 -2.9232 -0.5594
 2049SOL    HW2 6894   3.857   4.810   3.154  3.2643  0.9257  0.8783
 2050SOL     OW 6895   0.258   2.710   2.884 -0.0597 -0.3638  0.3872
 2050SOL    HW1 6896   0.252   2.805   2.876  0.9080 -0.4211 -1.4992
 2050SOL    HW2 6897   0.167   2.680   2.885 -0.4218  0.4251 -1.9208
 2051SOL     OW 6898   0.007   5.043   5.920 -0.3772  0.1903  0.7027
 2051SOL    HW1 6899  -0.064   4.981   5.935 -0.9260  0.7140  0.2798
 2051SOL    HW2 6900  -0.029   5.128   5.946  0.0932  0.4598  0.4880
 2052SOL     OW 6901   1.825   3.425   4.448  0.0886  0.3333 -0.1273
 2052SOL    HW1 6902   1.918   3.434   4.467 -0.0863  0.4508  0.6962
 2052SOL    HW2 6903   1.798   3.345   4.493 -0.4050  0.7993  0.4175
 2053SOL     OW 6904   0.518   4.295   2.039  0.3486 -0.2754  0.2739
 2053SOL    HW1 6905   0.460   4.227   2.005  0.0697  0.4491 -0.7412
 2053SOL    HW2 6906   0.500   4.297   2.133 -0.8438 -0.4902  0.0675
 2054SOL     OW 6907   2.199   3.079   4.728 -0.3956  0.2420  0.0603
 2054SOL    HW1 6908   2.172   3.114   4.813 -0.5434 -0.6639  0.3985
 2054SOL    HW2 6909   2.261   3.144   4.694 -1.2459  1.2031  0.3110
 2055SOL     OW 6910   5.256   0.925   3.391 -0.7940  0.4518  0.1285
 2055SOL    HW1 6911   5.307   0.857   3.436  1.4804  2.6275  1.0669
 2055SOL    HW2 6912   5.188   0.949   3.454 -0.6844  0.0693  0.3980
 2056SOL     OW 6913   1.656   0.415   2.218  0.5508 -0.0486 -0.4806
 2056SOL    HW1 6914   1.679   0.450   2.304 -0.6364  0.2355 -0.2669
 2056SOL    HW2 6915   1.740   0.394   2.178  1.1125 -0.6240  0.9263
 2057SOL     OW 6916   4.861   0.194   1.749  0.1778 -0.4904  0.2041
 2057SOL    HW1 6917   4.847   0.102   1.726  0.5410 -0.9576  1.7347
 2057SOL    HW2 6918   4.932   0.222   1.692 -0.5234 -0.8875 -0.8945
 2058SOL     OW 6919   4.689   3.772   2.349 -0.4745  0.3130  0.1904
 2058SOL    HW1 6920   4.748   3.764   2.274  0.3940  2.3953  0.5710
 2058SOL    HW2 6921   4.745   3.760   2.425 -1.3961 -2.0490  0.5842
 2059SOL     OW 6922   5.785   3.927   5.438  0.1266  0.4289 -0.4521
 2059SOL    HW1 6923   5.695   3.953   5.457  0.0737  0.2298 -0.4183
 2059SOL    HW2 6924   5.839   3.977   5.500 -0.0385 -0.1740  0.1933
 2060SOL     OW 6925   5.123   3.417   3.404  0.1343 -0.1663  0.3589
 2060SOL    HW1 6926   5.092   3.328   3.386 -0.7181 -0.3558  2.4492
 2060SOL    HW2 6927   5.217   3.414   3.388  0.0819 -1.3968  0.1980
 2061SOL     OW 6928   1.971   3.170   1.976  0.3242  0.5961  0.1469
 2061SOL    HW1 6929   2.000   3.259   1.994 -0.1556  0.6469  0.6752
 2061SOL    HW2 6930   2.014   3.117   2.043  0.1331  0.5138  0.2054
 2062SOL     OW 6931   2.241   1.698   1.808 -0.4495 -0.1263 -0.6799
 2062SOL    HW1 6932   2.251   1.645   1.728 -0.8411 -2.1432  0.5322
 2062SOL    HW2 6933   2.328   1.700   1.846 -0.4615  0.0043 -0.6599
 2063SOL     OW 6934   0.668   5.257   3.686  0.1650 -0.1159 -0.0405
 2063SOL    HW1 6935   0.648   5.231   3.596  1.9731 -1.3662 -0.1346
 2063SOL    HW2 6936   0.648   5.350   3.689 -2.0203 -0.4950 -1.0886
 2064SOL     OW 6937   3.358   2.427   1.060 -0.0428 -0.2026  0.3784
 2064SOL    HW1 6938   3.303   2.383   0.995  0.6690 -1.4861  0.5977
 2064SOL    HW2 6939   3.378   2.512   1.021 -0.9313 -0.3145 -0.3616
 2065SOL     OW 6940   4.765   2.588   5.855 -0.2307 -0.1523  0.0499
 2065SOL    HW1 6941   4.842   2.588   5.912  0.0753 -2.3061 -0.3010
 2065SOL    HW2 6942   4.800   2.578   5.767 -0.9008 -1.0979 -0.1185
 2066SOL     OW 6943   5.597   4.840   1.555 -0.2494  0.2356 -0.2878
 2066SOL    HW1 6944   5.656   4.769   1.580  0.0906  0.3568 -0.7258
 2066SOL    HW2 6945   5.558   4.810   1.473 -2.3718 -0.7540  1.0104
 2067SOL     OW 6946   5.748   0.418   4.933 -0.0715  0.0754  0.1827
 2067SOL    HW1 6947   5.661   0.454   4.918  0.1003 -0.2978 -1.8949
 2067SOL    HW2 6948   5.744   0.329   4.900  0.6749 -0.5042  1.5568
 2068SOL     OW 6949   5.130   2.371   5.399 -0.0789 -0.0131 -0.0273
 2068SOL    HW1 6950   5.209   2.395   5.350 -0.3511  0.8348 -0.0638
 2068SOL    HW2 6951   5.125   2.435   5.470 -1.3761  0.6857 -0.7187
 2069SOL     OW 6952   0.290   3.193   6.289 -0.4721  0.5065  0.1621
 2069SOL    HW1 6953   0.376   3.157   6.314 -1.1457 -0.5551  1.0432
 2069SOL    HW2 6954   0.310   3.252   6.216  0.8059 -1.1153 -0.8909
 2070SOL     OW 6955   2.340   0.898   5.908 -0.0341  0.0476 -0.7153
 2070SOL    HW1 6956   2.361   0.941   5.992  0.0645  1.8313 -1.6011
 2070SOL    HW2 6957   2.420   0.850   5.886  0.1325  0.0027 -0.0489
 2071SOL     OW 6958   1.150   3.684   1.573 -0.2071  0.0986 -0.2038
 2071SOL    HW1 6959   1.117   3.635   1.648 -0.9816  0.4146 -0.3229
 2071SOL    HW2 6960   1.080   3.678   1.508  0.2898  0.1554 -0.7555
 2072SOL     OW 6961   4.565   0.508   2.471 -0.6666 -0.6085 -0.0249
 2072SOL    HW1 6962   4.582   0.503   2.377  1.0905 -1.7594  0.3116
 2072SOL    HW2 6963   4.538   0.419   2.495  0.9906 -0.9075  0.8867
 2073SOL     OW 6964   5.989   0.735   0.844  0.1734 -0.1513 -0.4053
 2073SOL    HW1 6965   5.925   0.679   0.799 -0.3766  0.7462 -0.7526
 2073SOL    HW2 6966   5.961   0.824   0.826  1.2749  0.2612 -0.1861
 2074SOL     OW 6967   2.835   4.405   6.231 -0.0081  0.6023 -0.2744
 2074SOL    HW1 6968   2.911   4.375   6.181 -0.4303  1.4328 -1.4628
 2074SOL    HW2 6969   2.854   4.497   6.251  1.0179 -0.1632  2.8319
 2075SOL     OW 6970   2.599   5.861   0.547  0.0034  0.4805 -0.0755
 2075SOL    HW1 6971   2.536   5.837   0.615 -2.2115  0.5073 -1.9910
 2075SOL    HW2 6972   2.610   5.782   0.495  0.5784  0.8258 -0.4887
 2076SOL     OW 6973   3.316   6.125   0.227 -0.2655  0.1865  0.1606
 2076SOL    HW1 6974   3.273   6.085   0.151  0.2889  0.6729 -0.4208
 2076SOL    HW2 6975   3.256   6.193   0.257  0.5578  1.6702 -1.3699
 2077SOL     OW 6976   5.436   2.266   5.205 -0.1776 -0.0157  0.4044
 2077SOL    HW1 6977   5.508   2.236   5.149 -1.3299 -2.0775 -0.0454
 2077SOL    HW2 6978   5.426   2.197   5.271 -2.2669 -0.1906 -0.0369
 2078SOL     OW 6979   0.431   0.912   5.871  0.8881  0.2332 -0.2164
 2078SOL    HW1 6980   0.515   0.870   5.888  1.0101  0.3667 -0.4845
 2078SOL    HW2 6981   0.375   0.840   5.840  1.0463  0.2329 -0.5056
 2079SOL     OW 6982   4.040   5.938   3.528  0.2272 -0.6120  0.0748
 2079SOL    HW1 6983   4.071   5.875   3.593  2.9993  0.0122 -0.4799
 2079SOL    HW2 6984   4.036   5.888   3.446  0.1549 -0.6103  0.0776
 2080SOL     OW 6985   3.701   2.714   2.676 -0.2005  0.2268 -0.1297
 2080SOL    HW1 6986   3.668   2.628   2.649  0.8006 -0.2121  0.0004
 2080SOL    HW2 6987   3.767   2.695   2.742  0.2422  1.0835 -0.3055
 2081SOL     OW 6988   5.643   0.523   0.387 -0.1578 -0.2051 -0.0159
 2081SOL    HW1 6989   5.672   0.434   0.407  1.7864  0.1881 -0.8784
 2081SOL    HW2 6990   5.576   0.542   0.453 -0.6473 -2.2942  0.1719
 2082SOL     OW 6991   0.604   4.523   4.287 -0.1587  0.0317  0.3245
 2082SOL    HW1 6992   0.696   4.508   4.269 -0.2324  2.5683 -3.0744
 2082SOL    HW2 6993   0.603   4.572   4.369  1.5991  0.7815 -0.0710
 2083SOL     OW 6994   2.071   6.138   3.662 -0.1654 -0.7026 -0.2015
 2083SOL    HW1 6995   2.085   6.159   3.569  2.5792 -0.9820  0.0479
 2083SOL    HW2 6996   2.040   6.047   3.662  0.8321 -1.0610 -0.8440
 2084SOL     OW 6997   2.865   2.821   2.019  0.3594  0.4478 -0.4273
 2084SOL    HW1 6998   2.921   2.880   1.969  0.7958 -0.7849 -1.4650
 2084SOL    HW2 6999   2.854   2.864   2.104  1.7150  1.3848 -0.6942
 2085SOL     OW 7000   4.348   1.495   4.223 -0.0804 -0.0702  0.0622
 2085SOL    HW1 7001   4.383   1.434   4.158 -0.1383  0.3895 -0.3999
 2085SOL    HW2 7002   4.285   1.442   4.273 -0.6831 -0.2097 -0.8179
 2086SOL     OW 7003   4.171   1.380   3.674  0.3005  0.1207  0.4185
 2086SOL    HW1 7004   4.102   1.424   3.724  0.7496  0.1766  1.0020
 2086SOL    HW2 7005   4.170   1.290   3.707 -0.3971 -0.2434 -0.5410
 2087SOL     OW 7006   3.746   3.441   0.212 -0.1298 -0.0352  0.1195
 2087SOL    HW1 7007   3.799   3.370   0.248 -0.8260 -0.7703 -0.2512
 2087SOL    HW2 7008   3.800   3.479   0.143  0.6042  0.3957  0.9072
 2088SOL     OW 7009   1.948   4.396   5.214 -0.2976 -0.0574  0.6873
 2088SOL    HW1 7010   1.931   4.317   5.265  0.6583  0.4914  1.9298
 2088SOL    HW2 7011   1.888   4.391   5.140 -0.5117 -1.7440  0.9490
 2089SOL     OW 7012   3.773   3.090   2.238 -0.0354 -0.4785  0.0517
 2089SOL    HW1 7013   3.817   3.082   2.323  0.5285 -2.1062 -0.3562
 2089SOL    HW2 7014   3.682   3.108   2.260  0.1428 -0.6826  1.0077
 2090SOL     OW 7015   3.644   5.194   1.281 -0.8679 -0.5301  0.1800
 2090SOL    HW1 7016   3.695   5.250   1.341 -1.8533 -0.0211  0.5597
 2090SOL    HW2 7017   3.688   5.109   1.284 -0.2453 -0.1929  0.7665
 2091SOL     OW 7018   5.492   4.072   3.298 -0.0336 -0.1934  0.9600
 2091SOL    HW1 7019   5.402   4.086   3.269  0.4127  0.0456 -0.3970
 2091SOL    HW2 7020   5.539   4.151   3.269  1.2773 -1.7111 -1.4245
 2092SOL     OW 7021   2.436   0.165   4.046 -0.2624  0.0665 -0.4678
 2092SOL    HW1 7022   2.471   0.252   4.030 -0.1829  0.2252  0.5199
 2092SOL    HW2 7023   2.510   0.115   4.082 -0.0980 -0.6379 -1.7085
 2093SOL     OW 7024   3.341   0.641   3.991  0.1407 -0.1727 -0.4725
 2093SOL    HW1 7025   3.296   0.575   4.043 -0.7242  0.2013 -0.7193
 2093SOL    HW2 7026   3.391   0.692   4.055  0.7349 -0.9782 -0.2702
 2094SOL     OW 7027   0.493   5.275   0.178 -0.6199 -0.0517  0.3504
 2094SOL    HW1 7028   0.510   5.192   0.133 -1.8870  0.2651 -0.7863
 2094SOL    HW2 7029   0.512   5.256   0.270  0.4156 -1.2109 -0.0728
 2095SOL     OW 7030   3.391   1.139   2.296  0.2933 -0.3750  1.0180
 2095SOL    HW1 7031   3.479   1.123   2.331  0.8018 -1.0321 -0.4727
 2095SOL    HW2 7032   3.388   1.089   2.214 -1.6407 -0.7587  1.2617
 2096SOL     OW 7033   2.305   5.824   4.112  0.9489  0.0885 -0.1496
 2096SOL    HW1 7034   2.289   5.759   4.044  1.5540 -0.4026  0.1708
 2096SOL    HW2 7035   2.235   5.809   4.176  0.2495  0.6917 -0.7473
 2097SOL     OW 7036   3.554   5.067   1.841  0.0217  0.0824  0.0964
 2097SOL    HW1 7037   3.598   5.043   1.760 -0.9072  0.4165 -0.5113
 2097SOL    HW2 7038   3.563   4.989   1.897  0.9352 -0.0353 -0.1984
 2098SOL     OW 7039   2.250   0.238   2.041  0.0492  0.2944  0.0525
 2098SOL    HW1 7040   2.254   0.260   1.948 -0.2863 -0.8560 -0.2431
 2098SOL    HW2 7041   2.183   0.170   2.048  1.3036 -0.9356  0.8632
 2099SOL     OW 7042   2.536   1.896   2.525  0.0388  0.2080  0.8131
 2099SOL    HW1 7043   2.500   1.951   2.595  0.7387  1.9420 -0.1416
 2099SOL    HW2 7044   2.589   1.831   2.571 -1.8775 -0.5860  2.0540
 2100SOL     OW 7045   2.846   2.317   1.825  0.5886 -0.3994  0.1680
 2100SOL    HW1 7046   2.777   2.382   1.817  1.2852  0.2596 -0.9242
 2100SOL    HW2 7047   2.916   2.362   1.872  1.0719 -0.3354 -0.5874
 2101SOL     OW 7048   3.952   0.822   2.583  0.3775  0.4539 -0.7858
 2101SOL    HW1 7049   3.895   0.798   2.657  0.5464  0.5978 -0.6078
 2101SOL    HW2 7050   3.904   0.891   2.538  0.1549  0.1864 -0.9616
 2102SOL     OW 7051   2.904   6.144   3.634 -0.8048 -0.7018 -0.4259
 2102SOL    HW1 7052   2.989   6.131   3.592 -0.3606 -0.3925  0.3633
 2102SOL    HW2 7053   2.924   6.189   3.716 -1.7346 -0.5919 -0.2470
 2103SOL     OW 7054   2.979   0.025   2.036  0.4656 -0.3826  0.4218
 2103SOL    HW1 7055   2.897   0.003   2.079  0.7467 -1.5359  0.4105
 2103SOL    HW2 7056   3.045  -0.026   2.083  1.1124  0.1977  0.1614
 2104SOL     OW 7057   0.837   0.388   3.531  0.1746 -0.2009  0.4661
 2104SOL    HW1 7058   0.877   0.380   3.618  0.9968  1.1646  0.2481
 2104SOL    HW2 7059   0.909   0.377   3.470 -0.3579 -0.8934 -0.0612
 2105SOL     OW 7060   0.073   4.392   3.398  0.6988  0.4495  0.3650
 2105SOL    HW1 7061   0.029   4.427   3.321 -1.3383  0.0418  1.2957
 2105SOL    HW2 7062   0.104   4.470   3.445 -1.2606  0.9093  0.9553
 2106SOL     OW 7063   0.576   1.186   3.075  0.3090  1.0287 -0.0773
 2106SOL    HW1 7064   0.602   1.230   3.156  1.3781  0.6575 -0.2104
 2106SOL    HW2 7065   0.633   1.223   3.008  0.5823  0.1217 -0.3557
 2107SOL     OW 7066   3.785   1.677   5.422  0.4026 -0.7831  0.2972
 2107SOL    HW1 7067   3.753   1.751   5.370  1.5484 -2.1084 -2.4858
 2107SOL    HW2 7068   3.859   1.712   5.471  0.2400  0.1602 -0.1049
 2108SOL     OW 7069   4.082   2.073   0.285 -0.7581  0.3941  0.1882
 2108SOL    HW1 7070   4.108   1.981   0.294 -0.3702  0.5122  0.2733
 2108SOL    HW2 7071   4.049   2.096   0.372  0.4458  0.7378  0.5682
 2109SOL     OW 7072   1.213   0.399   4.634 -0.3441 -0.6019 -0.0985
 2109SOL    HW1 7073   1.177   0.471   4.685  2.2634  2.0703 -1.7320
 2109SOL    HW2 7074   1.137   0.357   4.595 -2.1323 -0.3476  2.7717
 2110SOL     OW 7075   2.186   4.713   4.200  0.5361  0.4830  0.1477
 2110SOL    HW1 7076   2.163   4.803   4.174  0.4668 -0.0112 -1.6662
 2110SOL    HW2 7077   2.237   4.723   4.280  0.4187  2.1289  0.0509
 2111SOL     OW 7078   6.029   5.910   2.147 -0.8296  0.2625  0.1577
 2111SOL    HW1 7079   5.938   5.934   2.166 -0.3134  0.9446  1.9410
 2111SOL    HW2 7080   6.041   5.826   2.191 -0.4465  0.4134  0.3405
 2112SOL     OW 7081   1.410   2.909   1.100  0.1486 -0.1816 -0.0491
 2112SOL    HW1 7082   1.433   3.002   1.105 -0.1802 -0.1546  1.2860
 2112SOL    HW2 7083   1.486   2.868   1.059  0.5333  0.5911 -0.1362
 2113SOL     OW 7084   4.369   1.394   2.814  0.0929  0.1191 -0.0816
 2113SOL    HW1 7085   4.433   1.365   2.879 -0.4953 -0.6880  0.1619
 2113SOL    HW2 7086   4.288   1.404   2.863 -0.1491  0.3726 -0.5290
 2114SOL     OW 7087   3.745   3.058   5.910 -0.2028  0.5208 -0.5861
 2114SOL    HW1 7088   3.723   2.977   5.955  0.2141 -0.3309 -1.8826
 2114SOL    HW2 7089   3.696   3.125   5.958 -0.9847 -0.5547  0.1710
 2115SOL     OW 7090   2.927   5.266   4.909  0.0856 -0.1716 -0.3724
 2115SOL    HW1 7091   3.006   5.315   4.931  0.7721 -1.8666  1.1221
 2115SOL    HW2 7092   2.934   5.184   4.958 -1.3408 -1.5080 -2.2238
 2116SOL     OW 7093   3.138   2.251   0.297  0.0874 -0.3838 -0.0833
 2116SOL    HW1 7094   3.214   2.240   0.354 -0.6677 -3.1305  0.5549
 2116SOL    HW2 7095   3.148   2.339   0.260  4.0019 -0.8877 -0.6770
 2117SOL     OW 7096   1.667   4.086   0.333 -0.1379 -0.6680 -0.9654
 2117SOL    HW1 7097   1.671   4.163   0.389  0.1106 -0.4109 -1.3351
 2117SOL    HW2 7098   1.576   4.056   0.341 -1.2299  1.5993 -3.3828
 2118SOL     OW 7099   6.053   5.032   2.576 -0.1724  0.0126  0.1786
 2118SOL    HW1 7100   5.979   5.035   2.516  0.8988 -0.2709 -1.2098
 2118SOL    HW2 7101   6.046   4.946   2.618  0.4118 -0.8172 -1.3636
 2119SOL     OW 7102   4.698   1.948   1.108  0.4760 -0.0933 -0.1393
 2119SOL    HW1 7103   4.711   1.915   1.019 -0.1156 -0.5361 -0.0654
 2119SOL    HW2 7104   4.775   2.003   1.124  0.7597 -0.2845 -0.7958
 2120SOL     OW 7105   3.843   1.875   1.169 -0.2888  0.3179 -0.1993
 2120SOL    HW1 7106   3.891   1.849   1.248 -2.0069 -0.8344  0.5347
 2120SOL    HW2 7107   3.899   1.845   1.097 -0.2305 -1.7916  0.6239
 2121SOL     OW 7108   0.851   3.458   3.537 -0.1024  0.5424  0.4610
 2121SOL    HW1 7109   0.851   3.506   3.620 -0.0327  2.4126 -0.5623
 2121SOL    HW2 7110   0.846   3.526   3.470  2.6019 -0.6998 -1.1715
 2122SOL     OW 7111   0.722   4.826   1.505 -0.0835 -0.3582 -0.3537
 2122SOL    HW1 7112   0.678   4.771   1.441 -0.4092  1.2859 -1.5952
 2122SOL    HW2 7113   0.815   4.816   1.485  0.0449 -2.2437  0.9603
 2123SOL     OW 7114   1.624   0.462   3.137 -0.0150  0.2160  0.1554
 2123SOL    HW1 7115   1.627   0.510   3.220 -0.3375  1.3557 -0.4778
 2123SOL    HW2 7116   1.702   0.490   3.090  1.1881 -1.8360  0.7867
 2124SOL     OW 7117   1.749   0.367   4.612 -0.1361  0.6299 -0.0646
 2124SOL    HW1 7118   1.727   0.286   4.659 -0.9186  0.4539 -0.7205
 2124SOL    HW2 7119   1.762   0.339   4.521 -1.3616  1.3798 -0.4808
 2125SOL     OW 7120   2.392   2.073   2.706  0.6980 -0.2135 -0.7710
 2125SOL    HW1 7121   2.407   2.044   2.796 -3.0287 -0.3721 -0.0477
 2125SOL    HW2 7122   2.413   2.167   2.707 -0.7781  0.1350  0.7228
 2126SOL     OW 7123   0.643   6.015   5.160 -0.3072  0.1599  0.1747
 2126SOL    HW1 7124   0.562   5.965   5.148 -0.7634  0.5470  1.4532
 2126SOL    HW2 7125   0.659   6.055   5.075 -0.4569 -1.3588 -0.6146
 2127SOL     OW 7126   1.358   4.190   3.139 -1.1114  0.0737  0.2635
 2127SOL    HW1 7127   1.283   4.156   3.091 -2.1340  1.8817  0.4997
 2127SOL    HW2 7128   1.433   4.173   3.081 -1.9295 -0.2196 -0.7360
 2128SOL     OW 7129   1.294   1.832   2.309 -0.1222 -0.6135  0.3523
 2128SOL    HW1 7130   1.324   1.743   2.292  1.5841 -0.2447  1.2922
 2128SOL    HW2 7131   1.336   1.857   2.391 -0.2167  1.2207 -0.1076
 2129SOL     OW 7132   2.677   1.235   2.878  0.6272  0.1588  0.2400
 2129SOL    HW1 7133   2.749   1.232   2.941  2.2901  0.0137 -1.5533
 2129SOL    HW2 7134   2.627   1.155   2.893  1.6298 -0.3911  0.6709
 2130SOL     OW 7135   0.678   0.979   1.176  0.2498  0.1403 -0.6905
 2130SOL    HW1 7136   0.626   0.983   1.256 -0.6010 -1.9049 -1.0794
 2130SOL    HW2 7137   0.721   1.064   1.172 -1.7090  1.2913  0.5592
 2131SOL     OW 7138   4.252   3.876   5.593 -0.1994 -0.4621 -0.0237
 2131SOL    HW1 7139   4.220   3.833   5.513 -0.2038 -0.1388 -0.1992
 2131SOL    HW2 7140   4.346   3.857   5.594  0.7316  3.0233 -2.4155
 2132SOL     OW 7141   0.391   6.084   0.905 -0.3569 -0.6357  0.1847
 2132SOL    HW1 7142   0.327   6.056   0.970  0.1820 -0.9330  0.5908
 2132SOL    HW2 7143   0.366   6.036   0.826 -2.6678  1.7038 -0.6568
 2133SOL     OW 7144   1.403   2.610   1.651  0.4983  0.4502 -0.1336
 2133SOL    HW1 7145   1.366   2.651   1.728 -0.1921  0.7714 -0.6279
 2133SOL    HW2 7146   1.404   2.679   1.585  1.7113  0.3736 -0.2277
 2134SOL     OW 7147   0.374   1.713   3.300 -0.2644 -0.7242  0.1656
 2134SOL    HW1 7148   0.299   1.655   3.290 -1.3159  0.5446  0.4779
 2134SOL    HW2 7149   0.337   1.801   3.298  1.4785  0.0714 -2.3598
 2135SOL     OW 7150   1.575   0.795   1.922 -0.5039  0.0973 -0.3588
 2135SOL    HW1 7151   1.535   0.720   1.965 -1.8847  1.2986  0.5715
 2135SOL    HW2 7152   1.661   0.764   1.895 -0.5362 -1.4523  1.1063
 2136SOL     OW 7153   3.055   5.631   3.893 -0.7189  0.2207  0.0461
 2136SOL    HW1 7154   3.080   5.548   3.851  0.9012  1.7671 -2.2553
 2136SOL    HW2 7155   3.125   5.649   3.955 -0.0267  0.7884 -0.8754
 2137SOL     OW 7156   2.016   5.175   3.389 -0.4541  0.4275  0.3874
 2137SOL    HW1 7157   1.979   5.245   3.334 -0.0711 -1.1773 -2.0796
 2137SOL    HW2 7158   1.956   5.101   3.376  1.6665 -1.1603 -0.9713
 2138SOL     OW 7159   1.646   5.173   1.594 -0.0881  0.8945  0.0197
 2138SOL    HW1 7160   1.645   5.268   1.606  1.0729  0.7911  1.2144
 2138SOL    HW2 7161   1.674   5.161   1.503  3.2804  1.7355  0.8140
 2139SOL     OW 7162   0.849   5.021   4.108  0.3581  0.1222  0.4672
 2139SOL    HW1 7163   0.822   5.043   4.018 -2.9985  1.4553  1.6274
 2139SOL    HW2 7164   0.784   4.957   4.137  0.0717  1.2684  2.5637
 2140SOL     OW 7165   5.135   1.207   4.768 -0.0753 -0.4584 -0.2155
 2140SOL    HW1 7166   5.140   1.172   4.679  0.5750 -1.8708  0.3372
 2140SOL    HW2 7167   5.223   1.240   4.786  0.1465 -1.2917  0.3072
 2141SOL     OW 7168   4.757   4.595   5.399  0.4497 -0.2696  0.6193
 2141SOL    HW1 7169   4.678   4.644   5.376  1.0908  0.6160  0.2438
 2141SOL    HW2 7170   4.828   4.659   5.393  1.2948 -1.2050  0.2837
 2142SOL     OW 7171   3.339   2.261   4.157 -0.1280 -0.3216  0.2244
 2142SOL    HW1 7172   3.356   2.193   4.092 -0.7164 -1.2347  1.0068
 2142SOL    HW2 7173   3.245   2.260   4.169 -0.4543  2.2455 -1.4350
 2143SOL     OW 7174   0.310   0.975   1.258 -0.0545  0.1905 -0.4624
 2143SOL    HW1 7175   0.373   0.963   1.187  0.3734  0.7244 -0.1799
 2143SOL    HW2 7176   0.292   0.887   1.289 -0.1487 -0.0391 -1.1469
 2144SOL     OW 7177   5.867   3.924   3.612  0.1023 -0.2072  0.1775
 2144SOL    HW1 7178   5.843   3.974   3.690 -0.5040 -0.7850  0.3635
 2144SOL    HW2 7179   5.944   3.970   3.578  0.2750  0.1506  1.0163
 2145SOL     OW 7180   1.506   5.530   2.502 -0.2036  0.3186  0.0502
 2145SOL    HW1 7181   1.431   5.476   2.527  0.8508 -1.4730 -0.4688
 2145SOL    HW2 7182   1.578   5.467   2.491  1.6835  2.0646  1.6339
 2146SOL     OW 7183   3.565   2.868   1.147 -0.3675  1.3125 -0.0062
 2146SOL    HW1 7184   3.652   2.859   1.185 -0.4601  0.6201  0.0614
 2146SOL    HW2 7185   3.507   2.885   1.221 -0.6590 -0.7704  0.2994
 2147SOL     OW 7186   5.267   0.061   1.701 -0.4992 -0.8083  0.9101
 2147SOL    HW1 7187   5.207  -0.011   1.679 -2.7702  0.6795  1.9086
 2147SOL    HW2 7188   5.236   0.135   1.650  0.4179  0.0459  1.5573
 2148SOL     OW 7189   0.236   1.580   2.955 -0.3874 -0.8906 -0.2157
 2148SOL    HW1 7190   0.332   1.586   2.957 -0.5048  1.7592  0.7459
 2148SOL    HW2 7191   0.216   1.504   3.009  1.1377 -0.3521  1.1943
 2149SOL     OW 7192   1.745   5.715   1.735  0.2266 -0.3247  0.2510
 2149SOL    HW1 7193   1.650   5.729   1.733  0.5857  2.4252 -0.9086
 2149SOL    HW2 7194   1.775   5.741   1.648  2.1749 -0.2012  0.9268
 2150SOL     OW 7195   2.129   5.912   1.506 -0.4501  0.1368 -0.2821
 2150SOL    HW1 7196   2.108   5.896   1.598 -1.7346 -0.4391 -0.6401
 2150SOL    HW2 7197   2.189   5.842   1.482  1.5751  1.4717  0.6185
 2151SOL     OW 7198   1.320   2.467   3.089  0.0108  0.4118  0.0160
 2151SOL    HW1 7199   1.274   2.515   3.020 -0.3974 -0.4530 -0.3288
 2151SOL    HW2 7200   1.265   2.479   3.167  0.2646  1.0534  0.1055
 2152SOL     OW 7201   0.216   6.015   4.861 -0.4994 -0.1378 -0.3066
 2152SOL    HW1 7202   0.293   5.975   4.901 -1.4154 -1.1987  0.4771
 2152SOL    HW2 7203   0.230   6.109   4.870  0.1219 -0.3309  1.0028
 2153SOL     OW 7204   0.990   1.451   0.952 -0.3252 -0.0564 -0.9879
 2153SOL    HW1 7205   0.968   1.502   0.874  1.0007 -0.0413 -1.3798
 2153SOL    HW2 7206   0.928   1.480   1.018  0.0951  1.7440 -1.3308
 2154SOL     OW 7207   0.640   1.927   3.402 -0.0008  0.2230 -0.6648
 2154SOL    HW1 7208   0.560   1.946   3.353  1.1324 -1.0065 -3.1644
 2154SOL    HW2 7209   0.692   2.008   3.395 -0.5315  0.6506  0.0707
 2155SOL     OW 7210   2.791   3.226   6.013 -0.0337  0.1150  0.4262
 2155SOL    HW1 7211   2.842   3.307   6.002  1.7123 -1.1701 -1.7070
 2155SOL    HW2 7212   2.715   3.238   5.956  0.8703 -0.2012 -0.8843
 2156SOL     OW 7213   2.400   1.140   4.043 -0.0458  0.2316  0.0753
 2156SOL    HW1 7214   2.352   1.185   3.972 -3.3360  0.9200  2.4851
 2156SOL    HW2 7215   2.479   1.192   4.055 -0.1338  0.9685 -2.0544
 2157SOL     OW 7216   2.514   5.124   1.360 -0.5504  0.6528  0.0488
 2157SOL    HW1 7217   2.452   5.127   1.287 -0.8214  2.2173  0.3266
 2157SOL    HW2 7218   2.581   5.061   1.331 -0.8779  0.9166 -1.3598
 2158SOL     OW 7219   2.068   1.600   3.864 -0.4723 -0.5044 -0.0759
 2158SOL    HW1 7220   2.091   1.657   3.791 -2.9884  0.0777 -0.5020
 2158SOL    HW2 7221   2.098   1.647   3.942 -0.5787  0.3445 -0.5476
 2159SOL     OW 7222   1.890   1.079   1.980 -0.6200 -0.0587  0.7744
 2159SOL    HW1 7223   1.865   1.012   2.044 -0.8745  0.5934  1.3702
 2159SOL    HW2 7224   1.970   1.118   2.016  0.0151 -0.6307 -0.0098
 2160SOL     OW 7225   2.651   6.120   2.347  0.5271  0.3313  0.0055
 2160SOL    HW1 7226   2.687   6.122   2.436  0.2972  0.5526  0.0939
 2160SOL    HW2 7227   2.563   6.085   2.357  0.2284  1.0509 -0.0348
 2161SOL     OW 7228   1.245   1.387   3.670 -0.1577  0.2623 -0.2545
 2161SOL    HW1 7229   1.152   1.410   3.677  0.4895  3.2182 -0.1881
 2161SOL    HW2 7230   1.287   1.432   3.743  1.4064 -0.8021 -0.4435
 2162SOL     OW 7231   4.634   0.264   1.902  0.4920 -0.5141 -0.4669
 2162SOL    HW1 7232   4.604   0.355   1.893  2.1315  0.0326 -0.7415
 2162SOL    HW2 7233   4.712   0.259   1.846  0.4224 -2.1072 -0.4673
 2163SOL     OW 7234   2.262   1.445   0.567 -0.1222 -0.4412  0.1222
 2163SOL    HW1 7235   2.247   1.451   0.473 -1.2672 -1.6240  0.2028
 2163SOL    HW2 7236   2.316   1.367   0.578  0.1620 -0.2025  0.4314
 2164SOL     OW 7237   4.823   6.293   1.954  0.0422 -1.1984 -0.4161
 2164SOL    HW1 7238   4.804   6.356   2.024  0.5547 -1.4995  0.0020
 2164SOL    HW2 7239   4.789   6.335   1.875  0.3770 -0.3839 -0.1449
 2165SOL     OW 7240   1.561   6.073   4.278 -0.0583  0.1741  0.2645
 2165SOL    HW1 7241   1.546   5.987   4.317  0.2723 -0.3379 -0.7226
 2165SOL    HW2 7242   1.473   6.112   4.272 -0.2394 -0.1926  0.4909
 2166SOL     OW 7243   0.223   4.084   1.074  0.3384 -0.0321 -0.1035
 2166SOL    HW1 7244   0.231   4.097   1.169 -2.3991  0.2569  0.1549
 2166SOL    HW2 7245   0.305   4.041   1.049  1.6194  0.9120  2.1824
 2167SOL     OW 7246   5.669   3.273   2.892 -0.1581 -0.0703  0.6706
 2167SOL    HW1 7247   5.617   3.210   2.842  1.4250 -1.0707  0.2535
 2167SOL    HW2 7248   5.616   3.290   2.970 -1.4423 -0.5071 -0.0717
 2168SOL     OW 7249   4.405   2.530   2.540 -0.4133  0.8510  0.3399
 2168SOL    HW1 7250   4.402   2.558   2.632  0.2779 -0.6909  0.8527
 2168SOL    HW2 7251   4.409   2.612   2.491 -2.9129  1.8128  1.5493
 2169SOL     OW 7252   2.595   5.916   4.790  0.0971  0.3167 -0.6873
 2169SOL    HW1 7253   2.622   5.830   4.757  0.8376  0.4380 -0.3987
 2169SOL    HW2 7254   2.676   5.966   4.797 -0.4659  1.5319 -2.2148
 2170SOL     OW 7255   1.196   0.875   3.341 -0.1346 -0.5796  0.2808
 2170SOL    HW1 7256   1.122   0.833   3.297 -0.7233 -0.2762  0.9425
 2170SOL    HW2 7257   1.230   0.938   3.277 -1.8461  0.8468  0.6832
 2171SOL     OW 7258   6.061   1.637   0.103  0.1599 -0.4127 -0.2911
 2171SOL    HW1 7259   6.151   1.652   0.073 -0.1622  1.4952 -0.4388
 2171SOL    HW2 7260   6.007   1.672   0.033 -0.8670 -4.2941 -1.6691
 2172SOL     OW 7261   4.186   5.740   5.326  0.1159  0.1890  0.0384
 2172SOL    HW1 7262   4.234   5.813   5.364 -1.1983  0.0644  2.0670
 2172SOL    HW2 7263   4.167   5.768   5.236  0.1270  2.1184  0.5898
 2173SOL     OW 7264   1.760   0.874   5.002 -0.2800 -0.3374 -0.1982
 2173SOL    HW1 7265   1.779   0.798   5.057 -0.8992  0.0761  0.6061
 2173SOL    HW2 7266   1.817   0.864   4.926  0.2210 -1.1827  0.2816
 2174SOL     OW 7267   1.987   1.824   2.460  0.2489 -0.0436 -0.1372
 2174SOL    HW1 7268   2.081   1.838   2.471 -0.0936  1.9139  0.7364
 2174SOL    HW2 7269   1.947   1.867   2.535 -1.4333  0.6538 -1.3584
 2175SOL     OW 7270   1.624   5.060   0.221 -0.4227  0.2398 -0.1284
 2175SOL    HW1 7271   1.673   5.098   0.294 -0.6992 -1.4452  0.9908
 2175SOL    HW2 7272   1.547   5.020   0.261 -0.4745 -0.9118 -1.2912
 2176SOL     OW 7273   0.700   1.434   2.920  0.1276  0.3261 -0.1148
 2176SOL    HW1 7274   0.759   1.471   2.854  0.4302 -0.2300 -0.1699
 2176SOL    HW2 7275   0.717   1.484   2.999 -0.0778  0.8546 -0.4024
 2177SOL     OW 7276   0.872   5.363   2.291 -0.1731 -0.5316 -0.8283
 2177SOL    HW1 7277   0.951   5.380   2.342 -0.8934 -0.2357  0.2329
 2177SOL    HW2 7278   0.872   5.431   2.224  0.0739 -0.0448 -0.3444
 2178SOL     OW 7279   0.169   5.867   5.899 -0.3494 -0.0793 -0.7136
 2178SOL    HW1 7280   0.181   5.946   5.846 -0.2397  0.2481 -0.2079
 2178SOL    HW2 7281   0.074   5.854   5.901 -0.3883  0.2261 -0.5281
 2179SOL     OW 7282   1.036   1.471   4.519  0.3045  1.1191 -0.6298
 2179SOL    HW1 7283   1.079   1.484   4.604  1.0256  1.3911 -1.0309
 2179SOL    HW2 7284   1.024   1.559   4.485 -0.3096  1.0264 -0.6532
 2180SOL     OW 7285   1.571   2.025   3.402  0.6113 -0.1135  0.0634
 2180SOL    HW1 7286   1.592   2.117   3.421 -0.8331  0.2346  0.1440
 2180SOL    HW2 7287   1.595   1.978   3.482  1.6694  0.1359 -0.0998
 2181SOL     OW 7288   3.375   1.742   4.504 -0.5311 -0.1922 -0.6478
 2181SOL    HW1 7289   3.319   1.720   4.578 -0.0515  1.1751  0.1610
 2181SOL    HW2 7290   3.424   1.819   4.533  2.2144 -1.6384 -1.1132
 2182SOL     OW 7291   5.021   6.293   0.789 -0.8894 -0.0464 -0.4297
 2182SOL    HW1 7292   4.968   6.275   0.866 -2.1603 -0.6431 -1.3980
 2182SOL    HW2 7293   4.989   6.377   0.756 -1.1755 -0.3426 -0.9381
 2183SOL     OW 7294   1.380   2.747   1.385  0.1632  0.1863  0.0114
 2183SOL    HW1 7295   1.405   2.831   1.348 -0.2361  0.3162  0.0366
 2183SOL    HW2 7296   1.289   2.736   1.360  0.8911 -1.4396 -2.2835
 2184SOL     OW 7297   3.644   3.949   4.694 -0.9311 -0.0164  0.6113
 2184SOL    HW1 7298   3.551   3.951   4.717 -1.0992  1.7375 -0.1137
 2184SOL    HW2 7299   3.689   3.982   4.772 -1.0078  0.2674  0.5339
 2185SOL     OW 7300   3.925   4.420   4.489  0.2393  0.5965 -0.1071
 2185SOL    HW1 7301   3.868   4.388   4.419 -0.4680 -0.2458  0.8265
 2185SOL    HW2 7302   3.954   4.506   4.459 -0.0465  0.2499 -1.4257
 2186SOL     OW 7303   5.133   2.966   6.168 -0.6880  0.0031  0.7839
 2186SOL    HW1 7304   5.161   2.915   6.244 -2.4637  0.2888  1.6745
 2186SOL    HW2 7305   5.117   3.054   6.202  0.1087  0.5927 -0.2871
 2187SOL     OW 7306   1.396   3.615   4.479  0.2385 -0.0824  0.2223
 2187SOL    HW1 7307   1.336   3.560   4.427  0.4485  0.4234 -0.5681
 2187SOL    HW2 7308   1.452   3.552   4.524 -1.5025 -0.6098  1.7836
 2188SOL     OW 7309   1.887   2.983   6.030 -0.1879 -0.9629  0.1474
 2188SOL    HW1 7310   1.967   2.938   6.003  0.2893  0.7952 -1.5336
 2188SOL    HW2 7311   1.816   2.932   5.990  0.1704 -1.6094  0.3224
 2189SOL     OW 7312   5.885   5.245   4.773  0.5396  0.0695  0.2644
 2189SOL    HW1 7313   5.889   5.163   4.723 -1.6539 -0.0328  0.1524
 2189SOL    HW2 7314   5.842   5.307   4.714 -1.8835  0.0220  1.8594
 2190SOL     OW 7315   6.031   0.627   4.025  0.3205 -0.1969  0.8026
 2190SOL    HW1 7316   6.062   0.688   4.092 -0.6794  1.7302 -0.3808
 2190SOL    HW2 7317   6.083   0.548   4.038  2.6702  1.3707  1.5447
 2191SOL     OW 7318   0.075   4.851   5.702  0.9496  0.0835  0.1066
 2191SOL    HW1 7319   0.047   4.937   5.733  1.0245 -0.2275  1.0799
 2191SOL    HW2 7320   0.010   4.791   5.739  0.8851 -0.2760 -0.5855
 2192SOL     OW 7321   5.940   6.093   5.613 -0.3855 -0.6836  0.1874
 2192SOL    HW1 7322   5.851   6.058   5.612 -0.2026 -1.1536 -0.1658
 2192SOL    HW2 7323   5.990   6.032   5.558 -0.2099  0.5914 -1.1075
 2193SOL     OW 7324   0.044   5.367   5.537  0.1816  0.3417  0.1647
 2193SOL    HW1 7325   0.095   5.373   5.457  1.2509  0.0121  0.8080
 2193SOL    HW2 7326  -0.028   5.307   5.515  1.3141 -0.9647 -0.1302
 2194SOL     OW 7327   3.747   3.097   5.639  0.0303  0.3328  0.0703
 2194SOL    HW1 7328   3.742   3.071   5.731 -2.3576 -0.0937 -0.1300
 2194SOL    HW2 7329   3.795   3.026   5.596 -1.5629 -1.0466  0.4905
 2195SOL     OW 7330   2.976   1.762   6.240 -0.2810 -0.2255  0.5285
 2195SOL    HW1 7331   3.035   1.706   6.191 -0.3694  0.6513 -0.6248
 2195SOL    HW2 7332   2.893   1.714   6.241 -0.7050  0.4071 -1.5284
 2196SOL     OW 7333   0.041   1.158   3.861 -0.2079  0.3323 -0.0534
 2196SOL    HW1 7334   0.010   1.069   3.874 -0.3800  0.6400  1.9534
 2196SOL    HW2 7335   0.134   1.154   3.883  0.3498  0.2323 -2.1764
 2197SOL     OW 7336   3.702   2.454   3.329 -0.1797  0.2804  0.4514
 2197SOL    HW1 7337   3.764   2.448   3.257  0.6361 -0.4089  1.1900
 2197SOL    HW2 7338   3.756   2.475   3.406 -1.1308  1.9123  0.7305
 2198SOL     OW 7339   3.258   0.781   3.534 -0.2596  0.4300 -0.5727
 2198SOL    HW1 7340   3.186   0.718   3.525  0.0164 -0.2671  1.5804
 2198SOL    HW2 7341   3.336   0.730   3.514 -0.0452  0.0639  1.0733
 2199SOL     OW 7342   6.016   5.446   4.570 -0.9414 -0.0637 -0.5081
 2199SOL    HW1 7343   6.044   5.422   4.658 -0.8452 -0.8238 -0.7376
 2199SOL    HW2 7344   5.946   5.510   4.583 -0.6464  0.1341  0.1091
 2200SOL     OW 7345   2.741   3.548   3.743  0.3964  0.2773 -0.0849
 2200SOL    HW1 7346   2.747   3.639   3.773  2.3803  0.1434  0.0795
 2200SOL    HW2 7347   2.829   3.513   3.757 -0.6002 -2.0192  0.9035
 2201SOL     OW 7348   0.631   1.338   1.447  0.2399 -0.1552  0.2956
 2201SOL    HW1 7349   0.562   1.359   1.384 -0.3864 -1.9734  0.3448
 2201SOL    HW2 7350   0.611   1.392   1.523 -2.1400 -1.8150  0.9552
 2202SOL     OW 7351   0.609   1.922   5.866  0.0388 -0.4397 -0.1940
 2202SOL    HW1 7352   0.563   1.976   5.802  0.0733 -1.0139 -0.7097
 2202SOL    HW2 7353   0.614   1.978   5.944  1.1881  0.7796 -1.0941
 2203SOL     OW 7354   4.348   3.583   5.284 -0.6134 -0.7645 -0.0073
 2203SOL    HW1 7355   4.274   3.638   5.313 -1.2204 -2.3017  1.5704
 2203SOL    HW2 7356   4.413   3.594   5.353 -0.1213 -0.8383 -0.4624
 2204SOL     OW 7357   0.005   2.610   3.995  0.1838 -0.3848 -0.1576
 2204SOL    HW1 7358  -0.053   2.634   4.066 -0.0495 -0.1697 -0.4183
 2204SOL    HW2 7359   0.001   2.514   3.991  0.5118 -0.4215  0.3790
 2205SOL     OW 7360   5.401   5.215   4.343 -0.3706 -0.0938 -0.0042
 2205SOL    HW1 7361   5.359   5.219   4.429 -2.8057 -2.8512 -0.8948
 2205SOL    HW2 7362   5.471   5.151   4.353  0.7083  1.0992  0.3534
 2206SOL     OW 7363   5.850   5.037   1.807 -0.4094  0.6585 -0.0511
 2206SOL    HW1 7364   5.864   5.123   1.766  0.8795  0.6100  0.2445
 2206SOL    HW2 7365   5.818   5.057   1.895 -0.7951  0.8196 -0.2270
 2207SOL     OW 7366   0.459   3.233   5.938  0.0632  0.1517  0.4525
 2207SOL    HW1 7367   0.463   3.321   5.976  0.6409  1.1887 -1.8199
 2207SOL    HW2 7368   0.520   3.235   5.865 -0.8286 -1.7557 -0.4392
 2208SOL     OW 7369   3.468   6.022   5.175  0.6659  0.3590  0.4085
 2208SOL    HW1 7370   3.546   5.982   5.212  0.1265 -0.0920  1.0831
 2208SOL    HW2 7371   3.438   6.083   5.242  0.3082  0.3629  0.2468
 2209SOL     OW 7372   2.042   0.483   3.984  0.4958  0.3605 -0.0295
 2209SOL    HW1 7373   2.123   0.449   4.020  1.0385 -0.3180 -1.7784
 2209SOL    HW2 7374   2.050   0.578   3.991  1.3124  0.2853  0.0895
 2210SOL     OW 7375   4.546   3.466   2.532 -0.5678  0.0456  0.0088
 2210SOL    HW1 7376   4.640   3.485   2.522 -0.4116 -0.6797  0.0275
 2210SOL    HW2 7377   4.523   3.502   2.617 -0.0659 -0.6444  0.4511
 2211SOL     OW 7378   4.396   1.001   2.879 -0.0785 -0.0413 -0.1149
 2211SOL    HW1 7379   4.443   0.927   2.918 -0.2012 -1.5274 -2.6199
 2211SOL    HW2 7380   4.351   0.964   2.804  0.3689  2.7062 -1.8596
 2212SOL     OW 7381   5.181   4.256   3.608  0.2150 -0.4926  0.4612
 2212SOL    HW1 7382   5.265   4.299   3.596 -0.4325  1.3196  1.8974
 2212SOL    HW2 7383   5.187   4.217   3.696 -0.6010  0.1359  0.8148
 2213SOL     OW 7384   4.349   6.012   1.686  0.4545  0.1060 -0.1626
 2213SOL    HW1 7385   4.365   5.942   1.749  0.8230  0.4239  0.1128
 2213SOL    HW2 7386   4.379   6.091   1.731 -1.6666  0.7260  0.2596
 2214SOL     OW 7387   1.375   0.592   0.190 -0.0014 -0.6990  0.3364
 2214SOL    HW1 7388   1.345   0.601   0.280 -0.8253 -0.8417  0.0834
 2214SOL    HW2 7389   1.338   0.509   0.161 -1.5017  0.3276 -0.8056
 2215SOL     OW 7390   0.940   5.665   4.974 -0.2710 -0.2127  0.2057
 2215SOL    HW1 7391   1.018   5.613   4.953  0.7797  1.1086  0.6849
 2215SOL    HW2 7392   0.941   5.673   5.069 -1.0549 -0.2562  0.2227
 2216SOL     OW 7393   5.821   1.838   3.599  0.2419  0.3541 -0.3020
 2216SOL    HW1 7394   5.769   1.815   3.676 -0.2797  0.1102 -0.7195
 2216SOL    HW2 7395   5.885   1.767   3.591 -0.6671 -0.4312 -0.9537
 2217SOL     OW 7396   3.414   0.533   5.834 -0.0369  0.1315 -0.2244
 2217SOL    HW1 7397   3.374   0.452   5.867  0.7302 -0.2622 -0.2376
 2217SOL    HW2 7398   3.442   0.511   5.745  1.5084 -0.0704  0.2809
 2218SOL     OW 7399   3.942   4.455   5.898  0.3972 -0.0727  0.3573
 2218SOL    HW1 7400   3.888   4.461   5.820  1.6858 -1.1020 -0.6493
 2218SOL    HW2 7401   3.896   4.394   5.955  1.2410 -2.3188 -1.2034
 2219SOL     OW 7402   5.789   2.529   5.387 -0.0555  0.0524  1.0414
 2219SOL    HW1 7403   5.763   2.603   5.332 -0.0763 -1.4322 -1.0657
 2219SOL    HW2 7404   5.881   2.545   5.406  0.3054  0.0301 -0.5021
 2220SOL     OW 7405   4.603   5.171   2.101  0.0163 -0.0376 -0.2225
 2220SOL    HW1 7406   4.553   5.252   2.087  0.9529  0.1958 -2.9087
 2220SOL    HW2 7407   4.537   5.102   2.105 -0.6628  0.5150 -1.3947
 2221SOL     OW 7408   1.421   0.306   2.202  0.1883  0.2200 -0.2217
 2221SOL    HW1 7409   1.508   0.346   2.209 -0.1134  0.9836 -0.7196
 2221SOL    HW2 7410   1.430   0.242   2.132  1.0070 -1.5354  1.3924
 2222SOL     OW 7411   3.549   0.689   1.460 -0.2195 -0.4125 -0.8392
 2222SOL    HW1 7412   3.496   0.734   1.525 -0.6023 -1.3674 -0.4627
 2222SOL    HW2 7413   3.562   0.601   1.496  4.0264  0.5212  0.4850
 2223SOL     OW 7414   0.495   4.403   5.558 -0.1153  0.1615  0.4467
 2223SOL    HW1 7415   0.521   4.454   5.480  0.8506 -2.3580 -1.0008
 2223SOL    HW2 7416   0.577   4.379   5.599 -0.5627 -0.0047  1.2554
 2224SOL     OW 7417   0.354   3.021   5.690 -0.3841  0.1712  0.1965
 2224SOL    HW1 7418   0.286   3.084   5.667  0.5101  0.9242 -0.4708
 2224SOL    HW2 7419   0.341   3.003   5.783 -0.6842  1.3157  0.3841
 2225SOL     OW 7420   4.254   5.397   5.395  0.3031  0.4478 -0.1026
 2225SOL    HW1 7421   4.179   5.442   5.356  0.0845 -0.2354 -0.4910
 2225SOL    HW2 7422   4.232   5.304   5.390  1.2255  0.2249 -0.3398
 2226SOL     OW 7423   1.984   1.256   1.261 -0.1064 -0.4500 -0.0129
 2226SOL    HW1 7424   1.958   1.187   1.323 -0.3191  1.8896  2.7076
 2226SOL    HW2 7425   1.968   1.337   1.309  1.9066  1.4596 -2.3709
 2227SOL     OW 7426   2.610   3.921   4.693 -0.6340  0.5998 -0.4518
 2227SOL    HW1 7427   2.627   4.013   4.712 -0.8312  0.7300 -0.8881
 2227SOL    HW2 7428   2.616   3.877   4.778  0.1521  0.9046 -0.3412
 2228SOL     OW 7429   5.513   6.197   0.324  0.1080  0.1174 -0.4237
 2228SOL    HW1 7430   5.501   6.288   0.299  1.6656  1.8493  4.0581
 2228SOL    HW2 7431   5.424   6.161   0.326 -0.9316  2.4981  0.4530
 2229SOL     OW 7432   5.106   3.908   1.934 -0.3424  0.0992 -0.3505
 2229SOL    HW1 7433   5.185   3.952   1.904 -0.0117 -0.8539 -0.9452
 2229SOL    HW2 7434   5.099   3.928   2.027  0.0091  1.0573 -0.5278
 2230SOL     OW 7435   5.711   4.259   5.489 -0.2935  0.3991  0.0590
 2230SOL    HW1 7436   5.798   4.255   5.449  0.1104  1.7088  0.7541
 2230SOL    HW2 7437   5.721   4.212   5.572  0.3934  2.4428  1.1919
 2231SOL     OW 7438   2.044   3.775   4.196 -0.2188 -0.4958  0.1327
 2231SOL    HW1 7439   1.974   3.710   4.189 -2.0539  1.5226 -1.9963
 2231SOL    HW2 7440   2.061   3.801   4.105  1.7995  0.6559  0.7814
 2232SOL     OW 7441   6.152   2.957   3.080 -0.1031  0.4247  0.2779
 2232SOL    HW1 7442   6.102   3.033   3.052  0.8814  2.0107  2.5463
 2232SOL    HW2 7443   6.101   2.920   3.152 -0.1112 -0.5512 -0.2124
 2233SOL     OW 7444   6.226   3.854   0.572  0.1377 -0.1653  0.4588
 2233SOL    HW1 7445   6.189   3.884   0.655 -1.4836 -1.9909  0.4537
 2233SOL    HW2 7446   6.224   3.758   0.577  3.0674 -0.3760 -0.3944
 2234SOL     OW 7447   5.517   2.603   0.666 -0.4110  0.4738  0.1227
 2234SOL    HW1 7448   5.568   2.578   0.743  0.7889  2.3207  0.0022
 2234SOL    HW2 7449   5.431   2.563   0.679  0.0269  0.0705  2.0104
 2235SOL     OW 7450   0.438   0.869   4.760  0.1341 -0.1174  0.3789
 2235SOL    HW1 7451   0.440   0.793   4.703 -3.3666  1.1766 -1.7869
 2235SOL    HW2 7452   0.530   0.895   4.769  1.1504 -2.8213 -1.2374
 2236SOL     OW 7453   1.427   4.908   5.512  0.1212 -0.1398 -0.7867
 2236SOL    HW1 7454   1.499   4.880   5.570 -0.4800 -0.0736  0.0077
 2236SOL    HW2 7455   1.362   4.838   5.519  0.0458 -0.1367 -1.4048
 2237SOL     OW 7456   0.693   4.391   6.015  0.2856 -0.5714  0.8435
 2237SOL    HW1 7457   0.638   4.468   6.000 -0.0680 -0.8007  0.9569
 2237SOL    HW2 7458   0.739   4.378   5.932  0.0326 -0.4856  0.6877
 2238SOL     OW 7459   0.014   0.751   2.714 -0.5765  0.3211 -0.0377
 2238SOL    HW1 7460   0.039   0.837   2.682 -0.3583  0.0483 -0.6314
 2238SOL    HW2 7461   0.086   0.724   2.770 -1.6415  1.4355  1.9523
 2239SOL     OW 7462   3.385   0.839   4.674 -0.3078 -0.0671 -0.4755
 2239SOL    HW1 7463   3.392   0.906   4.742 -0.0525 -0.3026 -0.2630
 2239SOL    HW2 7464   3.463   0.852   4.620 -0.2817 -0.1593 -0.4611
 2240SOL     OW 7465   6.190   6.292   5.673 -0.7091  0.6675  0.1199
 2240SOL    HW1 7466   6.179   6.385   5.657 -3.1208  0.6022  0.9029
 2240SOL    HW2 7467   6.119   6.250   5.625  1.9899 -1.1655 -2.6705
 2241SOL     OW 7468   5.018   0.469   1.669  0.0370  0.0604 -0.4811
 2241SOL    HW1 7469   4.958   0.487   1.742 -1.2971  0.4453 -1.6127
 2241SOL    HW2 7470   4.994   0.534   1.602  1.8060  0.2833 -0.9521
 2242SOL     OW 7471   4.138   2.247   4.780 -0.2732  0.3796 -0.7994
 2242SOL    HW1 7472   4.095   2.182   4.724  0.1086 -1.5223  1.0058
 2242SOL    HW2 7473   4.065   2.300   4.814 -0.8993 -0.7946 -0.2494
 2243SOL     OW 7474   1.326   0.052   2.476 -0.6710  0.4117 -0.2833
 2243SOL    HW1 7475   1.350   0.145   2.474  0.6601  0.0998 -0.0494
 2243SOL    HW2 7476   1.312   0.033   2.568  3.2425 -0.5301  0.3286
 2244SOL     OW 7477   6.267   4.104   2.727 -0.3016 -0.4126  0.2569
 2244SOL    HW1 7478   6.182   4.136   2.758  0.5519  1.5668  0.6601
 2244SOL    HW2 7479   6.249   4.070   2.639 -1.2071  1.7928 -0.4845
 2245SOL     OW 7480   3.602   0.458   4.636 -0.0174 -0.1543  0.2096
 2245SOL    HW1 7481   3.675   0.398   4.652  1.9470  1.5559 -1.6492
 2245SOL    HW2 7482   3.632   0.542   4.671 -1.3045  0.4832 -0.1546
 2246SOL     OW 7483   0.428   1.868   2.416  0.1306  0.2083 -0.0265
 2246SOL    HW1 7484   0.340   1.844   2.388 -0.4416  0.1978  1.6564
 2246SOL    HW2 7485   0.414   1.919   2.497  1.6703  0.0016  0.4002
 2247SOL     OW 7486   4.595   2.296   3.853 -0.7112  0.3325 -0.3205
 2247SOL    HW1 7487   4.688   2.286   3.868 -0.7763  2.2414  1.8684
 2247SOL    HW2 7488   4.567   2.212   3.818  1.3133 -1.2672  1.6672
 2248SOL     OW 7489   3.490   6.257   5.858  0.2106 -0.4024 -0.4865
 2248SOL    HW1 7490   3.474   6.349   5.838  0.1201 -0.3125 -0.0118
 2248SOL    HW2 7491   3.442   6.209   5.790 -0.2137 -0.1073 -0.3950
 2249SOL     OW 7492   0.438   0.676   3.657  0.1599  0.8769  0.5964
 2249SOL    HW1 7493   0.496   0.626   3.715  0.6187  1.0232  0.2715
 2249SOL    HW2 7494   0.458   0.643   3.569 -2.4755 -1.3520  0.6954
 2250SOL     OW 7495   3.076   1.355   1.591  0.0416  0.3099 -0.6538
 2250SOL    HW1 7496   3.146   1.294   1.613 -0.5637 -0.8150 -1.7362
 2250SOL    HW2 7497   2.998   1.320   1.634  0.1384  1.6904  0.7598
 2251SOL     OW 7498   3.315   3.736   2.703  0.1614 -0.4388 -0.3508
 2251SOL    HW1 7499   3.309   3.829   2.722 -2.0407 -0.2653 -1.5934
 2251SOL    HW2 7500   3.276   3.726   2.617 -1.2436 -2.6985  0.4568
 2252SOL     OW 7501   1.814   5.301   2.172 -0.0610  0.1163  0.2048
 2252SOL    HW1 7502   1.820   5.394   2.191 -2.7434  0.1995  0.9464
 2252SOL    HW2 7503   1.806   5.297   2.076 -1.1582  0.7459  0.2588
 2253SOL     OW 7504   1.712   1.334   1.877 -0.1285  0.5156 -0.1382
 2253SOL    HW1 7505   1.777   1.277   1.918  1.6373  1.2098 -1.8329
 2253SOL    HW2 7506   1.710   1.307   1.786 -0.6857  1.8937 -0.5596
 2254SOL     OW 7507   2.047   0.301   3.190  0.2831 -0.0481 -0.5009
 2254SOL    HW1 7508   2.124   0.357   3.197  0.4419 -0.1207 -1.4424
 2254SOL    HW2 7509   1.984   0.353   3.141 -0.1431 -0.1225 -0.0393
 2255SOL     OW 7510   4.339   0.170   5.314  0.5462 -0.3889  0.8908
 2255SOL    HW1 7511   4.379   0.231   5.376 -2.2473  2.6495 -0.0369
 2255SOL    HW2 7512   4.354   0.210   5.228 -2.4675 -0.2278  0.3508
 2256SOL     OW 7513   1.363   5.794   3.129 -0.0650  0.2725  0.8460
 2256SOL    HW1 7514   1.383   5.759   3.042  0.2619  2.0034  0.1881
 2256SOL    HW2 7515   1.395   5.728   3.190 -0.3938 -1.0254 -0.3331
 2257SOL     OW 7516   0.748   2.182   4.529  0.5330  0.0850  0.2838
 2257SOL    HW1 7517   0.720   2.273   4.536  1.0426  0.2126  0.7296
 2257SOL    HW2 7518   0.710   2.152   4.447  0.4726  0.7406  0.0634
 2258SOL     OW 7519   3.228   5.125   2.576  0.2616  0.7177 -0.4628
 2258SOL    HW1 7520   3.302   5.183   2.594 -0.3293  1.8784 -1.6195
 2258SOL    HW2 7521   3.171   5.176   2.519 -1.7564  0.0926  0.9033
 2259SOL     OW 7522   4.902   0.485   6.254 -0.2710 -0.1248  0.6475
 2259SOL    HW1 7523   4.855   0.404   6.233  0.3854 -0.2205 -0.5596
 2259SOL    HW2 7524   4.833   0.550   6.269 -0.8018 -0.8366  1.3776
 2260SOL     OW 7525   1.735   4.948   3.318 -0.3967 -0.3734 -0.4570
 2260SOL    HW1 7526   1.681   4.995   3.254 -1.1334 -1.0525 -0.3590
 2260SOL    HW2 7527   1.704   4.980   3.403  0.3848  0.3185 -0.4272
 2261SOL     OW 7528   4.399   3.981   5.178 -0.1687 -0.4953 -0.3265
 2261SOL    HW1 7529   4.397   4.030   5.096  1.0727 -2.6980 -1.7676
 2261SOL    HW2 7530   4.439   4.041   5.241 -1.6084  1.4211 -1.1235
 2262SOL     OW 7531   0.819   4.984   0.595  0.5350  0.2196  0.4668
 2262SOL    HW1 7532   0.845   5.013   0.508  2.2065 -2.5139 -0.0677
 2262SOL    HW2 7533   0.898   4.995   0.649  0.6290 -1.3299  0.7016
 2263SOL     OW 7534   5.953   1.989   4.956 -0.0113  0.4687  0.1017
 2263SOL    HW1 7535   6.017   1.957   5.019  0.8314  3.1700  0.7465
 2263SOL    HW2 7536   5.990   1.968   4.870  0.8077  0.3329  0.4855
 2264SOL     OW 7537   2.214   5.353   3.500  0.0279  0.0349 -0.2980
 2264SOL    HW1 7538   2.195   5.443   3.473 -1.3187  0.2702  1.2969
 2264SOL    HW2 7539   2.131   5.307   3.492  0.0106 -0.3368  1.5263
 2265SOL     OW 7540   2.554   1.519   2.255 -0.6091 -0.3267  0.3403
 2265SOL    HW1 7541   2.540   1.426   2.240  1.4199 -0.7379  0.8194
 2265SOL    HW2 7542   2.492   1.542   2.324 -1.6366 -1.1271 -0.2819
 2266SOL     OW 7543   2.092   2.618   5.994 -0.0507 -0.4237  0.0387
 2266SOL    HW1 7544   1.999   2.595   5.997  0.3297 -2.0422  0.7892
 2266SOL    HW2 7545   2.123   2.602   6.083  0.7013  1.3155  0.1210
 2267SOL     OW 7546   2.880   4.403   3.925 -0.1716  0.4107 -0.1529
 2267SOL    HW1 7547   2.868   4.371   3.835 -1.1018  1.1620 -0.3112
 2267SOL    HW2 7548   2.861   4.497   3.919 -1.2176  0.2892  1.0084
 2268SOL     OW 7549   3.482   1.965   4.585 -0.5224 -0.4772  0.0007
 2268SOL    HW1 7550   3.465   2.059   4.583  0.9863 -0.1519  0.4046
 2268SOL    HW2 7551   3.573   1.957   4.556 -0.6380 -1.8126 -0.0477
 2269SOL     OW 7552   1.380   2.083   0.641 -0.1188 -0.4501 -0.2659
 2269SOL    HW1 7553   1.472   2.088   0.613 -0.7456 -0.9578 -2.6471
 2269SOL    HW2 7554   1.332   2.132   0.575 -1.3291  2.9332  2.8322
 2270SOL     OW 7555   1.639   1.595   1.240 -0.2337  0.2032 -0.2488
 2270SOL    HW1 7556   1.700   1.666   1.224 -1.4982  1.3229 -0.2795
 2270SOL    HW2 7557   1.564   1.614   1.184 -0.3784 -1.4634 -0.6750
 2271SOL     OW 7558   2.233   1.063   2.288 -0.3985  0.2376  0.0269
 2271SOL    HW1 7559   2.188   1.005   2.349 -0.1585  0.7337  0.6983
 2271SOL    HW2 7560   2.282   1.124   2.345  0.2284  0.3989 -0.6654
 2272SOL     OW 7561   5.550   5.453   1.601 -0.2964  0.4113 -0.2065
 2272SOL    HW1 7562   5.637   5.421   1.626 -0.4259  2.2110  3.2531
 2272SOL    HW2 7563   5.564   5.546   1.584 -1.2000  0.2212 -2.2587
 2273SOL     OW 7564   3.819   2.026   5.870 -0.2602  0.3611  0.3245
 2273SOL    HW1 7565   3.890   1.981   5.824  1.1091  1.6722  1.0949
 2273SOL    HW2 7566   3.761   1.955   5.899  1.1673 -0.8256  0.3945
 2274SOL     OW 7567   4.764   5.554   1.135 -0.0362 -0.4324  0.4206
 2274SOL    HW1 7568   4.760   5.646   1.160 -4.3159 -0.2598 -0.1402
 2274SOL    HW2 7569   4.763   5.506   1.218  2.1846 -0.0553  0.7130
 2275SOL     OW 7570   1.851   2.934   5.204  0.3226  0.2026  0.7779
 2275SOL    HW1 7571   1.933   2.896   5.173  0.7247  1.7055 -0.1367
 2275SOL    HW2 7572   1.785   2.902   5.143  0.3653 -0.3556  1.0226
 2276SOL     OW 7573   3.038   4.880   0.763 -0.0553 -0.6748  0.3580
 2276SOL    HW1 7574   2.999   4.843   0.843  0.0508  0.2904  0.8659
 2276SOL    HW2 7575   3.067   4.967   0.789  0.6674 -0.6398 -0.5458
 2277SOL     OW 7576   1.307   3.721   4.812  0.0752  0.6609 -0.5215
 2277SOL    HW1 7577   1.389   3.715   4.860 -0.1605  1.2523 -0.0343
 2277SOL    HW2 7578   1.314   3.655   4.743  0.0544 -0.8853  0.8895
 2278SOL     OW 7579   3.083   6.237   0.026 -0.0942 -0.2613 -0.0381
 2278SOL    HW1 7580   3.016   6.304   0.011 -0.8342 -0.6050  1.5294
 2278SOL    HW2 7581   3.077   6.217   0.120 -0.1235 -2.7301 -0.4864
 2279SOL     OW 7582   2.381   6.022   2.237  0.8167  0.5175  0.2075
 2279SOL    HW1 7583   2.360   5.931   2.215  0.8833  0.2141  1.2980
 2279SOL    HW2 7584   2.423   6.057   2.159  0.7940 -0.3968 -0.2302
 2280SOL     OW 7585   0.458   1.083   2.075  1.1396 -0.1581  0.8784
 2280SOL    HW1 7586   0.475   1.010   2.135  0.4399 -1.0995 -0.0365
 2280SOL    HW2 7587   0.513   1.066   1.999  0.3445 -0.1911  0.2992
 2281SOL     OW 7588   5.789   3.681   0.973  0.1412  0.1351  0.3601
 2281SOL    HW1 7589   5.767   3.774   0.974  0.6556  0.2567  0.9654
 2281SOL    HW2 7590   5.879   3.677   0.940 -0.4412 -0.2908 -1.2747
 2282SOL     OW 7591   2.413   2.686   6.069  0.3920  0.4301  1.0258
 2282SOL    HW1 7592   2.486   2.678   6.007  0.8054  0.6942  1.4702
 2282SOL    HW2 7593   2.393   2.596   6.094  0.8817  0.3809  1.2548
 2283SOL     OW 7594   3.955   0.830   1.157  0.1800 -0.2145  0.1236
 2283SOL    HW1 7595   3.902   0.891   1.209 -0.2755 -0.1352 -0.4342
 2283SOL    HW2 7596   4.004   0.780   1.223 -0.9888 -0.6723  0.6779
 2284SOL     OW 7597   1.478   0.840   2.420  0.2137 -0.3053  0.5545
 2284SOL    HW1 7598   1.423   0.828   2.342 -1.3747  0.1519  1.5644
 2284SOL    HW2 7599   1.446   0.921   2.460  1.0593 -0.4882  1.6474
 2285SOL     OW 7600   3.744   3.633   2.935 -0.4700  0.2567 -0.1464
 2285SOL    HW1 7601   3.667   3.576   2.940 -1.5194  1.6049 -0.3339
 2285SOL    HW2 7602   3.736   3.691   3.011  0.8379 -0.1183  0.3122
 2286SOL     OW 7603   2.718   3.020   5.377 -0.2756 -0.1224 -0.0448
 2286SOL    HW1 7604   2.769   2.943   5.351  0.0591  0.0811  0.0001
 2286SOL    HW2 7605   2.772   3.094   5.350  0.0677  0.0926  1.1945
 2287SOL     OW 7606   2.688   6.116   0.830 -0.4133  0.2064  0.0029
 2287SOL    HW1 7607   2.594   6.099   0.837 -0.2190 -0.8085  0.3807
 2287SOL    HW2 7608   2.723   6.037   0.789  0.2602  0.6246 -0.2315
 2288SOL     OW 7609   3.016   2.129   2.509  0.0726  0.3557 -0.3000
 2288SOL    HW1 7610   3.049   2.180   2.583 -1.0426  0.2033  0.3242
 2288SOL    HW2 7611   2.928   2.102   2.536  0.2424 -1.0196 -1.0512
 2289SOL     OW 7612   6.145   5.709   0.414  0.2142 -0.2395 -0.2686
 2289SOL    HW1 7613   6.099   5.726   0.331  0.1880  1.2993  0.0271
 2289SOL    HW2 7614   6.104   5.769   0.476  0.3911 -1.2142  0.8161
 2290SOL     OW 7615   1.067   4.328   5.853 -0.3301 -0.3401  0.0004
 2290SOL    HW1 7616   1.001   4.397   5.843  0.2476 -0.0027 -1.7607
 2290SOL    HW2 7617   1.038   4.258   5.795  0.3783 -0.5681 -0.0850
 2291SOL     OW 7618   2.338   3.227   2.499  0.2972  0.1013  0.0914
 2291SOL    HW1 7619   2.376   3.245   2.586 -0.0685 -0.4903  0.3775
 2291SOL    HW2 7620   2.394   3.276   2.439 -0.0827  1.4071  0.7528
 2292SOL     OW 7621   2.176   2.143   5.419 -0.5803  0.2519  0.0005
 2292SOL    HW1 7622   2.269   2.166   5.425 -0.3797 -0.8030  1.6783
 2292SOL    HW2 7623   2.175   2.064   5.364 -0.0830 -1.4174  2.2379
 2293SOL     OW 7624   3.277   5.671   4.081  0.0620  0.0657  0.0868
 2293SOL    HW1 7625   3.310   5.604   4.142  0.2682  0.1574  0.0758
 2293SOL    HW2 7626   3.283   5.753   4.131  4.3849  0.9395 -1.4241
 2294SOL     OW 7627   5.757   4.317   0.115 -0.1116 -0.1471 -0.3610
 2294SOL    HW1 7628   5.751   4.410   0.139  0.5851 -0.2920  0.4665
 2294SOL    HW2 7629   5.790   4.317   0.025  1.2918  0.4173  0.1227
 2295SOL     OW 7630   2.584   0.864   1.963 -0.0244  0.5998  0.1395
 2295SOL    HW1 7631   2.554   0.791   2.017  1.4203 -0.0128  0.1633
 2295SOL    HW2 7632   2.532   0.858   1.883 -1.5257  0.9493  1.0592
 2296SOL     OW 7633   6.031   5.259   0.686 -0.2466  0.4144  0.2923
 2296SOL    HW1 7634   6.113   5.261   0.736  1.3320  0.1336 -2.1418
 2296SOL    HW2 7635   5.971   5.210   0.742  1.2563  0.4904  2.1006
 2297SOL     OW 7636   4.137   1.022   2.080 -0.0625 -0.1886 -0.6735
 2297SOL    HW1 7637   4.219   1.019   2.030  0.8232  0.7672  0.6608
 2297SOL    HW2 7638   4.070   1.041   2.014  1.1485  1.6835 -1.4390
 2298SOL     OW 7639   1.761   1.860   0.878  0.1066 -0.0338 -0.2834
 2298SOL    HW1 7640   1.744   1.935   0.822  0.2022  0.3156  0.1529
 2298SOL    HW2 7641   1.829   1.889   0.939 -0.1898 -0.3115  0.1929
 2299SOL     OW 7642   5.842   5.212   3.924 -0.1214  0.4117  0.5255
 2299SOL    HW1 7643   5.772   5.205   3.988 -1.0970 -1.0614 -0.6258
 2299SOL    HW2 7644   5.800   5.248   3.846  0.3184 -0.7390 -0.2673
 2300SOL     OW 7645   2.767   2.727   2.361 -0.1103 -0.3521 -0.0855
 2300SOL    HW1 7646   2.737   2.690   2.278 -0.1326  1.1473 -0.7876
 2300SOL    HW2 7647   2.792   2.817   2.340  0.7517 -0.2135  1.3616
 2301SOL     OW 7648   0.830   2.408   2.507 -0.9852  0.4644 -0.2562
 2301SOL    HW1 7649   0.845   2.494   2.466  1.7283  0.7872  1.1644
 2301SOL    HW2 7650   0.914   2.363   2.499 -1.4337 -0.8425  1.6918
 2302SOL     OW 7651   0.681   0.991   3.874  1.1294  0.1067  0.5446
 2302SOL    HW1 7652   0.704   0.971   3.965 -1.5995 -0.9959  1.1053
 2302SOL    HW2 7653   0.668   0.906   3.833  1.8550  0.6014 -0.7595
 2303SOL     OW 7654   5.022   5.498   5.488  0.1406  0.2352  0.3271
 2303SOL    HW1 7655   5.061   5.574   5.530 -0.0194  1.4438 -1.5842
 2303SOL    HW2 7656   5.095   5.438   5.473  0.7478  1.1305 -0.4130
 2304SOL     OW 7657   3.937   0.669   1.589  0.1865 -0.2434 -0.1040
 2304SOL    HW1 7658   3.972   0.662   1.677  1.5316  2.6000 -0.3062
 2304SOL    HW2 7659   3.904   0.582   1.569  1.6093 -1.4653  2.4507
 2305SOL     OW 7660   1.440   2.863   4.693  0.4944  0.1391 -0.1433
 2305SOL    HW1 7661   1.514   2.824   4.647 -0.3205 -0.2137 -1.1953
 2305SOL    HW2 7662   1.404   2.793   4.746 -1.8807 -1.1595 -3.1446
 2306SOL     OW 7663   5.045   3.215   5.607  0.0051 -0.0362  0.1223
 2306SOL    HW1 7664   4.995   3.192   5.685  1.5651  0.3544  1.2859
 2306SOL    HW2 7665   4.984   3.267   5.554 -0.4731  1.5334  2.0807
 2307SOL     OW 7666   1.172   4.759   1.209  0.2870  0.2231 -0.0799
 2307SOL    HW1 7667   1.248   4.762   1.151 -0.1367  0.1625 -0.6522
 2307SOL    HW2 7668   1.204   4.791   1.293  0.8352  0.6291 -0.4385
 2308SOL     OW 7669   1.018   5.317   3.165  0.1372 -0.1968 -0.8809
 2308SOL    HW1 7670   1.007   5.308   3.260  0.2612  1.1152 -0.7119
 2308SOL    HW2 7671   0.943   5.272   3.127 -0.8749  0.7393 -0.0731
 2309SOL     OW 7672   5.570   0.602   2.458 -0.6931  0.6214 -0.2191
 2309SOL    HW1 7673   5.550   0.633   2.546  0.0897  0.5478 -0.0040
 2309SOL    HW2 7674   5.485   0.594   2.415 -1.0521  1.0553  0.3947
 2310SOL     OW 7675   2.613   1.321   4.065  0.4053 -0.3098  0.1045
 2310SOL    HW1 7676   2.707   1.335   4.053  0.2605  0.9905  0.3034
 2310SOL    HW2 7677   2.582   1.401   4.108 -0.9731 -0.2577 -0.9127
 2311SOL     OW 7678   4.339   0.591   5.464  0.0301  0.8940 -0.3489
 2311SOL    HW1 7679   4.311   0.675   5.427 -1.3061  0.6136 -0.0123
 2311SOL    HW2 7680   4.260   0.538   5.465  0.8552 -0.3667 -0.5110
 2312SOL     OW 7681   4.132   2.403   4.220  0.0543 -0.3123 -0.0432
 2312SOL    HW1 7682   4.148   2.479   4.164 -1.0278  0.5549  0.7767
 2312SOL    HW2 7683   4.090   2.339   4.163  0.0551  0.0936 -0.5030
 2313SOL     OW 7684   6.285   4.287   5.612 -0.4865  0.6589  0.0698
 2313SOL    HW1 7685   6.296   4.340   5.533  1.6860  0.4071  0.1400
 2313SOL    HW2 7686   6.286   4.350   5.684  0.8716  0.6536  0.0766
 2314SOL     OW 7687   5.102   2.480   5.764 -0.4705 -0.3639  0.3216
 2314SOL    HW1 7688   5.078   2.570   5.742 -0.9336 -0.6482 -0.3345
 2314SOL    HW2 7689   5.197   2.477   5.751 -0.3462  0.2172  1.0327
 2315SOL     OW 7690   5.768   1.978   2.024  0.2342 -0.2466 -0.6249
 2315SOL    HW1 7691   5.861   1.992   2.039 -0.0891  0.4610  0.9328
 2315SOL    HW2 7692   5.733   2.066   2.008 -0.5322 -0.1913  1.1820
 2316SOL     OW 7693   1.918   1.404   3.029 -0.0131 -0.3673  0.0734
 2316SOL    HW1 7694   1.960   1.455   3.098  0.7097  1.7103 -1.7842
 2316SOL    HW2 7695   1.832   1.444   3.018  0.6999  0.8083 -1.6596
 2317SOL     OW 7696   4.564   1.756   1.239  0.3589  0.1058  0.1490
 2317SOL    HW1 7697   4.628   1.813   1.197  1.0277 -0.9099 -0.2558
 2317SOL    HW2 7698   4.481   1.778   1.197  0.4258  1.4425  0.6875
 2318SOL     OW 7699   4.211   3.473   4.476  0.0625 -0.2331  0.4837
 2318SOL    HW1 7700   4.293   3.507   4.513 -0.7033  1.0436  1.0635
 2318SOL    HW2 7701   4.211   3.504   4.386 -0.1983  0.5093  0.7408
 2319SOL     OW 7702   1.799   1.504   5.057  0.0983 -0.4961 -0.0092
 2319SOL    HW1 7703   1.876   1.548   5.019  1.1916  0.0340  2.5822
 2319SOL    HW2 7704   1.832   1.419   5.086 -0.2045 -0.1923  1.2923
 2320SOL     OW 7705   2.903   0.187   6.039  0.2827 -0.4026 -0.4804
 2320SOL    HW1 7706   2.890   0.092   6.036  3.6650 -1.0950  1.3091
 2320SOL    HW2 7707   2.998   0.199   6.028 -0.0372  2.7921 -0.7582
 2321SOL     OW 7708   1.782   1.009   0.235  0.0259 -0.1492 -0.0872
 2321SOL    HW1 7709   1.728   0.944   0.280  0.2868 -0.5770 -0.3834
 2321SOL    HW2 7710   1.832   1.052   0.305  1.0160 -1.3507 -0.0138
 2322SOL     OW 7711   0.971   6.093   4.348 -0.2733 -0.1283 -0.0264
 2322SOL    HW1 7712   0.996   6.031   4.280 -2.4501  0.7743 -1.7886
 2322SOL    HW2 7713   1.054   6.131   4.378  0.9441 -2.4723 -0.2084
 2323SOL     OW 7714   3.277   4.195   4.383 -0.1315 -0.2883  0.6888
 2323SOL    HW1 7715   3.331   4.133   4.333 -0.9760 -0.3367 -0.2121
 2323SOL    HW2 7716   3.307   4.281   4.355 -1.2371 -0.3073 -0.6935
 2324SOL     OW 7717   4.839   3.565   3.573  0.4865  0.1094  0.5528
 2324SOL    HW1 7718   4.864   3.578   3.664 -0.4812 -1.2166  1.0401
 2324SOL    HW2 7719   4.760   3.618   3.562 -0.2883 -0.9200  0.9597
 2325SOL     OW 7720   5.291   1.355   5.937  0.0509 -0.2585 -0.1041
 2325SOL    HW1 7721   5.267   1.278   5.887  0.1457  0.1760 -0.8305
 2325SOL    HW2 7722   5.340   1.321   6.011  0.4622 -0.8625 -0.6474
 2326SOL     OW 7723   4.645   2.231   1.293 -0.7293 -0.7959 -0.3874
 2326SOL    HW1 7724   4.697   2.296   1.340 -0.7357 -0.7780 -0.4046
 2326SOL    HW2 7725   4.634   2.269   1.205 -2.2462  0.0177  0.1218
 2327SOL     OW 7726   5.425   3.153   2.552  0.0453 -0.4174 -0.3977
 2327SOL    HW1 7727   5.339   3.159   2.509  0.4349 -1.0890 -1.3080
 2327SOL    HW2 7728   5.472   3.230   2.521  0.9763 -1.8081 -2.7624
 2328SOL     OW 7729   0.125   4.228   0.857 -0.2108 -0.0592 -0.5763
 2328SOL    HW1 7730   0.031   4.213   0.864 -0.5185  1.2610 -1.4241
 2328SOL    HW2 7731   0.164   4.170   0.922 -1.7591  0.9442  1.3450
 2329SOL     OW 7732   1.050   3.866   2.639  0.1475  0.2237 -0.3500
 2329SOL    HW1 7733   1.090   3.944   2.677 -1.5763  0.4154  1.2009
 2329SOL    HW2 7734   1.120   3.800   2.641  1.3722  1.4545 -0.9052
 2330SOL     OW 7735   0.235   1.828   5.735 -0.3760 -0.1477 -0.8727
 2330SOL    HW1 7736   0.276   1.912   5.712  0.4505 -0.2252  0.2201
 2330SOL    HW2 7737   0.156   1.852   5.783 -0.4459  0.0063 -1.0654
 2331SOL     OW 7738   3.889   4.710   0.584 -0.0658 -0.1381  1.0172
 2331SOL    HW1 7739   3.826   4.773   0.550 -0.2702 -0.9940 -0.2497
 2331SOL    HW2 7740   3.855   4.624   0.558  2.7679 -0.5603 -1.9749
 2332SOL     OW 7741   4.503   3.965   3.662 -0.5903 -0.2412 -0.0575
 2332SOL    HW1 7742   4.589   4.005   3.655 -0.5862 -0.2312  0.0439
 2332SOL    HW2 7743   4.463   3.978   3.576  0.8467 -3.3928 -1.3774
 2333SOL     OW 7744   5.577   4.540   3.146  0.0811  0.3819  0.3331
 2333SOL    HW1 7745   5.661   4.542   3.100 -0.0736 -0.4378 -0.0041
 2333SOL    HW2 7746   5.551   4.632   3.152 -0.1475  0.5024 -1.7107
 2334SOL     OW 7747   1.360   0.689   4.255 -0.3714  0.0197 -0.6176
 2334SOL    HW1 7748   1.389   0.779   4.269 -0.1242  0.1540 -1.8492
 2334SOL    HW2 7749   1.297   0.695   4.182 -1.4589 -0.6184  0.2316
 2335SOL     OW 7750   4.693   2.724   4.123  0.0384 -0.1392 -0.5447
 2335SOL    HW1 7751   4.781   2.729   4.088  0.4744 -1.1416  0.3548
 2335SOL    HW2 7752   4.701   2.753   4.214 -0.5744 -0.1404 -0.4851
 2336SOL     OW 7753   3.975   2.173   4.103 -0.4430 -0.5820  0.0840
 2336SOL    HW1 7754   3.903   2.230   4.128 -0.1654  1.5390 -3.2447
 2336SOL    HW2 7755   3.971   2.099   4.164 -2.1273  1.9434  3.3274
 2337SOL     OW 7756   1.263   2.623   2.836 -0.4202  0.4253 -0.1347
 2337SOL    HW1 7757   1.168   2.614   2.827 -0.2515 -1.0915 -0.6946
 2337SOL    HW2 7758   1.291   2.669   2.757 -0.3986 -1.7630 -1.5105
 2338SOL     OW 7759   6.173   4.752   3.554  0.4038 -0.1270 -0.0534
 2338SOL    HW1 7760   6.246   4.811   3.572  1.4699 -0.9513 -1.4325
 2338SOL    HW2 7761   6.134   4.735   3.640 -0.3686  3.0306  0.3551
 2339SOL     OW 7762   4.928   4.242   4.319  0.2830 -0.3862 -0.4470
 2339SOL    HW1 7763   4.848   4.296   4.321 -0.3164 -1.2325 -0.8513
 2339SOL    HW2 7764   4.999   4.306   4.311 -0.2989  0.4168  0.5207
 2340SOL     OW 7765   0.731   0.372   4.461  0.1260 -1.3216  0.5003
 2340SOL    HW1 7766   0.729   0.313   4.385  1.4673 -0.4442 -0.2603
 2340SOL    HW2 7767   0.648   0.356   4.506 -1.2855 -1.0182 -1.8073
 2341SOL     OW 7768   6.189   4.045   3.898  0.8478 -0.2286  0.3842
 2341SOL    HW1 7769   6.194   3.983   3.825  1.5508 -1.1782  1.1974
 2341SOL    HW2 7770   6.281   4.062   3.921  0.6603  1.0888  0.2190
 2342SOL     OW 7771   3.268   0.664   4.266  0.4373  0.4852  0.0585
 2342SOL    HW1 7772   3.345   0.648   4.321 -1.1251 -1.3305  1.8568
 2342SOL    HW2 7773   3.228   0.743   4.302  1.5410  1.6478 -1.1048
 2343SOL     OW 7774   1.750   3.578   5.607 -0.6428 -0.2620  0.0358
 2343SOL    HW1 7775   1.660   3.588   5.576 -0.8271  0.3377  0.7289
 2343SOL    HW2 7776   1.748   3.498   5.660 -0.3057 -1.3422 -1.5026
 2344SOL     OW 7777   4.591   1.545   4.849 -0.7313  0.0044  0.7617
 2344SOL    HW1 7778   4.517   1.516   4.796 -0.4508 -2.9730  1.8330
 2344SOL    HW2 7779   4.645   1.596   4.788 -2.8328  0.9620 -0.4236
 2345SOL     OW 7780   5.371   4.602   6.283  0.4688  0.2388 -0.5756
 2345SOL    HW1 7781   5.397   4.547   6.357 -0.4520 -1.2675 -1.3376
 2345SOL    HW2 7782   5.373   4.544   6.207  0.9877  1.6540 -1.6879
 2346SOL     OW 7783   4.236   3.493   0.341  0.5582 -0.5166 -0.3202
 2346SOL    HW1 7784   4.153   3.526   0.375  1.1845  0.1553  0.6265
 2346SOL    HW2 7785   4.248   3.409   0.385  0.0154 -0.9883 -1.0562
 2347SOL     OW 7786   4.089   1.726   2.988 -0.0020 -0.1459  0.3602
 2347SOL    HW1 7787   4.110   1.806   3.036  0.2859 -0.5699  0.9461
 2347SOL    HW2 7788   4.047   1.757   2.907  0.9367  0.6284  0.1579
 2348SOL     OW 7789   2.416   1.158   4.851 -0.2897 -0.1853  0.2169
 2348SOL    HW1 7790   2.414   1.117   4.765 -2.4172  1.0653 -0.4152
 2348SOL    HW2 7791   2.327   1.190   4.864  0.6749  2.2858  1.5611
 2349SOL     OW 7792   0.930   3.366   5.471  0.7151  0.0461 -0.2353
 2349SOL    HW1 7793   0.948   3.418   5.550  0.8520  1.0705 -0.9302
 2349SOL    HW2 7794   1.005   3.381   5.415  0.0188  0.3728 -1.1001
 2350SOL     OW 7795   0.370   5.844   1.188  0.0909  0.2225  0.2545
 2350SOL    HW1 7796   0.434   5.788   1.232 -1.6240 -0.7688  1.6016
 2350SOL    HW2 7797   0.347   5.796   1.108  1.3245  0.8103 -0.4840
 2351SOL     OW 7798   2.439   4.128   4.963 -0.3032 -0.0867  0.6882
 2351SOL    HW1 7799   2.510   4.141   4.901 -0.2011 -3.7500 -0.1868
 2351SOL    HW2 7800   2.481   4.092   5.041 -1.0309 -1.3703  0.5233
 2352SOL     OW 7801   2.555   0.399   1.247  0.3691  0.7861  0.8167
 2352SOL    HW1 7802   2.520   0.314   1.219  1.2851  0.8068 -0.4897
 2352SOL    HW2 7803   2.584   0.441   1.166  1.7543  1.5091  1.6559
 2353SOL     OW 7804   2.520   0.724   3.509  0.2582 -0.4078  0.1483
 2353SOL    HW1 7805   2.610   0.757   3.506  0.3597 -0.1873  3.1422
 2353SOL    HW2 7806   2.513   0.668   3.431  2.1927  1.3385 -1.4079
 2354SOL     OW 7807   0.329   5.227   1.008  0.1797 -0.2957  0.1053
 2354SOL    HW1 7808   0.265   5.266   1.068 -1.1670 -1.3278 -0.5971
 2354SOL    HW2 7809   0.284   5.151   0.972  1.4058 -0.4051 -1.2722
 2355SOL     OW 7810   4.689   5.274   5.043  0.0364  0.0442 -0.0961
 2355SOL    HW1 7811   4.602   5.308   5.065  0.1388  1.8033 -2.0515
 2355SOL    HW2 7812   4.674   5.181   5.026 -2.0874  0.7648 -2.9779
 2356SOL     OW 7813   3.808   2.266   5.165  0.4151 -0.1389  0.5191
 2356SOL    HW1 7814   3.825   2.194   5.104 -0.4248 -0.6129  0.8176
 2356SOL    HW2 7815   3.752   2.326   5.115 -0.1242 -0.4385  0.7586
 2357SOL     OW 7816   1.746   2.991   5.663 -0.1132 -0.2018 -0.3724
 2357SOL    HW1 7817   1.758   3.069   5.610 -0.1465 -0.7421 -1.1822
 2357SOL    HW2 7818   1.831   2.976   5.703 -0.0683  0.1623 -0.3279
 2358SOL     OW 7819   4.519   2.915   4.415 -0.7038 -0.0592  0.6618
 2358SOL    HW1 7820   4.602   2.879   4.446 -0.0868 -0.6072 -1.4665
 2358SOL    HW2 7821   4.544   2.975   4.344 -2.0817  0.5214  0.6308
 2359SOL     OW 7822   2.347   0.876   0.469  0.0070  0.1957  0.0020
 2359SOL    HW1 7823   2.422   0.935   0.477  0.9680 -1.1801  1.6108
 2359SOL    HW2 7824   2.287   0.923   0.411  2.2232  1.1936 -1.6510
 2360SOL     OW 7825   4.544   1.060   1.790  0.4215 -0.3267  0.1072
 2360SOL    HW1 7826   4.637   1.049   1.807  0.3368 -0.3140  0.6115
 2360SOL    HW2 7827   4.529   1.155   1.800 -0.0730 -0.5781  2.4344
 2361SOL     OW 7828   0.612   5.879   0.613  0.9973 -0.1719  0.1369
 2361SOL    HW1 7829   0.677   5.810   0.612  1.0283 -0.1398 -0.5232
 2361SOL    HW2 7830   0.637   5.938   0.542  1.4383  0.9705  1.1853
 2362SOL     OW 7831   1.281   4.557   5.471 -0.1130  0.1303  0.5656
 2362SOL    HW1 7832   1.316   4.566   5.382  1.6332 -0.6086  1.1332
 2362SOL    HW2 7833   1.192   4.523   5.459  0.1866 -0.1987 -0.8852
 2363SOL     OW 7834   4.228   1.611   3.426 -0.2242  0.2139 -0.0164
 2363SOL    HW1 7835   4.224   1.576   3.515  0.7677  0.3213  0.0807
 2363SOL    HW2 7836   4.136   1.622   3.400 -0.5278 -0.4588  0.7347
 2364SOL     OW 7837   4.762   2.187   4.218 -0.4019 -0.6902  0.6052
 2364SOL    HW1 7838   4.777   2.281   4.225  1.1247 -0.9744  1.7738
 2364SOL    HW2 7839   4.750   2.171   4.125  1.5801  0.3707  0.1172
 2365SOL     OW 7840   3.311   1.592   1.286 -0.3077  0.2010  0.2082
 2365SOL    HW1 7841   3.219   1.580   1.308 -1.0229  1.9852 -1.5429
 2365SOL    HW2 7842   3.329   1.684   1.306  0.5878  0.3397 -1.0945
 2366SOL     OW 7843   2.736   1.532   1.446  0.0816  0.0145  0.5210
 2366SOL    HW1 7844   2.663   1.520   1.506 -1.7147  0.8446 -1.3705
 2366SOL    HW2 7845   2.739   1.451   1.395 -0.6800  0.6102 -0.5255
 2367SOL     OW 7846   0.572   1.925   4.045 -0.1690  0.6040 -0.3697
 2367SOL    HW1 7847   0.617   1.843   4.024  0.6630  1.1620 -0.8084
 2367SOL    HW2 7848   0.554   1.965   3.960  0.3249  1.3467 -0.1351
 2368SOL     OW 7849   6.261   3.400   2.907 -0.1744  0.2022 -0.2164
 2368SOL    HW1 7850   6.271   3.407   3.002 -1.9413 -1.6168  0.1652
 2368SOL    HW2 7851   6.169   3.380   2.894  0.4525 -1.8920 -2.1455
 2369SOL     OW 7852   5.282   2.200   3.115  0.3211  0.4258  0.2812
 2369SOL    HW1 7853   5.259   2.282   3.158  2.0332  1.2501 -0.3163
 2369SOL    HW2 7854   5.366   2.175   3.153 -0.0363 -0.9369  0.2542
 2370SOL     OW 7855   1.602   1.059   1.917 -0.2059  0.1361  0.2860
 2370SOL    HW1 7856   1.578   0.967   1.910 -0.9841  0.2687  0.9917
 2370SOL    HW2 7857   1.696   1.061   1.901 -0.1322 -0.8178  0.5427
 2371SOL     OW 7858   2.059   5.951   5.872 -0.3890  0.4060  0.0777
 2371SOL    HW1 7859   2.025   5.966   5.784  0.7568  0.3144 -0.3989
 2371SOL    HW2 7860   2.017   5.869   5.900  0.5398 -0.4968 -1.0813
 2372SOL     OW 7861   3.311   2.611   2.662 -0.5752 -0.3108  0.0852
 2372SOL    HW1 7862   3.289   2.571   2.577 -0.6826  0.0577 -0.0640
 2372SOL    HW2 7863   3.347   2.540   2.714  1.6194 -0.1005 -1.0342
 2373SOL     OW 7864   1.605   3.668   3.535 -0.1801 -0.2237 -0.2988
 2373SOL    HW1 7865   1.689   3.634   3.503 -0.8152 -0.3018 -1.9795
 2373SOL    HW2 7866   1.545   3.594   3.531 -0.7312  0.2334 -0.7000
 2374SOL     OW 7867   1.743   0.262   0.137 -0.4177 -0.3307  0.4795
 2374SOL    HW1 7868   1.744   0.343   0.087 -0.9660 -0.2454  0.6063
 2374SOL    HW2 7869   1.730   0.193   0.072  1.5485 -0.4720  0.1722
 2375SOL     OW 7870   4.372   1.929   4.621  0.0266 -0.6144  0.3909
 2375SOL    HW1 7871   4.432   1.921   4.547 -0.8363 -0.8681 -0.2974
 2375SOL    HW2 7872   4.314   2.002   4.597  1.9235  1.7337  2.4050
 2376SOL     OW 7873   5.829   3.827   3.313  0.4099 -0.5079  0.2156
 2376SOL    HW1 7874   5.792   3.851   3.398 -1.8647 -0.9713 -0.5681
 2376SOL    HW2 7875   5.921   3.809   3.331 -0.1004 -1.0082  2.6628
 2377SOL     OW 7876   4.405   2.141   1.249  0.7775  0.2399 -0.3544
 2377SOL    HW1 7877   4.499   2.148   1.262  0.7263  0.1173  0.1045
 2377SOL    HW2 7878   4.383   2.052   1.276  0.7163 -0.1786 -1.6932
 2378SOL     OW 7879   1.764   1.851   5.920 -0.3367 -0.2513 -0.2278
 2378SOL    HW1 7880   1.712   1.928   5.899 -0.9219  0.1144  2.2477
 2378SOL    HW2 7881   1.775   1.806   5.837 -0.8496  1.9588 -1.5630
 2379SOL     OW 7882   3.144   1.288   2.722 -0.0649 -0.1467 -0.1465
 2379SOL    HW1 7883   3.109   1.235   2.794  0.6029 -0.4196 -0.0150
 2379SOL    HW2 7884   3.125   1.378   2.747  0.8948 -0.1771  0.7932
 2380SOL     OW 7885   1.416   2.080   5.990  0.0198  0.5415 -0.1728
 2380SOL    HW1 7886   1.439   2.173   5.989  0.0776  0.5247 -0.7526
 2380SOL    HW2 7887   1.454   2.045   5.909  0.0502  0.0014  0.0724
 2381SOL     OW 7888   5.142   0.598   0.069  0.3708  0.1307 -0.1099
 2381SOL    HW1 7889   5.062   0.549   0.054 -0.7531  1.2251  1.8527
 2381SOL    HW2 7890   5.114   0.689   0.075  1.8140  0.5829  0.2402
 2382SOL     OW 7891   3.366   3.360   3.338  0.3451 -0.2656  0.0418
 2382SOL    HW1 7892   3.388   3.283   3.286 -0.5147 -1.0686  0.8470
 2382SOL    HW2 7893   3.273   3.352   3.356  0.3375  0.7178  0.5430
 2383SOL     OW 7894   1.253   5.190   0.823  0.2349  0.2523 -0.3643
 2383SOL    HW1 7895   1.245   5.165   0.915 -1.0621 -0.2315 -0.5996
 2383SOL    HW2 7896   1.343   5.164   0.800  0.7186  0.7428  0.8534
 2384SOL     OW 7897   1.011   0.124   1.263  0.1832 -0.2738 -0.0516
 2384SOL    HW1 7898   1.076   0.054   1.256  0.6335  0.0373  0.8935
 2384SOL    HW2 7899   0.952   0.110   1.189  0.1065 -1.8140  0.2822
 2385SOL     OW 7900   3.900   1.401   6.300  0.6399 -0.0083 -0.1602
 2385SOL    HW1 7901   3.822   1.364   6.343 -0.5890  0.2963 -2.0425
 2385SOL    HW2 7902   3.959   1.326   6.291 -0.8272 -1.0685 -1.6982
 2386SOL     OW 7903   4.770   3.721   5.805 -0.2724 -0.3065 -0.4414
 2386SOL    HW1 7904   4.807   3.634   5.821 -0.3273 -0.0931  1.0509
 2386SOL    HW2 7905   4.678   3.705   5.787  0.3862 -0.8349 -4.0993
 2387SOL     OW 7906   4.562   1.920   4.412 -0.1811  0.9484  0.1022
 2387SOL    HW1 7907   4.507   1.971   4.353 -2.3238 -0.9885  0.2842
 2387SOL    HW2 7908   4.616   1.865   4.354  0.2349  1.5204 -0.0593
 2388SOL     OW 7909   6.281   3.806   1.488  0.2406 -0.6412 -0.5336
 2388SOL    HW1 7910   6.308   3.788   1.397  2.4537 -0.1057 -0.0416
 2388SOL    HW2 7911   6.209   3.868   1.479  0.0690 -0.9989 -1.9320
 2389SOL     OW 7912   5.547   0.056   3.578 -0.5569  0.1396  0.0316
 2389SOL    HW1 7913   5.525  -0.037   3.573 -0.1345  0.0904 -1.1170
 2389SOL    HW2 7914   5.569   0.070   3.670 -0.8756 -0.8365  0.2662
 2390SOL     OW 7915   0.471   1.629   0.647 -0.1477  0.0626 -0.6879
 2390SOL    HW1 7916   0.533   1.557   0.643 -0.7401 -0.4578 -0.5725
 2390SOL    HW2 7917   0.407   1.609   0.579 -0.3231  0.4728 -0.6456
 2391SOL     OW 7918   2.547   5.519   0.706  0.8215  0.0220  0.6137
 2391SOL    HW1 7919   2.498   5.458   0.651  1.8538 -1.9816  1.7723
 2391SOL    HW2 7920   2.637   5.514   0.674  1.1469 -0.0067  1.4887
 2392SOL     OW 7921   5.343   4.656   1.589  0.0687 -0.0816  0.2901
 2392SOL    HW1 7922   5.384   4.653   1.675  2.3411  0.6799 -0.7120
 2392SOL    HW2 7923   5.359   4.569   1.551  1.5473  0.4653 -0.4087
 2393SOL     OW 7924   2.231   0.995   3.683 -0.3612 -0.1127 -0.6055
 2393SOL    HW1 7925   2.290   1.052   3.733 -0.0704 -0.3754 -0.6428
 2393SOL    HW2 7926   2.144   1.016   3.716 -0.2851  0.5427 -0.8054
 2394SOL     OW 7927   4.906   5.250   3.195 -0.5222 -0.3658  0.1166
 2394SOL    HW1 7928   4.927   5.271   3.286  1.6823  2.5213 -0.9131
 2394SOL    HW2 7929   4.953   5.169   3.178  2.3154  1.0318  0.5959
 2395SOL     OW 7930   1.863   5.275   5.160  0.2688  0.4513 -0.3821
 2395SOL    HW1 7931   1.924   5.202   5.146  0.1619 -0.6964  3.8056
 2395SOL    HW2 7932   1.795   5.263   5.094  0.2184 -3.3643  0.1652
 2396SOL     OW 7933   0.894   5.396   1.497  0.2304  0.6917  0.4329
 2396SOL    HW1 7934   0.966   5.349   1.540 -0.4812  0.8320  1.8580
 2396SOL    HW2 7935   0.913   5.488   1.512  0.6727  0.8216 -0.7828
 2397SOL     OW 7936   3.160   6.024   1.900 -0.2464  0.1431  0.0058
 2397SOL    HW1 7937   3.225   5.961   1.869 -0.4868 -0.4664  0.6965
 2397SOL    HW2 7938   3.196   6.059   1.981 -1.0057 -0.6307  0.7088
 2398SOL     OW 7939   2.889   5.599   4.305  0.0017 -0.0997 -0.0674
 2398SOL    HW1 7940   2.959   5.554   4.353 -0.9045 -1.9484 -0.3613
 2398SOL    HW2 7941   2.809   5.576   4.353 -0.3988  2.3445  0.5321
 2399SOL     OW 7942   0.869   5.408   1.037  0.1234  0.4132 -0.2010
 2399SOL    HW1 7943   0.954   5.443   1.064  0.7367 -1.0317 -0.1829
 2399SOL    HW2 7944   0.889   5.354   0.961 -0.2502 -2.3396  1.5208
 2400SOL     OW 7945   5.755   3.678   5.354  0.1923  0.6264  0.0898
 2400SOL    HW1 7946   5.756   3.623   5.432  0.5902 -0.3322 -0.5696
 2400SOL    HW2 7947   5.759   3.768   5.387 -0.5168  0.2696  1.1902
 2401SOL     OW 7948   5.641   1.057   4.603  0.0816 -0.5016  0.1339
 2401SOL    HW1 7949   5.673   0.969   4.584 -0.0461 -0.6762  0.7005
 2401SOL    HW2 7950   5.678   1.078   4.689 -0.5580 -0.3353  0.3787
 2402SOL     OW 7951   1.166   0.745   4.471 -0.4484  0.2917 -0.1283
 2402SOL    HW1 7952   1.147   0.833   4.504 -0.0627  1.5532 -2.9697
 2402SOL    HW2 7953   1.259   0.747   4.450 -1.1077  0.6969 -3.8121
 2403SOL     OW 7954   0.874   2.544   0.721  0.6402  0.0591  0.0730
 2403SOL    HW1 7955   0.895   2.620   0.775  0.7718 -0.6086  1.0060
 2403SOL    HW2 7956   0.944   2.482   0.740 -0.1896 -0.8110  0.4150
 2404SOL     OW 7957   1.005   3.570   2.820  0.3084 -0.1490  0.4321
 2404SOL    HW1 7958   1.034   3.511   2.750 -0.5626 -1.6074  1.2533
 2404SOL    HW2 7959   0.923   3.608   2.787  0.1339 -0.4890  0.4691
 2405SOL     OW 7960   1.113   5.292   6.002  0.0654 -0.1015  0.4233
 2405SOL    HW1 7961   1.183   5.234   5.972 -0.2765  0.5581 -1.7831
 2405SOL    HW2 7962   1.061   5.309   5.924 -2.0125  0.2116  1.8097
 2406SOL     OW 7963   4.277   2.207   0.140  0.2614  0.3707  0.3672
 2406SOL    HW1 7964   4.208   2.163   0.190 -0.2463  1.3862  0.5915
 2406SOL    HW2 7965   4.241   2.217   0.052 -0.2163  1.5695  0.6701
 2407SOL     OW 7966   3.332   0.273   2.281 -0.3870 -0.1354  0.7533
 2407SOL    HW1 7967   3.301   0.276   2.371  0.8100  1.8555  1.1490
 2407SOL    HW2 7968   3.382   0.191   2.276  0.1414  0.0845  2.1114
 2408SOL     OW 7969   4.622   1.812   4.949  0.2350  0.5367  0.0243
 2408SOL    HW1 7970   4.628   1.726   4.906  0.4211 -0.2563  1.5772
 2408SOL    HW2 7971   4.703   1.857   4.924  0.6219 -0.1410  0.0480
 2409SOL     OW 7972   6.298   3.780   6.087  0.4553  0.0873  0.2923
 2409SOL    HW1 7973   6.206   3.778   6.112  0.2752  1.1027 -0.2493
 2409SOL    HW2 7974   6.299   3.816   5.999  1.3521 -0.1416  0.1972
 2410SOL     OW 7975   4.290   5.305   0.912  0.8022  0.4260 -0.2767
 2410SOL    HW1 7976   4.214   5.247   0.902 -0.7133  2.2355  0.3275
 2410SOL    HW2 7977   4.352   5.254   0.965 -1.0875 -0.1295  1.5261
 2411SOL     OW 7978   1.743   0.888   2.424 -1.1490 -0.0471 -0.1783
 2411SOL    HW1 7979   1.732   0.983   2.423 -0.2737  0.0706 -2.1786
 2411SOL    HW2 7980   1.655   0.854   2.407 -1.7724  0.3016  2.0025
 2412SOL     OW 7981   4.638   4.273   0.081  0.1819  0.2766  0.0915
 2412SOL    HW1 7982   4.686   4.253   0.161 -0.5229  1.5400  0.8738
 2412SOL    HW2 7983   4.656   4.366   0.065  1.3585 -0.2524 -1.9744
 2413SOL     OW 7984   5.553   1.074   3.151  0.2475 -0.3297  0.2138
 2413SOL    HW1 7985   5.571   1.139   3.219  3.3536  0.2993 -1.0632
 2413SOL    HW2 7986   5.499   1.008   3.195  0.9526  0.7352  2.8693
 2414SOL     OW 7987   2.778   0.062   0.859  0.7515 -0.3341  0.3473
 2414SOL    HW1 7988   2.718  -0.013   0.860  0.4354 -0.0814  0.2901
 2414SOL    HW2 7989   2.801   0.075   0.952  1.0499 -0.6934  0.3263
 2415SOL     OW 7990   3.854   0.241   3.508  0.1503 -0.3707 -0.2837
 2415SOL    HW1 7991   3.888   0.251   3.597  0.2528  0.3911 -0.3950
 2415SOL    HW2 7992   3.867   0.149   3.488 -1.0470 -0.8415  0.9591
 2416SOL     OW 7993   2.188   3.190   0.816  0.1696  0.4490 -0.1559
 2416SOL    HW1 7994   2.239   3.202   0.736  0.2188 -1.4307 -0.4567
 2416SOL    HW2 7995   2.147   3.276   0.832  2.3192  1.6232 -0.6422
 2417SOL     OW 7996   2.477   3.894   0.278 -0.4558 -0.1609 -0.1153
 2417SOL    HW1 7997   2.445   3.897   0.368 -0.8305  0.5947 -0.2736
 2417SOL    HW2 7998   2.398   3.894   0.224 -0.2848 -1.9387 -0.4326
 2418SOL     OW 7999   0.244   4.818   1.348  0.6057 -0.4979  0.4295
 2418SOL    HW1 8000   0.188   4.868   1.290  0.1207  1.2708  2.2846
 2418SOL    HW2 8001   0.332   4.855   1.335  0.3437  0.5206  1.3979
 2419SOL     OW 8002   0.764   4.418   1.613 -0.2148  0.1379  0.5767
 2419SOL    HW1 8003   0.833   4.479   1.637 -1.0585  1.0878  0.6219
 2419SOL    HW2 8004   0.807   4.332   1.613  0.5357  0.4746  2.3993
 2420SOL     OW 8005   2.078   5.035   1.225  0.1282  0.1357 -0.0703
 2420SOL    HW1 8006   2.155   4.979   1.231 -0.3339 -0.6819 -1.1670
 2420SOL    HW2 8007   2.082   5.072   1.136 -0.5766  0.3101 -0.0387
 2421SOL     OW 8008   1.397   2.438   2.272 -0.1740 -0.1684 -0.1390
 2421SOL    HW1 8009   1.303   2.448   2.255 -0.0925  0.9389 -0.0043
 2421SOL    HW2 8010   1.408   2.345   2.291 -0.9306 -0.6814 -2.0201
 2422SOL     OW 8011   3.586   1.406   5.863  0.2287  0.7437 -0.1595
 2422SOL    HW1 8012   3.670   1.396   5.907  0.9676 -0.1092 -1.6716
 2422SOL    HW2 8013   3.571   1.500   5.861  0.9175  0.8766  0.5655
 2423SOL     OW 8014   1.129   5.847   1.845  0.5459  0.2553 -0.5085
 2423SOL    HW1 8015   1.064   5.812   1.784 -0.1381 -0.4461  0.5778
 2423SOL    HW2 8016   1.213   5.818   1.809  0.1112 -0.8276 -0.7120
 2424SOL     OW 8017   2.268   0.280   4.989 -0.0034  0.2598  0.2887
 2424SOL    HW1 8018   2.337   0.328   5.034  0.1787  0.3099 -0.0389
 2424SOL    HW2 8019   2.249   0.333   4.911  0.8682 -0.6756 -0.5846
 2425SOL     OW 8020   0.217   4.563   3.192 -0.2680  0.3435 -0.3719
 2425SOL    HW1 8021   0.127   4.544   3.167 -0.8333  0.7075  1.2670
 2425SOL    HW2 8022   0.210   4.617   3.271  1.3682 -0.5727  0.4753
 2426SOL     OW 8023   2.021   4.060   3.656 -0.1792 -0.4567 -0.2037
 2426SOL    HW1 8024   2.038   4.010   3.576 -0.9572  0.0882 -0.7251
 2426SOL    HW2 8025   1.942   4.020   3.693  0.0697 -0.5854  0.1937
 2427SOL     OW 8026   2.840   5.638   0.253  1.0580  0.0230  0.1557
 2427SOL    HW1 8027   2.766   5.632   0.313  0.8515 -0.7037 -0.1578
 2427SOL    HW2 8028   2.805   5.684   0.177  0.2328 -2.3090 -0.9724
 2428SOL     OW 8029   0.594   1.713   1.120  0.3103  0.3257 -0.7376
 2428SOL    HW1 8030   0.527   1.671   1.067 -0.4818 -0.3646  0.7338
 2428SOL    HW2 8031   0.608   1.798   1.079 -2.3348  0.9737 -0.4346
 2429SOL     OW 8032   5.500   4.002   3.771 -0.5600 -0.3287 -0.1976
 2429SOL    HW1 8033   5.521   4.040   3.685  2.9271 -2.3583 -0.4577
 2429SOL    HW2 8034   5.518   3.908   3.761 -4.5687 -1.5137  1.5989
 2430SOL     OW 8035   4.949   0.151   3.663 -0.3613  0.3804  0.2504
 2430SOL    HW1 8036   5.026   0.168   3.608 -1.1071  0.2551 -0.8499
 2430SOL    HW2 8037   4.883   0.212   3.631 -1.1309 -0.3945  0.3410
 2431SOL     OW 8038   0.179   4.820   3.682  0.1877 -0.0475  0.3122
 2431SOL    HW1 8039   0.228   4.793   3.759  3.1072  1.2533 -0.9544
 2431SOL    HW2 8040   0.200   4.912   3.671  0.0428 -0.2486 -2.1610
 2432SOL     OW 8041   0.147   5.827   4.661 -0.3098  0.0795  0.4525
 2432SOL    HW1 8042   0.055   5.829   4.685 -0.2884  2.1574  0.5446
 2432SOL    HW2 8043   0.191   5.876   4.731  0.7159  0.0365 -0.1347
 2433SOL     OW 8044   4.608   5.641   0.332 -0.4159  0.0158  0.4640
 2433SOL    HW1 8045   4.546   5.577   0.298 -0.3769  1.3931 -2.4873
 2433SOL    HW2 8046   4.594   5.719   0.279  1.2579  1.6504  2.2466
 2434SOL     OW 8047   1.714   2.193   3.143  0.1701 -0.2094 -0.4727
 2434SOL    HW1 8048   1.668   2.195   3.227 -0.5452  0.8739 -0.8685
 2434SOL    HW2 8049   1.694   2.278   3.103  2.3272  0.2267 -0.7647
 2435SOL     OW 8050   4.141   1.875   3.666 -0.2537  0.0691 -0.2336
 2435SOL    HW1 8051   4.115   1.956   3.622 -1.0037 -0.0051  0.0680
 2435SOL    HW2 8052   4.093   1.876   3.748  0.5984 -0.1392  0.2792
 2436SOL     OW 8053   5.156   5.943   5.503 -0.2589  0.0341  0.1581
 2436SOL    HW1 8054   5.181   5.856   5.535  0.1414 -0.0173 -0.2958
 2436SOL    HW2 8055   5.227   5.970   5.446  0.4939  1.4049  1.6330
 2437SOL     OW 8056   1.803   3.770   0.088 -0.3621 -0.0563  0.4358
 2437SOL    HW1 8057   1.800   3.688   0.137  0.1999 -0.4733 -0.1978
 2437SOL    HW2 8058   1.888   3.767   0.042 -1.2962 -0.1889 -1.3944
 2438SOL     OW 8059   0.171   1.960   5.441  0.1815 -0.3004 -0.1551
 2438SOL    HW1 8060   0.248   1.976   5.387  0.9194  0.9386  1.1761
 2438SOL    HW2 8061   0.179   1.869   5.470  1.1360 -0.1860 -0.0489
 2439SOL     OW 8062   2.515   5.788   4.295 -0.0308  0.4993  0.3493
 2439SOL    HW1 8063   2.547   5.698   4.293  0.0261  0.5011  0.8566
 2439SOL    HW2 8064   2.439   5.788   4.237  0.3130  0.2636 -0.0988
 2440SOL     OW 8065   0.945   4.406   6.139 -0.7569  0.4763  0.1116
 2440SOL    HW1 8066   0.851   4.407   6.119 -0.5703  0.3869 -0.8169
 2440SOL    HW2 8067   0.949   4.383   6.232 -1.6584  0.5834  0.1892
 2441SOL     OW 8068   4.669   5.444   5.661  0.0306  0.0831 -0.2644
 2441SOL    HW1 8069   4.599   5.477   5.604 -0.7691  0.1080  0.7085
 2441SOL    HW2 8070   4.727   5.396   5.602 -0.9234 -0.1167 -1.0643
 2442SOL     OW 8071   0.674   2.442   4.777  0.5486 -0.2649 -0.5413
 2442SOL    HW1 8072   0.636   2.446   4.689  1.2794 -2.0317 -0.9862
 2442SOL    HW2 8073   0.604   2.406   4.831 -0.2717  1.8250 -0.1181
 2443SOL     OW 8074   0.867   5.175   2.710  0.2522 -0.0326  0.4027
 2443SOL    HW1 8075   0.947   5.182   2.760  0.5965  0.1984 -0.1672
 2443SOL    HW2 8076   0.811   5.116   2.761  0.4009  0.5810  1.2879
 2444SOL     OW 8077   1.478   2.536   2.701  0.2375  0.4327  0.1755
 2444SOL    HW1 8078   1.390   2.565   2.724  0.3450  0.0793  1.1142
 2444SOL    HW2 8079   1.488   2.557   2.608 -0.9349  0.2134 -0.0100
 2445SOL     OW 8080   4.509   6.216   4.585 -0.0494 -0.3196  0.0903
 2445SOL    HW1 8081   4.551   6.299   4.561 -0.7529 -0.0913 -0.3696
 2445SOL    HW2 8082   4.442   6.203   4.519  0.1852 -1.3661  0.0436
 2446SOL     OW 8083   0.725   2.695   3.085 -0.1776 -0.0361 -0.5170
 2446SOL    HW1 8084   0.646   2.688   3.031 -0.9193  1.5557  0.2965
 2446SOL    HW2 8085   0.735   2.789   3.102 -0.0266 -0.4470  2.1445
 2447SOL     OW 8086   5.688   1.063   0.092 -0.3067  0.2889 -0.5409
 2447SOL    HW1 8087   5.597   1.045   0.116 -0.3207  2.0733  0.8907
 2447SOL    HW2 8088   5.722   0.978   0.065 -1.7006 -0.9123  1.2279
 2448SOL     OW 8089   5.661   1.806   3.205  0.1071 -0.1633 -0.6381
 2448SOL    HW1 8090   5.741   1.786   3.255  1.2584 -0.7235 -2.6189
 2448SOL    HW2 8091   5.655   1.902   3.207 -1.5731 -0.1530  2.9947
 2449SOL     OW 8092   4.640   1.732   4.649 -0.4563  0.3669  0.1799
 2449SOL    HW1 8093   4.712   1.761   4.593  0.0697 -2.1161 -0.5691
 2449SOL    HW2 8094   4.598   1.813   4.678  0.5715  1.8205 -2.0737
 2450SOL     OW 8095   3.228   0.592   4.664  0.2531  0.3049 -0.2316
 2450SOL    HW1 8096   3.268   0.509   4.691  1.2629  0.5572 -0.8874
 2450SOL    HW2 8097   3.302   0.646   4.637 -0.3411  1.6268  0.6965
 2451SOL     OW 8098   3.786   0.006   5.969  0.4260 -0.3070 -0.5607
 2451SOL    HW1 8099   3.739  -0.075   5.947 -0.4331  0.0352 -0.0426
 2451SOL    HW2 8100   3.877  -0.021   5.978  0.2106 -1.1439 -0.8007
 2452SOL     OW 8101   6.264   4.535   5.768 -0.2093 -0.1529  0.1969
 2452SOL    HW1 8102   6.209   4.610   5.793  0.1217 -0.0547  0.6421
 2452SOL    HW2 8103   6.324   4.524   5.842  1.3493  0.6599 -0.8955
 2453SOL     OW 8104   5.520   3.109   0.231 -0.3052  0.0348 -0.0810
 2453SOL    HW1 8105   5.570   3.090   0.152 -1.8512 -1.3455 -0.7745
 2453SOL    HW2 8106   5.586   3.128   0.297  1.0552  0.1851 -1.4322
 2454SOL     OW 8107   2.593   1.096   0.545 -0.1570  0.1175 -0.5054
 2454SOL    HW1 8108   2.606   1.002   0.531  0.6066  0.1329  0.0474
 2454SOL    HW2 8109   2.673   1.136   0.513 -0.7879  0.6668 -1.4540
 2455SOL     OW 8110   0.200   2.838   2.328  0.2158 -0.1022 -0.4565
 2455SOL    HW1 8111   0.225   2.830   2.420 -0.3379 -0.3146 -0.3166
 2455SOL    HW2 8112   0.190   2.932   2.314 -2.6053 -0.1519  0.5396
 2456SOL     OW 8113   3.299   1.794   2.836 -0.0921 -0.2181 -0.0084
 2456SOL    HW1 8114   3.341   1.752   2.761 -0.3988  0.3123 -0.4899
 2456SOL    HW2 8115   3.369   1.809   2.899  0.6582  1.5162 -1.1855
 2457SOL     OW 8116   3.852   2.568   1.948 -0.2486  0.1489 -0.0035
 2457SOL    HW1 8117   3.761   2.551   1.925 -1.5027  4.6419  0.6494
 2457SOL    HW2 8118   3.862   2.662   1.939  3.4906  0.2905  2.9512
 2458SOL     OW 8119   1.905   5.804   2.987 -0.4684 -0.1122 -0.5051
 2458SOL    HW1 8120   1.881   5.755   2.909  0.3791  0.8801 -1.4161
 2458SOL    HW2 8121   1.906   5.895   2.959  0.5041  0.2041  0.4922
 2459SOL     OW 8122   0.822   6.030   3.964  0.4562  0.4338 -0.1046
 2459SOL    HW1 8123   0.867   5.997   3.886  0.2378  1.0023 -0.4820
 2459SOL    HW2 8124   0.768   5.957   3.994 -0.8983  0.7738 -1.5905
 2460SOL     OW 8125   4.777   5.185   3.815 -0.5695  0.0191  0.3297
 2460SOL    HW1 8126   4.815   5.270   3.836 -1.7479  0.1797  1.9810
 2460SOL    HW2 8127   4.815   5.125   3.879 -0.9489 -0.3845  0.1813
 2461SOL     OW 8128   2.661   0.933   4.032  0.1455 -0.2397 -0.3444
 2461SOL    HW1 8129   2.716   0.921   4.110 -2.3870  2.4683  2.0829
 2461SOL    HW2 8130   2.571   0.926   4.063 -1.0111  0.8516 -3.0487
 2462SOL     OW 8131   0.190   6.185   0.495  0.0313  0.5396 -0.2555
 2462SOL    HW1 8132   0.263   6.128   0.519  0.1315  1.0610  0.7338
 2462SOL    HW2 8133   0.210   6.269   0.536  0.5511  1.7423 -2.7310
 2463SOL     OW 8134   5.114   1.167   0.740  0.2752 -0.2670 -0.2169
 2463SOL    HW1 8135   5.128   1.072   0.733  0.2033 -0.2652 -0.3935
 2463SOL    HW2 8136   5.133   1.187   0.831 -0.8705 -0.6394  0.1189
 2464SOL     OW 8137   4.934   1.622   4.811 -0.1214  0.0336 -0.3454
 2464SOL    HW1 8138   4.910   1.547   4.866 -1.3902  1.6397  1.4152
 2464SOL    HW2 8139   4.904   1.598   4.724  0.7832 -2.0658 -0.1425
 2465SOL     OW 8140   1.108   3.477   6.101 -0.0795  0.0922  0.1199
 2465SOL    HW1 8141   1.130   3.393   6.061 -0.3386  0.5608 -1.0237
 2465SOL    HW2 8142   1.124   3.541   6.033 -0.0255  0.9693  0.9409
 2466SOL     OW 8143   1.032   5.176   2.426 -0.0443  0.0068 -0.3436
 2466SOL    HW1 8144   0.957   5.192   2.369 -0.2522 -1.6852 -0.6183
 2466SOL    HW2 8145   0.994   5.145   2.508  0.2697  2.1320  0.6779
 2467SOL     OW 8146   1.625   5.835   4.689  0.3204 -0.0004 -0.0004
 2467SOL    HW1 8147   1.675   5.906   4.729 -0.0078  0.0613  0.3072
 2467SOL    HW2 8148   1.688   5.764   4.679  0.0051 -0.7224  2.4158
 2468SOL     OW 8149   6.239   3.043   0.668  0.1548 -0.2666  0.8307
 2468SOL    HW1 8150   6.307   2.987   0.705  0.2945 -0.6250  0.0388
 2468SOL    HW2 8151   6.197   2.989   0.601  0.9868  0.8895 -0.7012
 2469SOL     OW 8152   5.955   1.853   5.888 -0.2124  0.2445  0.1682
 2469SOL    HW1 8153   5.990   1.940   5.906  1.0442 -0.2643  0.2945
 2469SOL    HW2 8154   5.905   1.864   5.807  0.9266  0.8492 -0.4881
 2470SOL     OW 8155   2.736   4.811   2.522  0.2066 -0.2323 -0.4421
 2470SOL    HW1 8156   2.662   4.776   2.572 -1.0227  0.5119 -1.6809
 2470SOL    HW2 8157   2.727   4.906   2.530  1.3302 -0.1280 -0.2156
 2471SOL     OW 8158   4.459   2.943   0.460 -0.4777  0.2571 -0.1306
 2471SOL    HW1 8159   4.402   2.966   0.533 -1.4920  1.4467 -1.2726
 2471SOL    HW2 8160   4.545   2.978   0.485 -0.7355  0.3474  0.6416
 2472SOL     OW 8161   5.261   1.681   4.840  0.3614  0.0454  0.0981
 2472SOL    HW1 8162   5.208   1.709   4.765 -0.9629  1.9948  1.6858
 2472SOL    HW2 8163   5.230   1.592   4.859  0.7037 -0.4810 -1.5893
 2473SOL     OW 8164   1.847   2.440   0.579  0.6410  0.0488 -0.3569
 2473SOL    HW1 8165   1.920   2.396   0.536  1.1609  0.3635  0.1979
 2473SOL    HW2 8166   1.875   2.532   0.584  1.5230 -0.2927  2.5359
 2474SOL     OW 8167   4.671   3.563   2.053  0.4263 -0.4334 -0.4206
 2474SOL    HW1 8168   4.749   3.559   1.997  0.3320 -2.3721 -0.4559
 2474SOL    HW2 8169   4.696   3.516   2.133 -0.4399 -0.3521 -0.0886
 2475SOL     OW 8170   3.226   1.164   0.838 -0.2432 -0.2110  0.2494
 2475SOL    HW1 8171   3.287   1.091   0.835 -0.1924 -0.1995  0.9109
 2475SOL    HW2 8172   3.164   1.147   0.767  0.8795  0.0914 -0.8304
 2476SOL     OW 8173   5.382   4.524   2.004 -0.0891  0.4156  0.1052
 2476SOL    HW1 8174   5.342   4.604   2.038  1.6928  0.7654  1.5778
 2476SOL    HW2 8175   5.422   4.551   1.921 -2.2717  0.1916 -1.0927
 2477SOL     OW 8176   2.322   2.503   0.780  0.1295  0.8243 -0.8371
 2477SOL    HW1 8177   2.415   2.499   0.805 -0.4553 -0.1014  1.4541
 2477SOL    HW2 8178   2.321   2.473   0.689  2.0193  0.4134 -0.7746
 2478SOL     OW 8179   2.014   1.326   2.401 -0.0316 -0.5174 -0.9083
 2478SOL    HW1 8180   1.936   1.336   2.456 -1.0264 -4.1791 -1.3762
 2478SOL    HW2 8181   2.087   1.344   2.460 -1.1545 -0.3665  0.4853
 2479SOL     OW 8182   0.998   2.076   0.986 -0.4258 -0.1712  0.3136
 2479SOL    HW1 8183   0.908   2.045   0.992  0.4789 -3.1314  0.0889
 2479SOL    HW2 8184   1.004   2.115   0.899 -1.8250  1.5074  0.9073
 2480SOL     OW 8185   0.243   2.180   3.932  0.4068  0.2681  0.3602
 2480SOL    HW1 8186   0.338   2.187   3.932  0.5367 -1.1076  0.0873
 2480SOL    HW2 8187   0.226   2.095   3.974 -0.6501  0.0292 -0.5183
 2481SOL     OW 8188   5.023   3.181   3.762  0.1696 -0.7865 -0.7631
 2481SOL    HW1 8189   4.940   3.228   3.767  0.8958  0.4959 -0.0083
 2481SOL    HW2 8190   5.010   3.102   3.815 -0.7021 -0.8391 -1.0479
 2482SOL     OW 8191   4.586   5.799   3.041 -0.0754  0.0397 -0.3181
 2482SOL    HW1 8192   4.507   5.753   3.069  0.3915 -0.5707  0.0226
 2482SOL    HW2 8193   4.591   5.876   3.098 -1.1600  0.8252 -1.2580
 2483SOL     OW 8194   4.899   0.542   0.978  0.1057  0.0625  0.2351
 2483SOL    HW1 8195   4.907   0.629   0.939 -1.0982 -0.7516 -1.9602
 2483SOL    HW2 8196   4.979   0.533   1.030  1.3248  1.6208 -1.2433
 2484SOL     OW 8197   6.144   5.176   3.314  0.1044  0.1573 -0.1807
 2484SOL    HW1 8198   6.206   5.192   3.243 -2.3715 -0.1355 -2.5835
 2484SOL    HW2 8199   6.124   5.083   3.307  0.7035 -0.1514  1.7504
 2485SOL     OW 8200   4.633   0.831   2.136  0.4030 -0.4752 -0.0337
 2485SOL    HW1 8201   4.585   0.906   2.170  0.9971  0.2749 -0.8172
 2485SOL    HW2 8202   4.700   0.813   2.203  0.8480  0.2855 -0.2611
 2486SOL     OW 8203   0.470   1.814   0.105  0.0321  0.0977  0.0528
 2486SOL    HW1 8204   0.534   1.864   0.054  0.5807  0.4345  1.0431
 2486SOL    HW2 8205   0.431   1.755   0.042  0.1417  1.0294 -0.9283
 2487SOL     OW 8206   0.279   0.384   5.347 -0.4652 -1.5388 -0.1069
 2487SOL    HW1 8207   0.282   0.303   5.398  0.7126 -1.9207 -0.7473
 2487SOL    HW2 8208   0.370   0.412   5.341 -1.0897  1.8421  3.1456
 2488SOL     OW 8209   0.954   5.648   6.144 -0.3792 -0.2238  0.3639
 2488SOL    HW1 8210   1.030   5.634   6.088 -1.4078 -1.7743 -0.7469
 2488SOL    HW2 8211   0.889   5.586   6.112 -1.7284  0.2450  2.0115
 2489SOL     OW 8212   4.983   3.190   3.347 -0.0236  0.0343 -0.1361
 2489SOL    HW1 8213   4.931   3.116   3.317 -0.0207 -0.1362  0.2722
 2489SOL    HW2 8214   4.926   3.236   3.409  0.0401  0.2659 -0.2495
 2490SOL     OW 8215   3.654   5.627   5.586  0.0391 -0.0936 -0.4173
 2490SOL    HW1 8216   3.673   5.629   5.679 -1.6193  0.2252 -0.0430
 2490SOL    HW2 8217   3.727   5.672   5.544  0.6043  0.0960  0.7527
 2491SOL     OW 8218   2.005   5.097   5.476  0.0484 -0.2011 -0.3162
 2491SOL    HW1 8219   2.043   5.184   5.461  0.4809 -0.3411 -0.0366
 2491SOL    HW2 8220   2.066   5.054   5.536 -0.0868 -0.7511 -0.5658
 2492SOL     OW 8221   0.337   0.077   5.192  0.3064 -0.2840  0.3518
 2492SOL    HW1 8222   0.367  -0.012   5.210  1.1665 -0.5808 -2.1596
 2492SOL    HW2 8223   0.295   0.105   5.274  0.5609 -2.7364  1.4154
 2493SOL     OW 8224   2.035   1.623   4.956 -0.0397  0.2565  0.1037
 2493SOL    HW1 8225   1.997   1.710   4.943  1.5991  0.9817 -0.0171
 2493SOL    HW2 8226   2.124   1.630   4.923  0.4012 -1.2326  0.8899
 2494SOL     OW 8227   0.659   3.547   1.573  0.1909 -0.5236 -0.0748
 2494SOL    HW1 8228   0.679   3.583   1.486 -1.1531  0.4876  0.0015
 2494SOL    HW2 8229   0.563   3.546   1.577  0.2216 -1.6759  0.9622
 2495SOL     OW 8230   1.014   5.644   3.231 -0.9725  0.0263  0.5615
 2495SOL    HW1 8231   1.074   5.610   3.165 -1.5110  0.4075 -0.1322
 2495SOL    HW2 8232   1.071   5.687   3.295 -0.4496 -0.3133  0.3316
 2496SOL     OW 8233   3.781   1.349   6.056 -0.6870 -0.0172  0.6647
 2496SOL    HW1 8234   3.707   1.320   6.109 -0.7932  0.3509  0.7204
 2496SOL    HW2 8235   3.817   1.268   6.020 -0.4251 -0.3099  1.5455
 2497SOL     OW 8236   1.791   3.798   1.380  0.4292  0.4841  0.1890
 2497SOL    HW1 8237   1.882   3.794   1.411  0.6308 -0.2153 -0.4776
 2497SOL    HW2 8238   1.761   3.884   1.408  1.0577  0.4375  1.0718
 2498SOL     OW 8239   1.992   3.686   1.735  0.1053 -0.5035 -0.0851
 2498SOL    HW1 8240   2.020   3.725   1.818 -0.3928  0.5569 -0.4038
 2498SOL    HW2 8241   2.001   3.756   1.671  2.7280 -1.9489 -1.4420
 2499SOL     OW 8242   4.782   0.386   4.329  0.3816 -0.5712 -0.1016
 2499SOL    HW1 8243   4.727   0.461   4.309  0.4033 -0.2833  0.8584
 2499SOL    HW2 8244   4.784   0.383   4.425  0.8195 -1.4710 -0.1319
 2500SOL     OW 8245   3.148   3.467   4.964  0.2934 -0.1838  0.2089
 2500SOL    HW1 8246   3.221   3.502   4.913  1.2743 -0.6216  1.2629
 2500SOL    HW2 8247   3.097   3.417   4.901  0.9645  0.0489 -0.5379
 2501SOL     OW 8248   0.252   4.743   3.997 -0.1927  0.0194 -0.1822
 2501SOL    HW1 8249   0.266   4.666   4.053 -2.3238 -0.2383  0.0980
 2501SOL    HW2 8250   0.183   4.793   4.041 -2.4154 -0.4936 -2.7535
 2502SOL     OW 8251   5.196   6.071   0.053  0.0830 -0.2202 -0.0744
 2502SOL    HW1 8252   5.118   6.022   0.028  0.7943 -1.3781 -0.0679
 2502SOL    HW2 8253   5.266   6.032   0.001  0.5781  1.1969 -0.5270
 2503SOL     OW 8254   0.127   5.344   5.277 -0.1909  0.3124 -0.6636
 2503SOL    HW1 8255   0.102   5.340   5.185 -0.5114  0.8766 -0.6040
 2503SOL    HW2 8256   0.167   5.259   5.295  0.0296  0.2669 -1.3680
 2504SOL     OW 8257   2.008   4.855   0.365  0.1470  0.3114 -0.3150
 2504SOL    HW1 8258   1.932   4.827   0.314  0.1450  0.7997 -0.5890
 2504SOL    HW2 8259   1.972   4.916   0.430  0.3103  0.5995 -0.4915
 2505SOL     OW 8260   5.538   3.696   4.604  0.6367 -0.3482  0.1349
 2505SOL    HW1 8261   5.568   3.787   4.602 -0.6430  0.1011  0.4478
 2505SOL    HW2 8262   5.537   3.673   4.697 -1.4331  0.1749  0.2835
 2506SOL     OW 8263   0.665   2.044   5.195  0.6257  0.0749 -0.2117
 2506SOL    HW1 8264   0.646   2.067   5.104 -0.4535  0.0271 -0.0066
 2506SOL    HW2 8265   0.760   2.031   5.196  0.9743  2.0461 -0.8937
 2507SOL     OW 8266   1.512   4.457   2.499 -0.2941 -0.4198  0.0533
 2507SOL    HW1 8267   1.514   4.395   2.425  0.6794 -0.8436  0.4201
 2507SOL    HW2 8268   1.603   4.466   2.525 -0.4911  0.7069  0.4124
 2508SOL     OW 8269   5.555   2.961   4.178 -0.2071  0.7670  0.3862
 2508SOL    HW1 8270   5.535   3.031   4.116  0.2258  1.5900  1.1468
 2508SOL    HW2 8271   5.587   2.890   4.124  0.6087  1.6370 -0.3070
 2509SOL     OW 8272   2.800   4.887   4.162  0.2600  0.3223 -0.1343
 2509SOL    HW1 8273   2.828   4.870   4.252  0.7445 -1.1075 -0.5228
 2509SOL    HW2 8274   2.752   4.970   4.167 -1.6050 -0.7507  1.8394
 2510SOL     OW 8275   4.486   3.505   3.619  0.1995  0.5740 -0.2420
 2510SOL    HW1 8276   4.462   3.543   3.535  1.2126  2.0283  0.0963
 2510SOL    HW2 8277   4.505   3.580   3.675 -0.3493 -0.3623  1.2746
 2511SOL     OW 8278   3.268   1.397   3.918  0.0753  0.1690 -0.1727
 2511SOL    HW1 8279   3.356   1.390   3.955 -0.1981 -0.1491  0.4286
 2511SOL    HW2 8280   3.237   1.306   3.913  0.5721  0.0494 -2.3700
 2512SOL     OW 8281   3.730   5.547   4.347 -0.6118  0.8916  0.8812
 2512SOL    HW1 8282   3.775   5.507   4.272 -2.0344  0.4075  0.2599
 2512SOL    HW2 8283   3.776   5.630   4.360 -1.3126  1.7416 -1.5655
 2513SOL     OW 8284   0.244   5.158   2.426 -0.4564  0.2891  0.0522
 2513SOL    HW1 8285   0.223   5.206   2.346 -0.8122 -0.1496 -0.1243
 2513SOL    HW2 8286   0.167   5.169   2.482 -1.5729 -1.9652 -0.9023
 2514SOL     OW 8287   5.617   4.828   4.133  0.1545  0.5030 -0.1820
 2514SOL    HW1 8288   5.646   4.828   4.042  0.4710 -2.4501 -0.1709
 2514SOL    HW2 8289   5.522   4.815   4.128  0.4129 -1.6801 -0.1284
 2515SOL     OW 8290   4.687   2.649   2.666 -0.2621  0.4704  0.4139
 2515SOL    HW1 8291   4.663   2.738   2.642 -1.9621  0.2679  1.2269
 2515SOL    HW2 8292   4.639   2.632   2.748 -0.6813 -1.4717 -0.1762
 2516SOL     OW 8293   0.406   3.241   4.448 -0.6087 -0.4112  0.1422
 2516SOL    HW1 8294   0.486   3.282   4.482  0.6051 -1.6932 -1.0297
 2516SOL    HW2 8295   0.357   3.313   4.408 -0.3534  0.4985  1.4016
 2517SOL     OW 8296   2.481   6.209   5.400 -0.4162 -0.0738  0.1025
 2517SOL    HW1 8297   2.460   6.260   5.322 -0.3856 -0.6059 -0.2620
 2517SOL    HW2 8298   2.401   6.212   5.453 -1.0868 -1.2291 -0.8024
 2518SOL     OW 8299   5.252   4.315   6.202  0.1003  0.3666  0.3643
 2518SOL    HW1 8300   5.159   4.329   6.222  0.2748  2.8631 -0.2325
 2518SOL    HW2 8301   5.261   4.220   6.198 -2.4928  0.0452  0.0814
 2519SOL     OW 8302   0.237   0.139   5.493  0.2098 -0.2001  0.3112
 2519SOL    HW1 8303   0.228   0.053   5.452 -0.8115 -0.5606  1.2338
 2519SOL    HW2 8304   0.222   0.122   5.587  0.5764  0.8934  0.5792
 2520SOL     OW 8305   3.545   4.408   3.703  0.1718  0.6997  0.3211
 2520SOL    HW1 8306   3.630   4.405   3.659  0.1015 -0.8664  0.2294
 2520SOL    HW2 8307   3.506   4.491   3.676 -0.0622 -0.3297 -2.9490
 2521SOL     OW 8308   0.836   3.667   5.342  0.0353  0.6295  0.1744
 2521SOL    HW1 8309   0.920   3.684   5.385  0.6908  0.9956 -1.1945
 2521SOL    HW2 8310   0.858   3.620   5.262 -1.3438 -2.0592  1.2576
 2522SOL     OW 8311   1.366   4.105   4.723  0.0490 -0.5189 -0.6494
 2522SOL    HW1 8312   1.412   4.105   4.639 -0.7098 -0.5949 -1.0817
 2522SOL    HW2 8313   1.288   4.051   4.707 -0.6183  0.2839 -0.2037
 2523SOL     OW 8314   4.383   4.593   3.736 -0.3611  0.5534  0.2709
 2523SOL    HW1 8315   4.372   4.668   3.794  0.1327 -0.3706  1.6258
 2523SOL    HW2 8316   4.297   4.551   3.733 -0.4841  0.8225  0.0097
 2524SOL     OW 8317   1.647   4.526   3.795 -0.2258 -0.3497  0.3107
 2524SOL    HW1 8318   1.739   4.502   3.806 -0.2422 -0.3847  0.3710
 2524SOL    HW2 8319   1.639   4.611   3.837  0.3661  0.8922 -1.9190
 2525SOL     OW 8320   1.989   1.253   4.131 -0.6269 -0.5508 -0.1419
 2525SOL    HW1 8321   2.032   1.169   4.145 -1.1552 -0.6422  1.0014
 2525SOL    HW2 8322   1.946   1.244   4.046  2.2209 -0.1660 -1.7574
 2526SOL     OW 8323   1.047   1.100   2.941 -0.3562  0.1469 -0.2604
 2526SOL    HW1 8324   1.107   1.069   3.009  0.1049 -0.7630 -1.0483
 2526SOL    HW2 8325   1.045   1.195   2.951  2.4351  0.3898 -1.1684
 2527SOL     OW 8326   2.282   3.333   0.552  0.3555  0.2224  0.0405
 2527SOL    HW1 8327   2.258   3.426   0.558  1.3151  0.4895 -0.1813
 2527SOL    HW2 8328   2.372   3.330   0.583  0.6894 -0.4766 -0.9568
 2528SOL     OW 8329   1.348   1.922   3.922 -0.0698  0.0044  0.7243
 2528SOL    HW1 8330   1.353   1.871   4.003 -1.6025 -0.5816  0.4663
 2528SOL    HW2 8331   1.255   1.925   3.900  0.2394  0.8097 -0.6131
 2529SOL     OW 8332   0.600   5.151   3.405  0.4028 -0.3765  0.0468
 2529SOL    HW1 8333   0.675   5.195   3.364  0.2921 -0.8068 -0.6329
 2529SOL    HW2 8334   0.527   5.212   3.393  0.5071 -0.2257  0.1676
 2530SOL     OW 8335   5.164   4.453   4.990 -0.1174 -0.1083 -0.0674
 2530SOL    HW1 8336   5.083   4.494   5.020  0.1757 -0.7549  1.7172
 2530SOL    HW2 8337   5.140   4.408   4.909 -1.4042  0.1483  0.1527
 2531SOL     OW 8338   4.835   5.477   2.355  0.0015 -0.1767 -0.2279
 2531SOL    HW1 8339   4.838   5.535   2.280 -0.5262 -0.1691 -0.2472
 2531SOL    HW2 8340   4.906   5.506   2.411  0.6782 -0.4645 -0.9241
 2532SOL     OW 8341   0.208   3.631   3.715  0.6233 -0.2907  0.0842
 2532SOL    HW1 8342   0.141   3.562   3.719  0.2831  0.0699  1.0288
 2532SOL    HW2 8343   0.198   3.670   3.628 -1.0030  0.3260  0.5086
 2533SOL     OW 8344   1.991   3.339   0.431  0.3159 -0.5611 -0.1500
 2533SOL    HW1 8345   1.914   3.284   0.449  0.6806 -1.3179 -0.8239
 2533SOL    HW2 8346   1.970   3.423   0.470 -0.5333 -0.9908  0.3562
 2534SOL     OW 8347   6.009   1.558   0.354  0.6224 -0.2746  0.6032
 2534SOL    HW1 8348   6.046   1.611   0.425  0.2314  1.0482 -0.1472
 2534SOL    HW2 8349   6.030   1.606   0.274 -1.5713 -0.1472  0.0447
 2535SOL     OW 8350   3.242   2.329   4.985  0.0616 -0.1916 -0.1115
 2535SOL    HW1 8351   3.260   2.235   4.991  0.1058 -0.1532  0.4320
 2535SOL    HW2 8352   3.300   2.360   4.915 -0.8737 -0.7892 -1.1790
 2536SOL     OW 8353   6.018   5.661   2.258  0.1724  0.8088  0.1261
 2536SOL    HW1 8354   5.971   5.607   2.194 -0.8838 -1.7986  2.8516
 2536SOL    HW2 8355   6.110   5.646   2.239 -0.1133 -1.0354 -0.0076
 2537SOL     OW 8356   0.284   5.014   0.826 -0.0150 -0.0347 -0.2849
 2537SOL    HW1 8357   0.256   4.952   0.893  0.4832 -0.7806 -0.7435
 2537SOL    HW2 8358   0.373   4.985   0.803  0.6635  1.4945  0.2452
 2538SOL     OW 8359   3.653   5.403   0.535  0.3297  0.5631 -0.1586
 2538SOL    HW1 8360   3.675   5.402   0.442  3.7582 -0.2615  0.5309
 2538SOL    HW2 8361   3.633   5.312   0.556  0.0355  0.6693  0.0363
 2539SOL     OW 8362   2.083   0.879   5.125  0.1741 -0.4135  0.0393
 2539SOL    HW1 8363   2.016   0.941   5.155  1.2281  0.2317  1.1468
 2539SOL    HW2 8364   2.109   0.912   5.039  1.8810  1.7226  1.2805
 2540SOL     OW 8365   2.803   3.673   0.478  0.0495 -0.2860  0.0654
 2540SOL    HW1 8366   2.752   3.614   0.422 -1.1267 -0.9147  1.6992
 2540SOL    HW2 8367   2.866   3.615   0.522 -0.7097 -0.2636  1.2260
 2541SOL     OW 8368   3.291   4.591   4.369  0.5408 -0.0822 -0.2626
 2541SOL    HW1 8369   3.310   4.520   4.430  1.4214 -0.3204 -0.8086
 2541SOL    HW2 8370   3.333   4.668   4.407  0.7829 -0.1536 -0.3862
 2542SOL     OW 8371   4.733   4.785   0.041 -0.3689  0.0235 -0.0841
 2542SOL    HW1 8372   4.728   4.826  -0.045 -1.5234 -0.6001 -0.3340
 2542SOL    HW2 8373   4.654   4.815   0.087 -0.1396 -0.2318  0.4901
 2543SOL     OW 8374   4.755   4.184   1.933  0.2273 -0.3846 -0.3549
 2543SOL    HW1 8375   4.796   4.181   2.019 -0.6324  0.8915  0.1257
 2543SOL    HW2 8376   4.675   4.234   1.946  0.5963  0.7683 -2.0945
 2544SOL     OW 8377   4.272   2.188   3.417 -0.7496 -0.0914  0.1044
 2544SOL    HW1 8378   4.344   2.154   3.470 -0.7809  0.6244  0.6288
 2544SOL    HW2 8379   4.193   2.147   3.454 -0.4839 -2.6000 -1.8567
 2545SOL     OW 8380   3.791   0.991   3.015  0.2466 -0.2733 -0.2121
 2545SOL    HW1 8381   3.749   0.979   3.100 -1.2847 -0.4632 -0.9517
 2545SOL    HW2 8382   3.722   1.029   2.960  1.2954  0.1377 -1.2926
 2546SOL     OW 8383   5.265   3.336   5.183 -0.3624 -0.0107  0.1860
 2546SOL    HW1 8384   5.264   3.292   5.097  1.3951 -0.6123  0.4305
 2546SOL    HW2 8385   5.234   3.269   5.244 -0.7056  0.1123  0.1481
 2547SOL     OW 8386   0.216   3.202   5.269 -0.0115 -0.2824  0.4032
 2547SOL    HW1 8387   0.160   3.202   5.347 -0.7946 -2.1074 -0.1156
 2547SOL    HW2 8388   0.295   3.156   5.296 -1.0134 -2.5265 -0.3187
 2548SOL     OW 8389   2.652   3.037   3.191  0.2614  0.0907 -0.2371
 2548SOL    HW1 8390   2.739   3.027   3.153 -0.0187 -0.1974 -0.8133
 2548SOL    HW2 8391   2.617   2.948   3.194 -0.6224  0.3708 -1.4981
 2549SOL     OW 8392   1.422   4.808   3.641  0.1718  0.6680  0.2084
 2549SOL    HW1 8393   1.427   4.752   3.563 -2.2856 -0.8282  1.0185
 2549SOL    HW2 8394   1.350   4.771   3.693  0.3533  2.8766  2.2081
 2550SOL     OW 8395   1.048   3.072   1.769  0.5571  0.1672  0.4348
 2550SOL    HW1 8396   1.047   3.161   1.734 -0.4227 -0.0299 -0.0908
 2550SOL    HW2 8397   1.023   3.017   1.695  0.5153 -0.4784  0.9172
 2551SOL     OW 8398   2.037   3.706   4.669 -0.7135 -0.7874 -0.6098
 2551SOL    HW1 8399   1.944   3.718   4.650 -1.0658 -0.5159  1.1079
 2551SOL    HW2 8400   2.074   3.795   4.666 -1.0075 -0.5914  1.0040
 2552SOL     OW 8401   0.020   1.617   0.728  0.0910 -0.1822  0.2642
 2552SOL    HW1 8402  -0.014   1.615   0.639 -0.2383 -3.3774  0.3306
 2552SOL    HW2 8403   0.092   1.680   0.725 -2.0629  2.3735 -1.3159
 2553SOL     OW 8404   2.069   0.085   5.000 -0.2346 -0.9706 -0.2071
 2553SOL    HW1 8405   2.129   0.160   5.004 -1.3519 -0.0957  1.1749
 2553SOL    HW2 8406   2.034   0.087   4.911  2.2580 -1.9367 -1.2811
 2554SOL     OW 8407   1.979   1.065   2.723 -0.7363  0.0298  0.2921
 2554SOL    HW1 8408   2.019   1.001   2.782 -1.6409  0.6004  1.5814
 2554SOL    HW2 8409   1.888   1.037   2.715 -1.3037  1.4399  1.3605
 2555SOL     OW 8410   3.694   5.293   1.902 -0.3208  0.3990  0.2987
 2555SOL    HW1 8411   3.747   5.264   1.976 -2.4040  0.2619  1.8470
 2555SOL    HW2 8412   3.641   5.217   1.880  1.4500 -0.1177 -2.5504
 2556SOL     OW 8413   5.349   4.521   0.812 -0.0195 -0.0331 -0.1836
 2556SOL    HW1 8414   5.408   4.523   0.888 -0.5992 -0.4707  0.2886
 2556SOL    HW2 8415   5.407   4.516   0.736  0.5441 -0.5974  0.2818
 2557SOL     OW 8416   1.754   3.668   4.569 -0.1485 -0.3961  0.1505
 2557SOL    HW1 8417   1.766   3.576   4.548  0.3354  0.0088 -1.4780
 2557SOL    HW2 8418   1.717   3.707   4.489  0.7053  1.0318  0.4095
 2558SOL     OW 8419   2.017   4.669   4.626 -0.3821  0.2352 -0.2878
 2558SOL    HW1 8420   2.015   4.582   4.588  0.3875  1.1407 -2.5974
 2558SOL    HW2 8421   2.110   4.687   4.639 -0.5572  0.5635  0.6204
 2559SOL     OW 8422   0.671   0.089   1.351 -0.3528 -0.4646  0.1243
 2559SOL    HW1 8423   0.719   0.011   1.325  0.7525  0.6662 -1.4785
 2559SOL    HW2 8424   0.591   0.088   1.298 -0.4138 -0.5785  0.2182
 2560SOL     OW 8425   4.470   2.770   0.985  0.1610 -0.0578 -0.0796
 2560SOL    HW1 8426   4.486   2.690   0.935  1.0742 -0.7979  1.3085
 2560SOL    HW2 8427   4.553   2.786   1.030 -0.5441  0.6939  0.9990
 2561SOL     OW 8428   2.478   1.331   0.762 -0.3044  0.0271 -0.8074
 2561SOL    HW1 8429   2.555   1.278   0.741 -0.5055 -0.3466 -0.6288
 2561SOL    HW2 8430   2.513   1.415   0.790  0.0476 -0.2164 -0.5057
 2562SOL     OW 8431   4.374   5.774   0.555  0.1778  0.4910  0.5751
 2562SOL    HW1 8432   4.384   5.681   0.536  0.2691  0.8300 -1.2225
 2562SOL    HW2 8433   4.462   5.803   0.579  0.3823  0.3304  0.0378
 2563SOL     OW 8434   4.818   1.347   2.181  0.5201 -0.5458  0.0197
 2563SOL    HW1 8435   4.832   1.280   2.248 -1.0534  0.9330  1.9672
 2563SOL    HW2 8436   4.733   1.326   2.142  1.4932 -1.4817 -1.7026
 2564SOL     OW 8437   4.071   1.362   1.249 -0.1490  0.2562 -0.4188
 2564SOL    HW1 8438   4.054   1.347   1.342 -1.3389 -0.5675 -0.7472
 2564SOL    HW2 8439   4.015   1.436   1.227  1.5594  1.7313 -0.0833
 2565SOL     OW 8440   5.743   2.880   0.446  0.1918 -0.1937  0.2252
 2565SOL    HW1 8441   5.650   2.898   0.458  0.1715  0.0853 -0.3121
 2565SOL    HW2 8442   5.787   2.949   0.497  0.1081 -0.5503  0.7875
 2566SOL     OW 8443   1.435   4.598   4.195 -0.2133 -0.7142 -0.3881
 2566SOL    HW1 8444   1.387   4.673   4.230  1.5752  0.5104 -0.3830
 2566SOL    HW2 8445   1.369   4.546   4.149 -1.3777  1.4039 -1.2849
 2567SOL     OW 8446   0.440   0.281   2.723 -0.0273  0.1164  0.0009
 2567SOL    HW1 8447   0.375   0.303   2.789  0.7082 -1.9721  1.5363
 2567SOL    HW2 8448   0.472   0.366   2.691 -1.0230  1.1831  1.7111
 2568SOL     OW 8449   4.450   0.828   5.203 -0.1576 -0.6272 -0.2825
 2568SOL    HW1 8450   4.493   0.907   5.238 -0.1468  0.0539 -1.7732
 2568SOL    HW2 8451   4.508   0.756   5.229 -0.3387 -0.2106  1.3983
 2569SOL     OW 8452   3.194   3.805   1.850  0.1938  0.3249 -0.2498
 2569SOL    HW1 8453   3.277   3.762   1.869 -0.3124 -0.3762  0.4418
 2569SOL    HW2 8454   3.200   3.828   1.757  0.5388 -1.1567 -0.6268
 2570SOL     OW 8455   3.701   3.657   6.043  0.2457  0.0713  0.8223
 2570SOL    HW1 8456   3.793   3.666   6.018  0.7763 -3.3069  1.0237
 2570SOL    HW2 8457   3.659   3.737   6.011  3.1733  1.6090  0.5156
 2571SOL     OW 8458   0.185   4.324   2.410  0.1962 -0.6752 -0.5853
 2571SOL    HW1 8459   0.183   4.350   2.502 -0.2932 -0.7397 -0.5731
 2571SOL    HW2 8460   0.112   4.262   2.401 -0.1686 -0.1764 -1.1580
 2572SOL     OW 8461   0.814   1.241   2.038  0.0050  0.0720 -0.5914
 2572SOL    HW1 8462   0.789   1.246   2.130 -0.7529 -1.7889 -0.6459
 2572SOL    HW2 8463   0.901   1.281   2.035  0.5532 -0.8538  1.1634
 2573SOL     OW 8464   2.909   3.455   4.405 -0.8013 -0.0524  0.4361
 2573SOL    HW1 8465   2.955   3.376   4.435 -1.4920 -0.6980 -0.1791
 2573SOL    HW2 8466   2.979   3.519   4.391 -0.2980 -0.3086  1.6538
 2574SOL     OW 8467   1.340   1.697   4.101 -0.0534 -0.2269 -0.2330
 2574SOL    HW1 8468   1.355   1.625   4.039  2.2479  1.8294 -2.2927
 2574SOL    HW2 8469   1.246   1.711   4.099 -0.3613 -2.1197 -1.0179
 2575SOL     OW 8470   4.104   4.492   5.668  0.1253 -0.0732  0.1252
 2575SOL    HW1 8471   4.079   4.503   5.760 -0.3605 -1.6422  0.1977
 2575SOL    HW2 8472   4.055   4.416   5.638  1.3741 -0.4562 -1.0411
 2576SOL     OW 8473   0.017   3.717   5.157  0.0087  0.3790 -0.6794
 2576SOL    HW1 8474  -0.052   3.652   5.165 -0.7131  1.3092  1.0674
 2576SOL    HW2 8475   0.009   3.749   5.067 -0.7375 -0.6883 -1.0144
 2577SOL     OW 8476   2.614   1.167   3.197  0.3961  0.0388 -0.1801
 2577SOL    HW1 8477   2.550   1.222   3.241  2.0939  0.3141  2.1187
 2577SOL    HW2 8478   2.669   1.228   3.147 -0.2333 -0.0504 -1.0005
 2578SOL     OW 8479   5.888   3.727   2.600  0.0475 -0.2642  0.2726
 2578SOL    HW1 8480   5.930   3.756   2.520 -0.5730 -0.3901 -0.1020
 2578SOL    HW2 8481   5.885   3.805   2.656 -4.2953  1.3817 -1.8171
 2579SOL     OW 8482   3.028   0.048   2.362 -0.1084  0.2339 -0.3209
 2579SOL    HW1 8483   3.000   0.103   2.289 -1.3495 -0.9628 -0.7751
 2579SOL    HW2 8484   3.011  -0.042   2.333  1.3809 -0.3996  0.6067
 2580SOL     OW 8485   5.096   0.235   0.045  0.5294 -0.0318 -0.1736
 2580SOL    HW1 8486   5.131   0.155   0.085  0.1917 -0.2113 -0.2341
 2580SOL    HW2 8487   5.174   0.285   0.021  0.7825  0.7371  1.9934
 2581SOL     OW 8488   4.048   5.423   4.897  0.6605  0.3349  0.4902
 2581SOL    HW1 8489   4.087   5.354   4.844 -1.8170 -0.5619 -0.3144
 2581SOL    HW2 8490   4.089   5.503   4.866  1.5269 -0.4954 -0.5989
 2582SOL     OW 8491   5.536   6.251   4.397  0.3416 -0.1081  0.3130
 2582SOL    HW1 8492   5.630   6.237   4.411  0.2082 -0.2419  1.1001
 2582SOL    HW2 8493   5.532   6.335   4.351  0.8954 -0.5430 -0.5595
 2583SOL     OW 8494   0.372   2.281   2.264 -0.4375  0.1314 -0.1534
 2583SOL    HW1 8495   0.358   2.359   2.211 -0.4380  0.4238  0.2720
 2583SOL    HW2 8496   0.467   2.273   2.271 -0.4381  0.9571  1.0472
 2584SOL     OW 8497   0.258   3.222   2.077 -0.2727  0.1529 -0.3132
 2584SOL    HW1 8498   0.305   3.208   2.159 -0.5041 -1.3941 -0.4095
 2584SOL    HW2 8499   0.167   3.199   2.097 -0.6273  1.1984 -0.6359
 2585SOL     OW 8500   0.036   1.500   4.674 -0.6780 -0.1608 -0.1079
 2585SOL    HW1 8501   0.080   1.557   4.610 -0.0054 -0.7790 -0.2117
 2585SOL    HW2 8502   0.015   1.558   4.747 -0.1178  0.2501 -0.2670
 2586SOL     OW 8503   5.881   4.705   3.241 -0.1142  0.4145 -0.2631
 2586SOL    HW1 8504   5.888   4.641   3.171  1.1217  0.4457 -0.1927
 2586SOL    HW2 8505   5.895   4.654   3.321  0.4856  0.6943 -0.1824
 2587SOL     OW 8506   5.834   5.358   1.226 -0.1186 -0.0324 -0.5040
 2587SOL    HW1 8507   5.788   5.440   1.244 -0.3505 -0.2067 -0.2992
 2587SOL    HW2 8508   5.910   5.384   1.173 -0.8201  0.1731 -1.4284
 2588SOL     OW 8509   4.282   4.112   3.737  0.5090 -0.0804 -0.2806
 2588SOL    HW1 8510   4.315   4.194   3.775  1.3579 -0.4661 -0.1679
 2588SOL    HW2 8511   4.360   4.060   3.719  0.0016 -0.7111 -0.7249
 2589SOL     OW 8512   2.335   0.052   6.286 -0.0671  0.2887  0.8358
 2589SOL    HW1 8513   2.403   0.049   6.353  1.4980 -0.3432 -0.6907
 2589SOL    HW2 8514   2.323   0.145   6.267 -1.0597  0.5202  2.4652
 2590SOL     OW 8515   0.170   0.709   3.734  0.1727  0.3745 -0.3537
 2590SOL    HW1 8516   0.171   0.638   3.798 -0.1501  1.2418  0.6407
 2590SOL    HW2 8517   0.256   0.705   3.693  0.7460  0.3771  0.7985
 2591SOL     OW 8518   5.799   5.861   3.396  0.0504 -0.3950 -0.2348
 2591SOL    HW1 8519   5.750   5.885   3.318 -2.0408 -1.2416  0.7561
 2591SOL    HW2 8520   5.773   5.926   3.461  0.9884 -0.2991  0.0578
 2592SOL     OW 8521   0.388   0.304   3.546  0.1202 -1.0829 -0.2602
 2592SOL    HW1 8522   0.384   0.326   3.639  1.3259 -0.4150 -0.3518
 2592SOL    HW2 8523   0.464   0.246   3.538  0.3582 -0.6907 -0.9132
 2593SOL     OW 8524   3.130   3.628   1.322 -0.4145  0.1979 -0.0480
 2593SOL    HW1 8525   3.178   3.564   1.270  0.4003  1.1906 -0.5384
 2593SOL    HW2 8526   3.038   3.617   1.296 -0.2731 -0.6887 -0.1919
 2594SOL     OW 8527   2.309   2.402   4.238  0.3054  0.0776  0.2328
 2594SOL    HW1 8528   2.285   2.312   4.216  2.8587 -0.6045 -0.0195
 2594SOL    HW2 8529   2.391   2.395   4.286  0.6668  2.2778  0.0720
 2595SOL     OW 8530   4.445   2.079   4.244  0.0046  0.2804  0.2152
 2595SOL    HW1 8531   4.508   2.141   4.209  0.3390 -1.3675 -2.3805
 2595SOL    HW2 8532   4.368   2.088   4.188 -0.0135 -1.4490 -0.1154
 2596SOL     OW 8533   1.747   3.197   5.004 -0.1419 -0.2888 -0.9825
 2596SOL    HW1 8534   1.755   3.109   4.969  2.6184 -0.2139 -0.8022
 2596SOL    HW2 8535   1.764   3.254   4.929 -1.4696  0.1098 -1.0031
 2597SOL     OW 8536   0.050   1.161   4.828 -0.7262  0.2412 -0.1203
 2597SOL    HW1 8537   0.122   1.118   4.874  1.3672  1.5219 -1.9439
 2597SOL    HW2 8538   0.014   1.223   4.892 -0.0939 -0.3158  0.7878
 2598SOL     OW 8539   1.674   1.877   4.748  0.5867 -0.2516 -0.1327
 2598SOL    HW1 8540   1.724   1.872   4.666  3.0060  2.9555  0.9340
 2598SOL    HW2 8541   1.648   1.969   4.754 -1.6190 -0.9148  1.6028
 2599SOL     OW 8542   5.647   3.055   6.275  0.1248 -0.3119  0.1652
 2599SOL    HW1 8543   5.734   3.092   6.291  0.2636  0.0167 -1.1915
 2599SOL    HW2 8544   5.606   3.117   6.214 -0.7016 -0.9621  0.0416
 2600SOL     OW 8545   2.096   2.107   4.845  0.2168  0.7665  0.4204
 2600SOL    HW1 8546   2.175   2.074   4.888 -0.1399  3.3117  3.3799
 2600SOL    HW2 8547   2.040   2.135   4.917 -2.3939  1.2615 -1.6674
 2601SOL     OW 8548   5.889   0.562   5.994 -0.2482  0.2868 -0.0984
 2601SOL    HW1 8549   5.874   0.654   5.972  0.8468  0.8684  1.4092
 2601SOL    HW2 8550   5.803   0.530   6.022 -0.7840  0.6355 -1.2633
 2602SOL     OW 8551   1.291   5.036   1.850 -0.3173 -0.3959 -0.0545
 2602SOL    HW1 8552   1.239   5.056   1.928 -0.6383 -0.4802 -0.2464
 2602SOL    HW2 8553   1.356   4.972   1.880  0.9725  1.1574  0.6733
 2603SOL     OW 8554   4.110   2.662   4.131  0.1049  0.1350 -0.3268
 2603SOL    HW1 8555   4.130   2.721   4.059 -0.1483 -0.0358 -0.5375
 2603SOL    HW2 8556   4.129   2.714   4.210  0.6702  0.2190 -0.5129
 2604SOL     OW 8557   4.251   1.251   1.492 -0.1383 -0.2803  0.0897
 2604SOL    HW1 8558   4.190   1.270   1.563 -1.9421 -2.4239 -0.7533
 2604SOL    HW2 8559   4.204   1.190   1.435  1.6720  0.4128 -2.3350
 2605SOL     OW 8560   3.804   0.607   5.765 -0.1565 -0.5836 -0.3125
 2605SOL    HW1 8561   3.773   0.550   5.835 -0.5546 -1.1301 -0.9207
 2605SOL    HW2 8562   3.744   0.681   5.766  1.1340  0.4924  1.3281
 2606SOL     OW 8563   0.892   4.765   4.279 -0.3691  0.1384  0.0497
 2606SOL    HW1 8564   0.913   4.846   4.325 -1.3545  0.7428 -0.5288
 2606SOL    HW2 8565   0.799   4.772   4.258 -1.2563 -2.4501  2.5230
 2607SOL     OW 8566   4.740   5.500   4.084  0.0328  0.1485  0.5617
 2607SOL    HW1 8567   4.806   5.568   4.098 -0.5136  0.6227  0.8946
 2607SOL    HW2 8568   4.769   5.454   4.006  1.7075 -0.7893  1.6718
 2608SOL     OW 8569   2.394   5.758   2.134  0.5039  0.5168  0.1671
 2608SOL    HW1 8570   2.336   5.708   2.076  0.6442 -0.5960  0.9764
 2608SOL    HW2 8571   2.430   5.694   2.195  3.6990  0.8766 -1.1367
 2609SOL     OW 8572   2.347   0.271   2.857 -0.6326 -0.4838  0.3853
 2609SOL    HW1 8573   2.412   0.254   2.789 -0.7493  1.1802 -0.1730
 2609SOL    HW2 8574   2.391   0.247   2.939 -0.2093 -1.7276 -0.1749
 2610SOL     OW 8575   2.397   4.896   2.776 -0.0250  0.2730  0.0393
 2610SOL    HW1 8576   2.460   4.939   2.833  0.1660 -1.2742  1.0650
 2610SOL    HW2 8577   2.419   4.803   2.783 -1.9733 -0.2383 -0.1192
 2611SOL     OW 8578   4.579   5.449   2.808  0.7877  0.0560 -0.1473
 2611SOL    HW1 8579   4.658   5.502   2.820  1.3424 -0.6136 -0.7791
 2611SOL    HW2 8580   4.609   5.371   2.763 -0.2086 -0.3094 -0.2003
 2612SOL     OW 8581   3.223   3.186   6.089  0.0693  0.1838  0.2972
 2612SOL    HW1 8582   3.216   3.184   5.994  1.3296  1.4325  0.1606
 2612SOL    HW2 8583   3.175   3.264   6.115 -0.0909 -0.0389  0.6872
 2613SOL     OW 8584   4.473   0.413   0.252 -0.5221  0.0193 -0.0480
 2613SOL    HW1 8585   4.405   0.418   0.319 -0.9999  0.9378 -0.5757
 2613SOL    HW2 8586   4.457   0.489   0.196  0.7973  0.1224 -0.3264
 2614SOL     OW 8587   4.203   3.870   3.932 -0.0839 -0.8369 -0.1795
 2614SOL    HW1 8588   4.133   3.885   3.996 -0.5259 -1.5567 -0.4882
 2614SOL    HW2 8589   4.173   3.913   3.852  0.1624 -0.5230 -0.1077
 2615SOL     OW 8590   2.812   4.667   0.043  0.8277 -0.1865 -0.0002
 2615SOL    HW1 8591   2.833   4.732  -0.025 -1.8644 -1.4018 -2.1709
 2615SOL    HW2 8592   2.787   4.719   0.119  0.4335  1.3195 -1.1124
 2616SOL     OW 8593   5.849   3.631   3.679  0.2464 -0.1104  0.4507
 2616SOL    HW1 8594   5.880   3.721   3.682  0.5380 -0.2067  0.3085
 2616SOL    HW2 8595   5.755   3.638   3.663  0.6239  0.1256 -2.0990
 2617SOL     OW 8596   4.308   2.985   3.063  0.1643  0.3773  0.2956
 2617SOL    HW1 8597   4.397   2.987   3.099 -0.1320 -2.0317  1.2777
 2617SOL    HW2 8598   4.259   2.928   3.121 -1.3932 -0.3892 -1.6538
 2618SOL     OW 8599   1.802   2.124   5.521 -0.2466  0.4932 -0.3468
 2618SOL    HW1 8600   1.737   2.099   5.587  0.6784 -0.3095  0.2885
 2618SOL    HW2 8601   1.770   2.084   5.440 -0.2009 -0.4758  0.0966
 2619SOL     OW 8602   2.098   4.275   2.591 -0.3010  0.5938 -0.1158
 2619SOL    HW1 8603   2.157   4.265   2.665  1.4955  0.1808 -1.5236
 2619SOL    HW2 8604   2.105   4.368   2.567  1.0286  0.2270 -1.2347
 2620SOL     OW 8605   1.256   3.714   2.504  0.3619  0.3228  0.0161
 2620SOL    HW1 8606   1.204   3.700   2.424 -2.0285  0.2440  1.4936
 2620SOL    HW2 8607   1.337   3.666   2.488 -0.0587  0.2439 -2.3153
 2621SOL     OW 8608   4.456   4.445   5.681 -0.2649  0.0968 -0.2103
 2621SOL    HW1 8609   4.509   4.381   5.634 -0.9140 -0.7308  0.1578
 2621SOL    HW2 8610   4.394   4.477   5.615  0.9190  1.3795 -0.7544
 2622SOL     OW 8611   4.548   3.556   4.890 -0.2574  0.0797  0.3328
 2622SOL    HW1 8612   4.457   3.531   4.904 -0.4626  1.2525  1.3012
 2622SOL    HW2 8613   4.563   3.627   4.953  0.3362  2.2072 -2.0490
 2623SOL     OW 8614   0.012   1.446   0.265 -0.1266  0.3321 -0.3275
 2623SOL    HW1 8615   0.058   1.455   0.182 -1.0661 -0.0300 -0.9122
 2623SOL    HW2 8616  -0.079   1.470   0.245 -0.1553  1.3550  0.8622
 2624SOL     OW 8617   1.402   1.905   1.038  0.1747  0.3702  0.2136
 2624SOL    HW1 8618   1.359   1.878   0.956  0.5811 -0.8848  0.3888
 2624SOL    HW2 8619   1.419   1.998   1.026  1.0552  0.0293 -1.5384
 2625SOL     OW 8620   3.514   1.856   5.442  0.4966  0.4989  0.2188
 2625SOL    HW1 8621   3.561   1.865   5.359 -1.3276  1.5885 -0.7561
 2625SOL    HW2 8622   3.553   1.923   5.499  0.5238  1.0147 -0.3886
 2626SOL     OW 8623   0.374   1.499   2.337 -0.5540  0.0226  0.1853
 2626SOL    HW1 8624   0.407   1.450   2.412 -1.4987 -3.2792 -1.3910
 2626SOL    HW2 8625   0.450   1.511   2.280 -0.8802 -2.9941 -1.0583
 2627SOL     OW 8626   4.721   5.809   0.806 -0.7485  0.2161 -0.2374
 2627SOL    HW1 8627   4.708   5.798   0.711 -2.0879 -1.0931  0.0597
 2627SOL    HW2 8628   4.734   5.720   0.838  0.0767  0.6881  0.7778
 2628SOL     OW 8629   5.349   5.838   1.348 -0.3221 -0.3472  0.2424
 2628SOL    HW1 8630   5.436   5.800   1.358  0.6864  1.7866  0.2445
 2628SOL    HW2 8631   5.342   5.855   1.254 -0.8673 -0.7623  0.2037
 2629SOL     OW 8632   3.515   3.499   5.685  0.2026  0.3078 -0.0424
 2629SOL    HW1 8633   3.427   3.520   5.718  0.3603  0.9084 -0.0068
 2629SOL    HW2 8634   3.519   3.403   5.689 -0.1754  0.3136  0.6787
 2630SOL     OW 8635   0.405   2.725   0.006  0.1436 -0.1047  0.1479
 2630SOL    HW1 8636   0.414   2.630  -0.000  0.7019 -0.0278 -0.2939
 2630SOL    HW2 8637   0.311   2.740   0.008  0.0440 -0.6447 -0.2155
 2631SOL     OW 8638   1.180   2.538   0.401  0.0396 -0.4969 -0.2977
 2631SOL    HW1 8639   1.202   2.555   0.310 -2.8320 -0.2864 -1.0317
 2631SOL    HW2 8640   1.111   2.601   0.422 -0.7726 -1.8387  1.3727
 2632SOL     OW 8641   2.542   2.794   0.119 -0.0396  0.0112 -1.0060
 2632SOL    HW1 8642   2.593   2.740   0.058 -0.8196 -0.1446 -1.5386
 2632SOL    HW2 8643   2.539   2.880   0.077 -0.3474 -0.0214 -1.0488
 2633SOL     OW 8644   6.233   6.186   3.565 -0.2371  0.4794  0.0795
 2633SOL    HW1 8645   6.287   6.204   3.488  2.1107 -3.4707  0.4645
 2633SOL    HW2 8646   6.274   6.237   3.635  2.1983 -1.1626 -0.0013
 2634SOL     OW 8647   1.729   4.291   3.104 -0.3399  0.4358 -0.2037
 2634SOL    HW1 8648   1.714   4.385   3.095 -2.2713  0.1688 -0.3182
 2634SOL    HW2 8649   1.661   4.251   3.049  1.3872 -1.0347 -1.3735
 2635SOL     OW 8650   6.270   2.736   5.395 -0.0653 -0.1323  0.4256
 2635SOL    HW1 8651   6.285   2.830   5.390 -2.4822  0.2358 -2.0396
 2635SOL    HW2 8652   6.246   2.710   5.306  1.0396 -3.2329  0.8815
 2636SOL     OW 8653   1.996   1.815   2.933  0.4675 -0.0568 -0.3202
 2636SOL    HW1 8654   1.947   1.885   2.974  0.2686  0.1045 -0.8305
 2636SOL    HW2 8655   1.931   1.764   2.886  0.7386 -0.0438 -0.7144
 2637SOL     OW 8656   4.101   1.055   4.054 -0.3271 -0.2691  0.7034
 2637SOL    HW1 8657   4.054   1.036   3.972  1.0200 -0.0259 -0.1570
 2637SOL    HW2 8658   4.193   1.058   4.028 -0.0426  2.3542  1.7394
 2638SOL     OW 8659   0.949   3.550   5.100 -0.1074 -0.3483 -0.0097
 2638SOL    HW1 8660   0.994   3.592   5.026  0.2986 -0.9051 -0.0861
 2638SOL    HW2 8661   0.985   3.461   5.102 -0.5784 -0.5304  0.4697
 2639SOL     OW 8662   6.145   2.620   0.207  0.4472 -0.0720 -0.0675
 2639SOL    HW1 8663   6.084   2.691   0.228 -2.3537 -2.3474  0.1326
 2639SOL    HW2 8664   6.212   2.626   0.276 -2.5482 -0.6823  3.1930
 2640SOL     OW 8665   4.012   1.743   1.340  0.2257 -0.2120 -0.2300
 2640SOL    HW1 8666   4.060   1.719   1.419  1.0447  0.5324 -0.4859
 2640SOL    HW2 8667   3.967   1.663   1.314  1.2050 -0.8872  0.1165
 2641SOL     OW 8668   2.635   2.482   2.491 -0.4942 -0.0996 -0.0288
 2641SOL    HW1 8669   2.687   2.518   2.419 -0.4972 -1.3428 -0.6726
 2641SOL    HW2 8670   2.587   2.558   2.525  1.2717  0.9680  0.2081
 2642SOL     OW 8671   4.138   2.351   0.772 -0.2694  1.0545  0.3840
 2642SOL    HW1 8672   4.099   2.357   0.859 -0.6849  0.9751  0.2025
 2642SOL    HW2 8673   4.201   2.424   0.769 -0.1720  0.9883  0.7901
 2643SOL     OW 8674   1.102   1.608   1.991  0.0092  0.0022 -0.1724
 2643SOL    HW1 8675   1.079   1.516   2.002 -0.6858 -0.0463 -1.7526
 2643SOL    HW2 8676   1.179   1.620   2.046 -0.7151 -1.1594  1.1661
 2644SOL     OW 8677   0.944   3.823   2.364 -0.2293  0.0406 -0.0507
 2644SOL    HW1 8678   0.968   3.870   2.443 -0.1800  0.4422 -0.3003
 2644SOL    HW2 8679   0.849   3.813   2.370 -0.1533 -0.4996  0.3633
 2645SOL     OW 8680   3.147   1.451   2.327  0.3568  0.1995  0.2033
 2645SOL    HW1 8681   3.114   1.443   2.237 -1.0457  1.1046  0.6037
 2645SOL    HW2 8682   3.068   1.461   2.381  1.1560 -0.6724  1.5890
 2646SOL     OW 8683   1.700   1.673   3.205 -0.6463  0.4181  0.2355
 2646SOL    HW1 8684   1.795   1.662   3.211 -0.3264  1.5507 -1.7880
 2646SOL    HW2 8685   1.688   1.764   3.179 -2.2842  0.2105  0.1451
 2647SOL     OW 8686   2.774   1.286   3.447  0.7726  0.2682 -0.2703
 2647SOL    HW1 8687   2.717   1.211   3.432  0.8635  0.2029 -0.2879
 2647SOL    HW2 8688   2.755   1.314   3.536  1.6171 -0.5213  0.1629
 2648SOL     OW 8689   5.075   0.523   3.426  0.4549 -0.5371  0.6723
 2648SOL    HW1 8690   5.064   0.546   3.333  3.5761  0.1611  0.3832
 2648SOL    HW2 8691   5.004   0.570   3.470 -0.4101  0.0440 -1.2195
 2649SOL     OW 8692   4.494   2.406   1.600  0.3163  0.3549  0.0528
 2649SOL    HW1 8693   4.434   2.464   1.646  2.0839  0.8982  1.8294
 2649SOL    HW2 8694   4.489   2.432   1.508 -1.0127  1.3834  0.4072
 2650SOL     OW 8695   6.126   0.937   5.164 -0.1246  0.0721 -0.1781
 2650SOL    HW1 8696   6.052   0.997   5.167  0.3831  0.7518 -1.0153
 2650SOL    HW2 8697   6.204   0.993   5.167  0.4204 -0.6616  1.8547
 2651SOL     OW 8698   5.518   3.311   4.537  0.7835 -0.0181  0.4757
 2651SOL    HW1 8699   5.547   3.229   4.578  1.0526 -0.7136 -1.0383
 2651SOL    HW2 8700   5.423   3.308   4.544  0.7377 -0.8678 -0.2590
 2652SOL     OW 8701   5.463   4.472   0.192 -0.5795 -0.9612 -0.1030
 2652SOL    HW1 8702   5.491   4.399   0.137  1.0968  0.6298 -1.5258
 2652SOL    HW2 8703   5.544   4.518   0.214 -1.5392  0.2564  1.0733
 2653SOL     OW 8704   5.782   5.469   4.157  0.0602 -0.2723  0.2786
 2653SOL    HW1 8705   5.719   5.432   4.218  1.8498 -1.9531  1.2277
 2653SOL    HW2 8706   5.731   5.489   4.078 -1.7895 -0.6543  1.3338
 2654SOL     OW 8707   4.853   0.551   2.322 -0.1443  0.0677 -0.7063
 2654SOL    HW1 8708   4.774   0.497   2.326  0.6261 -1.0901 -0.7067
 2654SOL    HW2 8709   4.888   0.536   2.234 -1.3081  2.6621 -1.7284
 2655SOL     OW 8710   3.499   4.581   0.923 -0.8833 -0.2047 -0.8660
 2655SOL    HW1 8711   3.496   4.677   0.914 -0.4815 -0.0751  0.2972
 2655SOL    HW2 8712   3.554   4.565   0.999  0.1827 -1.4233 -1.8371
 2656SOL     OW 8713   5.101   1.870   1.183  0.0376 -0.1835  0.4840
 2656SOL    HW1 8714   5.104   1.830   1.270 -1.7193 -0.6833  0.3640
 2656SOL    HW2 8715   5.166   1.821   1.132  0.3727 -0.5493  1.2441
 2657SOL     OW 8716   0.706   1.585   6.260 -0.3435 -0.2033  0.2431
 2657SOL    HW1 8717   0.793   1.554   6.236 -0.5869 -0.7651  0.0678
 2657SOL    HW2 8718   0.722   1.660   6.319  0.2499 -0.2932  0.1997
 2658SOL     OW 8719   1.198   4.040   2.958 -0.0263  0.7175  0.9039
 2658SOL    HW1 8720   1.192   3.946   2.974  0.0337  0.4847 -0.3310
 2658SOL    HW2 8721   1.191   4.049   2.863  1.3544  1.8573  0.8756
 2659SOL     OW 8722   1.054   4.800   4.578  0.3802 -0.0342 -0.0598
 2659SOL    HW1 8723   1.022   4.797   4.668 -2.3655 -1.9880 -0.9811
 2659SOL    HW2 8724   1.141   4.758   4.582  0.6855  0.6989  1.7585
 2660SOL     OW 8725   2.353   3.445   3.473  0.1536 -0.3019 -0.4056
 2660SOL    HW1 8726   2.391   3.501   3.405 -0.1165  0.6681  0.2146
 2660SOL    HW2 8727   2.410   3.369   3.477  0.5561 -0.0582 -1.2537
 2661SOL     OW 8728   5.871   2.767   0.022 -0.2119 -0.1948 -0.2925
 2661SOL    HW1 8729   5.776   2.756   0.020 -0.2285 -0.0775 -1.6112
 2661SOL    HW2 8730   5.885   2.859  -0.001  0.1441  1.0435  4.0410
 2662SOL     OW 8731   3.242   0.577   1.961  0.2236  0.2336 -0.2761
 2662SOL    HW1 8732   3.220   0.563   1.869  1.3365 -2.1545 -0.2523
 2662SOL    HW2 8733   3.159   0.602   2.002 -0.3740  0.9245 -1.8258
 2663SOL     OW 8734   0.505   4.824   3.949  0.4003 -0.6584 -0.7446
 2663SOL    HW1 8735   0.515   4.916   3.924 -0.4307 -0.0716  0.9587
 2663SOL    HW2 8736   0.411   4.811   3.957  0.5567 -1.2352  0.4792
 2664SOL     OW 8737   1.228   4.739   2.109 -0.0858  0.1813  0.3919
 2664SOL    HW1 8738   1.278   4.658   2.117  0.4239  0.5747  1.3852
 2664SOL    HW2 8739   1.295   4.808   2.104 -0.5185  0.6858  1.3690
 2665SOL     OW 8740   2.051   4.204   3.153  0.2323 -0.8552 -0.1592
 2665SOL    HW1 8741   1.992   4.194   3.228  1.2198  0.4986  0.8588
 2665SOL    HW2 8742   1.999   4.248   3.086  0.3619  1.4325  1.1581
 2666SOL     OW 8743   4.483   0.317   4.138  0.3999 -0.4365 -0.0529
 2666SOL    HW1 8744   4.432   0.382   4.090  1.8943  0.5936 -0.3276
 2666SOL    HW2 8745   4.428   0.294   4.213  0.4702  2.4592  1.0024
 2667SOL     OW 8746   4.454   4.482   2.866  0.5391 -0.8267  0.0699
 2667SOL    HW1 8747   4.497   4.564   2.889 -0.9196 -0.4527  1.6818
 2667SOL    HW2 8748   4.483   4.420   2.932 -0.6122 -0.8031  0.6320
 2668SOL     OW 8749   3.291   2.876   4.029  0.4499  0.0679  0.1834
 2668SOL    HW1 8750   3.229   2.855   4.098 -1.5080  2.0966 -0.8240
 2668SOL    HW2 8751   3.292   2.799   3.973 -2.0414  0.3035 -0.3159
 2669SOL     OW 8752   4.329   3.335   0.019 -0.1687 -0.0942  0.7633
 2669SOL    HW1 8753   4.342   3.316   0.112 -0.1795  0.0491  0.7944
 2669SOL    HW2 8754   4.417   3.342  -0.017 -0.1594  0.3891  0.8736
 2670SOL     OW 8755   5.367   2.726   4.036 -0.0304  0.7255 -0.2956
 2670SOL    HW1 8756   5.350   2.802   4.091 -0.3036  0.4021  0.0738
 2670SOL    HW2 8757   5.290   2.721   3.979  0.6229  1.5461 -1.2872
 2671SOL     OW 8758   1.274   2.003   5.626 -0.0819 -0.0693  0.0561
 2671SOL    HW1 8759   1.350   2.053   5.656  0.0594  0.2822 -0.8545
 2671SOL    HW2 8760   1.204   2.029   5.685  0.1716  0.6610  0.0508
 2672SOL     OW 8761   0.607   4.430   3.483 -0.1707 -0.0770  0.2156
 2672SOL    HW1 8762   0.528   4.413   3.431  0.6030  0.1165 -1.0750
 2672SOL    HW2 8763   0.677   4.434   3.418  0.4461  3.0426  0.9069
 2673SOL     OW 8764   3.769   4.878   2.309  1.2862  0.3415  0.7759
 2673SOL    HW1 8765   3.840   4.862   2.372  1.4657  1.8313  0.9827
 2673SOL    HW2 8766   3.697   4.911   2.363  1.8059  2.6911  0.1180
 2674SOL     OW 8767   3.514   3.242   5.706  0.1082  0.0916  0.1409
 2674SOL    HW1 8768   3.584   3.200   5.657 -0.9472 -1.1374 -0.3790
 2674SOL    HW2 8769   3.529   3.215   5.797  1.5735  1.6834  0.4252
 2675SOL     OW 8770   4.475   2.085   3.571  0.1411 -0.2961 -0.7784
 2675SOL    HW1 8771   4.475   1.999   3.613  1.0153  0.2214  0.3370
 2675SOL    HW2 8772   4.563   2.095   3.536  0.1967  0.3248 -0.4844
 2676SOL     OW 8773   2.017   0.468   4.680 -0.0352  0.3974 -0.2065
 2676SOL    HW1 8774   2.035   0.473   4.774  0.3248 -0.2438 -0.2327
 2676SOL    HW2 8775   1.939   0.414   4.674 -0.0232  0.3875 -0.2757
 2677SOL     OW 8776   4.797   1.084   0.367 -0.0255 -0.0799  0.2339
 2677SOL    HW1 8777   4.828   1.121   0.450 -2.2410 -0.6876  1.4283
 2677SOL    HW2 8778   4.730   1.146   0.337  0.6125  0.0279 -1.0306
 2678SOL     OW 8779   0.615   6.067   2.645  0.8420 -0.9333 -0.2114
 2678SOL    HW1 8780   0.536   6.014   2.637 -0.0755  0.2842  0.4575
 2678SOL    HW2 8781   0.606   6.111   2.729  0.3978  2.0686 -1.7053
 2679SOL     OW 8782   3.417   2.683   4.793  0.2308  0.1273 -0.2079
 2679SOL    HW1 8783   3.413   2.674   4.698 -0.3183  0.8974 -0.2702
 2679SOL    HW2 8784   3.362   2.759   4.812 -0.1962 -0.4116  0.7917
 2680SOL     OW 8785   3.371   3.475   3.866  0.2782 -0.0108 -0.3718
 2680SOL    HW1 8786   3.372   3.537   3.794 -0.1688 -0.3703 -0.6890
 2680SOL    HW2 8787   3.337   3.524   3.940 -2.3237 -0.4692 -1.1772
 2681SOL     OW 8788   2.384   1.525   5.568  0.3521  0.1394  0.0978
 2681SOL    HW1 8789   2.400   1.540   5.475  0.0185  1.8686  0.3013
 2681SOL    HW2 8790   2.361   1.432   5.573  0.6195 -0.0390 -1.5075
 2682SOL     OW 8791   3.243   0.003   4.479  0.4406 -0.2613 -0.0264
 2682SOL    HW1 8792   3.262  -0.020   4.570 -1.4495  0.3656  0.5765
 2682SOL    HW2 8793   3.215   0.095   4.484  2.3994  0.4903 -1.5753
 2683SOL     OW 8794   3.576   1.560   2.530  0.6785 -0.2393 -0.6274
 2683SOL    HW1 8795   3.517   1.484   2.531 -2.4784  2.0249  1.0346
 2683SOL    HW2 8796   3.541   1.617   2.461  0.3227  1.5306  0.9474
 2684SOL     OW 8797   0.712   2.739   3.746 -0.1576  0.2721  0.1891
 2684SOL    HW1 8798   0.725   2.814   3.688  0.3264  0.1066  0.0826
 2684SOL    HW2 8799   0.722   2.775   3.835  1.7251  0.0425  0.1123
 2685SOL     OW 8800   3.203   4.835   2.630  0.2128  0.0839 -0.3542
 2685SOL    HW1 8801   3.219   4.924   2.599  0.4778  0.6265  1.2264
 2685SOL    HW2 8802   3.273   4.783   2.591  1.0784  0.9151  0.0416
 2686SOL     OW 8803   0.791   4.302   3.158 -0.1158  0.5301  0.3424
 2686SOL    HW1 8804   0.864   4.296   3.097 -0.5614  2.1573 -0.4263
 2686SOL    HW2 8805   0.815   4.374   3.217 -0.0801 -0.4560  1.5589
 2687SOL     OW 8806   0.972   0.797   3.796  0.0795 -0.4649 -0.1928
 2687SOL    HW1 8807   0.922   0.800   3.878  0.7104  1.5465  0.1724
 2687SOL    HW2 8808   0.909   0.822   3.729 -0.0488 -0.5786 -0.1165
 2688SOL     OW 8809   1.013   3.501   3.305 -0.3574 -0.4240  0.1941
 2688SOL    HW1 8810   0.935   3.493   3.249  0.4274 -0.1176 -0.9807
 2688SOL    HW2 8811   1.086   3.487   3.245  0.4873 -1.3964  1.4095
 2689SOL     OW 8812   0.428   1.936   5.023 -0.7461 -0.2233  0.1442
 2689SOL    HW1 8813   0.504   1.968   4.974 -1.5836 -0.0602 -1.0735
 2689SOL    HW2 8814   0.462   1.861   5.072 -0.1528 -1.1933 -1.6465
 2690SOL     OW 8815   5.817   1.875   5.654  0.1098  0.0240 -0.0398
 2690SOL    HW1 8816   5.795   1.802   5.596  0.4292  0.4653 -0.7436
 2690SOL    HW2 8817   5.737   1.893   5.702  0.7720 -2.6587  2.3297
 2691SOL     OW 8818   5.302   5.795   0.678  0.4233 -0.6420  0.0636
 2691SOL    HW1 8819   5.244   5.869   0.689  1.3062 -0.1717  1.9641
 2691SOL    HW2 8820   5.264   5.745   0.605 -2.1242 -0.1790  0.9735
 2692SOL     OW 8821   3.112   5.414   1.775  0.3096  0.2733 -0.6937
 2692SOL    HW1 8822   3.048   5.437   1.708 -0.1692 -0.3277 -0.4521
 2692SOL    HW2 8823   3.069   5.436   1.858  0.6984  0.5389 -0.5595
 2693SOL     OW 8824   4.808   1.548   3.231 -0.4909  0.6045 -0.3607
 2693SOL    HW1 8825   4.821   1.635   3.194 -0.6856  1.0684  0.6414
 2693SOL    HW2 8826   4.828   1.488   3.159 -0.4932  1.4762 -1.1004
 2694SOL     OW 8827   0.672   4.198   4.106 -0.3570 -0.3407  0.1870
 2694SOL    HW1 8828   0.762   4.165   4.102 -0.4670 -0.5659 -0.4231
 2694SOL    HW2 8829   0.677   4.287   4.071 -0.6137 -0.8677 -1.2478
 2695SOL     OW 8830   2.569   6.116   3.887  0.0414  0.2008  0.1917
 2695SOL    HW1 8831   2.585   6.206   3.915  1.9266  0.0456 -0.2280
 2695SOL    HW2 8832   2.657   6.077   3.881 -0.7187 -1.6056  0.1784
 2696SOL     OW 8833   5.622   3.174   1.566  0.0165 -0.0428  0.7443
 2696SOL    HW1 8834   5.555   3.109   1.588  1.3629 -1.9794 -0.6399
 2696SOL    HW2 8835   5.671   3.186   1.648 -0.1411 -0.9214  0.9795
 2697SOL     OW 8836   6.212   0.166   1.606  0.3965 -0.1519 -0.6137
 2697SOL    HW1 8837   6.190   0.092   1.549  1.1078 -0.4297 -0.5378
 2697SOL    HW2 8838   6.139   0.170   1.669 -0.3102  0.0501 -1.4277
 2698SOL     OW 8839   3.402   0.986   6.054 -0.0830 -0.3102  0.0029
 2698SOL    HW1 8840   3.426   0.897   6.026 -1.5537 -0.9718  0.7069
 2698SOL    HW2 8841   3.306   0.984   6.058 -0.1206  1.2259  0.3656
 2699SOL     OW 8842   2.009   4.226   0.467 -0.0966 -0.0637  0.2454
 2699SOL    HW1 8843   2.044   4.142   0.497  0.3620  0.7947  2.2738
 2699SOL    HW2 8844   2.054   4.291   0.521 -0.5001  1.4973 -1.2259
 2700SOL     OW 8845   4.360   5.988   4.056  0.0544  0.5426  0.1566
 2700SOL    HW1 8846   4.445   5.946   4.056  0.2331  0.8964 -0.3796
 2700SOL    HW2 8847   4.308   5.938   4.120  0.0069 -1.0026 -1.0272
 2701SOL     OW 8848   0.757   1.917   0.435 -0.8405  0.4391 -0.6365
 2701SOL    HW1 8849   0.784   1.923   0.343  0.6071 -0.8590 -0.3546
 2701SOL    HW2 8850   0.810   1.845   0.470 -0.8174  1.3840  1.4050
 2702SOL     OW 8851   1.493   0.411   5.800 -0.3603  0.0590  0.0846
 2702SOL    HW1 8852   1.510   0.399   5.706  0.6495  0.1444  0.2509
 2702SOL    HW2 8853   1.579   0.417   5.840 -0.7783 -0.2171  1.0615
 2703SOL     OW 8854   5.163   1.822   1.477 -0.1532 -0.0921 -0.1866
 2703SOL    HW1 8855   5.106   1.891   1.511  1.9206  2.4736 -1.5311
 2703SOL    HW2 8856   5.103   1.756   1.442 -2.3424  2.3555 -1.4213
 2704SOL     OW 8857   1.742   0.107   5.098 -1.1336  0.0796 -0.2182
 2704SOL    HW1 8858   1.676   0.164   5.058 -1.4406 -0.1385 -0.0164
 2704SOL    HW2 8859   1.759   0.041   5.031  0.1928  1.1499 -0.9919
 2705SOL     OW 8860   4.933   0.139   5.385  0.2696 -1.1883 -0.2914
 2705SOL    HW1 8861   4.842   0.166   5.372  0.9492  2.0426  0.9026
 2705SOL    HW2 8862   4.978   0.168   5.306  1.1878  2.6058  1.3935
 2706SOL     OW 8863   5.076   1.117   4.512  0.1070 -0.5139 -0.3516
 2706SOL    HW1 8864   5.019   1.041   4.526  0.7292 -0.5993  2.0688
 2706SOL    HW2 8865   5.150   1.083   4.461 -0.1596 -1.2540 -0.2517
 2707SOL     OW 8866   4.014   3.786   2.203  0.0556  0.1016  1.2027
 2707SOL    HW1 8867   3.975   3.804   2.288  0.1630  0.9450  1.0890
 2707SOL    HW2 8868   4.099   3.748   2.223  0.6585  1.5191  1.5205
 2708SOL     OW 8869   2.304   0.649   3.995  0.5081  0.5913  0.4117
 2708SOL    HW1 8870   2.352   0.700   3.929  0.1668  1.6743  0.9709
 2708SOL    HW2 8871   2.237   0.709   4.027 -1.3465 -0.9522 -0.4513
 2709SOL     OW 8872   3.577   1.650   0.704  0.0153 -0.5788 -0.5609
 2709SOL    HW1 8873   3.501   1.636   0.647 -0.1898  0.7596 -0.6458
 2709SOL    HW2 8874   3.584   1.745   0.712 -0.2177 -0.6992  1.9995
 2710SOL     OW 8875   6.190   3.577   0.632  0.4128 -0.7892  0.5166
 2710SOL    HW1 8876   6.105   3.593   0.672  0.2082  0.5473 -0.3945
 2710SOL    HW2 8877   6.219   3.494   0.669 -1.7422 -1.7931  0.0939
 2711SOL     OW 8878   3.183   1.918   0.461 -0.1103 -0.3089  0.1458
 2711SOL    HW1 8879   3.095   1.880   0.458 -0.5375  0.6251  0.3135
 2711SOL    HW2 8880   3.214   1.914   0.371 -1.5121  1.9717 -0.5294
 2712SOL     OW 8881   5.126   3.846   4.964 -0.3399 -0.4666  0.0724
 2712SOL    HW1 8882   5.155   3.790   5.035  1.4023 -1.3259 -1.2422
 2712SOL    HW2 8883   5.092   3.786   4.897  1.2683  0.0034 -1.2251
 2713SOL     OW 8884   0.182   2.926   6.290 -0.9015  0.3356  0.1588
 2713SOL    HW1 8885   0.220   3.011   6.314 -1.7775  0.6508  0.4852
 2713SOL    HW2 8886   0.168   2.882   6.374  3.2415 -1.9000 -0.0301
 2714SOL     OW 8887   1.867   4.127   0.123 -0.4612 -0.0773  0.6889
 2714SOL    HW1 8888   1.810   4.093   0.192  0.0627 -0.8044  0.7691
 2714SOL    HW2 8889   1.937   4.173   0.169 -1.4872  1.7228  0.5767
 2715SOL     OW 8890   1.543   2.385   4.092  0.0153  0.5667  0.5319
 2715SOL    HW1 8891   1.524   2.293   4.071 -1.6458  1.0138 -0.1002
 2715SOL    HW2 8892   1.636   2.395   4.073 -0.3730 -0.2840 -2.1803
 2716SOL     OW 8893   3.446   1.124   3.463 -0.0224  0.1040 -1.2412
 2716SOL    HW1 8894   3.421   1.180   3.537  2.0963 -1.4303  0.7715
 2716SOL    HW2 8895   3.367   1.072   3.445  0.1016 -1.4272  1.8602
 2717SOL     OW 8896   4.123   2.065   1.233  0.0013  0.4200 -0.2086
 2717SOL    HW1 8897   4.192   2.130   1.241  1.1551 -0.1751 -3.7448
 2717SOL    HW2 8898   4.112   2.052   1.139 -1.7408 -2.8723  0.2870
 2718SOL     OW 8899   1.536   5.746   2.647  0.1734  1.1148 -0.3726
 2718SOL    HW1 8900   1.620   5.745   2.693 -1.3129  0.8572  2.6308
 2718SOL    HW2 8901   1.537   5.666   2.594  1.7768  1.0620 -0.3062
 2719SOL     OW 8902   4.423   3.247   2.209 -0.6034 -0.2469 -0.2675
 2719SOL    HW1 8903   4.435   3.268   2.117 -0.7937 -1.4175 -0.5722
 2719SOL    HW2 8904   4.373   3.166   2.209 -0.3555 -0.4189  0.8681
 2720SOL     OW 8905   5.987   1.406   4.035 -0.1880  0.0217  0.2971
 2720SOL    HW1 8906   5.906   1.365   4.004  0.3302  0.6939 -2.1891
 2720SOL    HW2 8907   6.050   1.335   4.039 -0.4957 -0.2321  0.7342
 2721SOL     OW 8908   6.064   2.417   1.686  0.2009 -0.1160  0.5634
 2721SOL    HW1 8909   6.097   2.457   1.605  0.7901 -0.6084  0.5519
 2721SOL    HW2 8910   6.128   2.349   1.706  0.0739  0.0220  1.4621
 2722SOL     OW 8911   1.676   0.846   3.869  0.0931  0.4292  0.1003
 2722SOL    HW1 8912   1.704   0.754   3.865  0.7290  0.6605 -1.1032
 2722SOL    HW2 8913   1.753   0.893   3.900 -0.3182  0.5322  0.9839
 2723SOL     OW 8914   0.973   4.339   1.206 -0.2260 -0.7560  0.2589
 2723SOL    HW1 8915   0.916   4.315   1.279 -0.2812  0.4015  0.6274
 2723SOL    HW2 8916   0.982   4.434   1.214  0.1221 -0.6709 -0.9956
 2724SOL     OW 8917   4.752   3.589   5.425 -0.0312  0.1284 -0.1343
 2724SOL    HW1 8918   4.829   3.594   5.482  0.4813 -0.8803 -0.7021
 2724SOL    HW2 8919   4.698   3.520   5.464 -0.7680  0.9765  0.3817
 2725SOL     OW 8920   1.642   4.952   3.575 -0.0849 -0.6774  0.1994
 2725SOL    HW1 8921   1.715   4.897   3.602 -0.1777 -0.1184  1.7290
 2725SOL    HW2 8922   1.565   4.908   3.609 -0.2588 -0.2110  0.4254
 2726SOL     OW 8923   5.055   2.766   0.660  0.9706  0.3753 -0.2289
 2726SOL    HW1 8924   4.970   2.779   0.702 -0.5263 -0.2910 -2.8487
 2726SOL    HW2 8925   5.111   2.833   0.699 -0.3963  0.1020  2.3900
 2727SOL     OW 8926   0.645   0.353   1.271 -0.0169 -0.1146 -0.0719
 2727SOL    HW1 8927   0.635   0.265   1.306 -0.1281  0.2431  0.8293
 2727SOL    HW2 8928   0.652   0.341   1.176 -1.1981 -0.9897 -0.0620
 2728SOL     OW 8929   4.469   2.534   2.867  0.4970  0.1947  0.3934
 2728SOL    HW1 8930   4.513   2.529   2.952 -0.0991 -2.4909  0.6393
 2728SOL    HW2 8931   4.383   2.570   2.887  0.2497 -0.7013  1.0158
 2729SOL     OW 8932   2.583   1.583   0.775 -0.0828 -0.0722 -0.3016
 2729SOL    HW1 8933   2.677   1.582   0.757 -0.3059 -1.4948 -1.5786
 2729SOL    HW2 8934   2.552   1.663   0.731  0.3822 -0.1134 -0.7228
 2730SOL     OW 8935   3.698   1.180   4.239  0.1698  0.8874 -0.3507
 2730SOL    HW1 8936   3.758   1.254   4.239 -0.8490  1.7491 -0.7969
 2730SOL    HW2 8937   3.665   1.177   4.329  1.6521 -0.2653  0.1815
 2731SOL     OW 8938   3.212   4.787   4.072  0.0343 -0.1228 -0.3588
 2731SOL    HW1 8939   3.162   4.718   4.115  1.2663  0.2973  1.8730
 2731SOL    HW2 8940   3.268   4.741   4.010 -0.7783 -0.8761 -0.5580
 2732SOL     OW 8941   5.365   3.801   0.877  0.2093  0.2905  0.4401
 2732SOL    HW1 8942   5.375   3.874   0.938 -0.7440 -0.5043  1.6040
 2732SOL    HW2 8943   5.312   3.836   0.806  2.2653  1.5463 -0.5356
 2733SOL     OW 8944   4.970   0.158   2.932 -0.4069  0.5202 -0.6838
 2733SOL    HW1 8945   5.008   0.210   3.003  0.1960  0.2414 -0.7969
 2733SOL    HW2 8946   4.877   0.179   2.934 -0.0412  2.5199 -1.4599
 2734SOL     OW 8947   2.214   4.061   2.111 -0.4278  0.1013  0.1152
 2734SOL    HW1 8948   2.201   3.970   2.138 -0.2683 -0.1084 -0.5127
 2734SOL    HW2 8949   2.129   4.089   2.078  0.0370 -0.4908 -1.6631
 2735SOL     OW 8950   0.025   0.300   3.258 -0.3120  0.3292 -0.0419
 2735SOL    HW1 8951  -0.030   0.282   3.182 -0.9167  1.4617  0.1086
 2735SOL    HW2 8952   0.058   0.389   3.244  0.9181 -0.0640  0.2186
 2736SOL     OW 8953   5.415   5.800   5.733 -0.6018 -0.0265  0.1106
 2736SOL    HW1 8954   5.355   5.727   5.747 -0.0189 -0.7713 -1.0831
 2736SOL    HW2 8955   5.457   5.781   5.648  0.8055  0.8169  0.5733
 2737SOL     OW 8956   5.272   6.056   0.332  0.1171 -0.0160  0.7122
 2737SOL    HW1 8957   5.209   6.082   0.398 -0.0918  1.0858  0.0926
 2737SOL    HW2 8958   5.226   6.063   0.249  0.7392 -0.2225  0.3358
 2738SOL     OW 8959   4.999   2.051   1.493 -0.5700  0.3415 -0.0396
 2738SOL    HW1 8960   4.973   2.113   1.561 -0.6654 -1.0871  1.2887
 2738SOL    HW2 8961   4.917   2.020   1.456 -0.5145  1.2319 -0.9407
 2739SOL     OW 8962   3.534   2.448   5.722  0.1287  0.4665 -0.2573
 2739SOL    HW1 8963   3.580   2.532   5.721  1.0984 -0.0207 -2.2251
 2739SOL    HW2 8964   3.601   2.383   5.740 -0.0198 -0.1125 -1.6070
 2740SOL     OW 8965   2.021   5.196   2.411  0.7672 -0.2208 -0.5412
 2740SOL    HW1 8966   2.052   5.282   2.384  0.3166  0.4972  1.1112
 2740SOL    HW2 8967   2.056   5.184   2.499 -2.1604 -0.0732  0.7619
 2741SOL     OW 8968   1.257   1.002   4.370 -0.6531  0.2083 -0.0318
 2741SOL    HW1 8969   1.249   1.002   4.275 -1.4521  0.6067  0.0239
 2741SOL    HW2 8970   1.195   1.069   4.399  0.9446  1.4600  0.6643
 2742SOL     OW 8971   5.446   2.010   0.640 -0.1548  0.2077  0.3533
 2742SOL    HW1 8972   5.370   1.961   0.669  1.1736 -1.2458  1.5756
 2742SOL    HW2 8973   5.521   1.961   0.674  1.3265  1.8219 -0.3996
 2743SOL     OW 8974   5.708   0.966   1.743  0.2610 -0.4195 -0.2202
 2743SOL    HW1 8975   5.772   0.919   1.689 -0.5259 -0.6362 -0.9799
 2743SOL    HW2 8976   5.735   1.058   1.737  0.4175 -0.4907 -0.6553
 2744SOL     OW 8977   3.025   3.467   1.653  0.0485 -0.2344 -0.1659
 2744SOL    HW1 8978   3.112   3.504   1.639 -0.3083 -0.1257 -2.4957
 2744SOL    HW2 8979   3.038   3.402   1.722  1.5612  1.1187  0.8928
 2745SOL     OW 8980   4.693   1.662   2.996  0.0314 -0.0557 -0.1660
 2745SOL    HW1 8981   4.748   1.716   3.052  0.9628 -0.5512 -0.5740
 2745SOL    HW2 8982   4.604   1.696   3.009  0.7069  2.4079 -1.3678
 2746SOL     OW 8983   4.425   3.213   0.902 -0.0243 -0.1882  0.0080
 2746SOL    HW1 8984   4.352   3.271   0.879  0.1110 -0.5264 -1.3242
 2746SOL    HW2 8985   4.503   3.264   0.882  0.0935 -0.7070 -0.8768
 2747SOL     OW 8986   4.480   1.022   4.676  0.2092  0.8380 -0.0309
 2747SOL    HW1 8987   4.455   0.930   4.667  0.0450  0.8232  0.5437
 2747SOL    HW2 8988   4.483   1.055   4.586  0.9292  0.1024 -0.2968
 2748SOL     OW 8989   0.561   0.687   0.106 -0.0591 -0.7551 -0.3841
 2748SOL    HW1 8990   0.516   0.663   0.025  1.5884 -0.4962 -1.4444
 2748SOL    HW2 8991   0.579   0.604   0.149  0.5487 -1.0487 -1.1684
 2749SOL     OW 8992   5.812   4.288   4.784 -0.4483  0.4786  0.1345
 2749SOL    HW1 8993   5.720   4.285   4.813 -0.7043 -0.1856 -0.7026
 2749SOL    HW2 8994   5.860   4.241   4.852 -0.7773  0.4823  0.3759
 2750SOL     OW 8995   2.905   2.666   2.950  0.6670 -0.0642 -0.0421
 2750SOL    HW1 8996   2.874   2.626   3.031  0.9609 -2.2722 -0.9642
 2750SOL    HW2 8997   2.849   2.743   2.939 -2.2440 -1.9872  0.1421
 2751SOL     OW 8998   1.028   2.183   3.286  0.1898  0.5234 -0.0925
 2751SOL    HW1 8999   0.933   2.187   3.294  0.2369 -1.0965  2.1800
 2751SOL    HW2 9000   1.044   2.154   3.196 -1.5926 -1.3817  0.1273
 2752SOL     OW 9001   1.604   2.273   0.539  0.0537 -0.3970 -0.6326
 2752SOL    HW1 9002   1.629   2.193   0.492 -0.4484  0.1801 -1.9151
 2752SOL    HW2 9003   1.687   2.320   0.551  0.1937 -0.5824 -0.8578
 2753SOL     OW 9004   3.093   0.217   0.463 -0.0840  0.2904  0.3361
 2753SOL    HW1 9005   3.179   0.238   0.429 -0.2462 -1.7458 -1.5625
 2753SOL    HW2 9006   3.109   0.189   0.553  1.0490  1.0791  0.3944
 2754SOL     OW 9007   1.871   0.283   0.800  0.2831  0.5430 -0.1080
 2754SOL    HW1 9008   1.809   0.259   0.731  0.7878 -1.4080  0.0593
 2754SOL    HW2 9009   1.872   0.207   0.859  0.1897  1.9702  1.8388
 2755SOL     OW 9010   6.209   0.432   4.034  0.9005  0.1113  0.0026
 2755SOL    HW1 9011   6.196   0.369   3.963 -2.0799 -1.4010  1.6990
 2755SOL    HW2 9012   6.277   0.393   4.088  1.8098  0.3317 -0.9328
 2756SOL     OW 9013   5.214   1.050   1.156 -0.0198 -0.2061  0.2472
 2756SOL    HW1 9014   5.238   0.994   1.230  1.9074 -0.5404 -0.5605
 2756SOL    HW2 9015   5.118   1.054   1.159 -0.1961 -2.8944  0.8161
 2757SOL     OW 9016   2.440   1.106   4.346 -0.0345  0.3536 -0.2652
 2757SOL    HW1 9017   2.534   1.119   4.331  0.5977 -2.7802  0.1011
 2757SOL    HW2 9018   2.403   1.097   4.258  0.7706 -2.0356 -0.4444
 2758SOL     OW 9019   1.491   0.449   1.336 -0.0274 -0.1130 -0.2203
 2758SOL    HW1 9020   1.489   0.375   1.276  0.3753  2.8272 -4.2342
 2758SOL    HW2 9021   1.580   0.484   1.329 -0.4835  1.3549  0.7338
 2759SOL     OW 9022   4.504   5.398   3.064 -0.5109  0.0193  0.1534
 2759SOL    HW1 9023   4.533   5.425   2.977  0.8510  3.3432  1.4784
 2759SOL    HW2 9024   4.578   5.419   3.122 -0.9642 -3.0045  2.0553
 2760SOL     OW 9025   5.399   4.260   1.839  0.0860  0.3977  0.0439
 2760SOL    HW1 9026   5.474   4.277   1.781 -1.0621  3.0736 -0.7994
 2760SOL    HW2 9027   5.433   4.271   1.927  0.8969  0.6281 -0.2925
 2761SOL     OW 9028   1.471   1.435   1.970 -0.3475 -0.5160  0.0350
 2761SOL    HW1 9029   1.429   1.358   1.930 -0.3966  0.0860 -1.1256
 2761SOL    HW2 9030   1.562   1.428   1.944 -0.1231 -0.7512  0.8606
 2762SOL     OW 9031   2.774   1.926   5.241 -0.2292  0.5070  0.3008
 2762SOL    HW1 9032   2.806   1.928   5.151  0.1374  0.2779  0.4219
 2762SOL    HW2 9033   2.848   1.892   5.292  0.2691  2.4355  0.9755
 2763SOL     OW 9034   0.427   4.184   1.797  0.1036  0.5145 -0.5465
 2763SOL    HW1 9035   0.335   4.175   1.773  0.3285 -1.1732 -0.8647
 2763SOL    HW2 9036   0.442   4.279   1.795 -1.7956  0.8936  0.2680
 2764SOL     OW 9037   3.398   3.714   0.580  0.0454  0.2945  0.0071
 2764SOL    HW1 9038   3.305   3.717   0.602  0.0046 -2.0330  0.3858
 2764SOL    HW2 9039   3.402   3.730   0.486 -0.8396 -0.5155 -0.1723
 2765SOL     OW 9040   6.004   2.785   3.878  0.1253 -0.2556 -0.2812
 2765SOL    HW1 9041   6.021   2.719   3.811  1.9420  0.2547 -0.3917
 2765SOL    HW2 9042   5.959   2.737   3.948 -2.5133 -0.6511 -2.0849
 2766SOL     OW 9043   5.784   2.391   3.594 -0.8850  0.3797 -0.2539
 2766SOL    HW1 9044   5.741   2.461   3.642  1.2028  1.8232 -0.3572
 2766SOL    HW2 9045   5.799   2.428   3.507  2.1531  0.6935  0.3091
 2767SOL     OW 9046   2.122   2.427   4.885  0.1165 -0.2026 -0.2475
 2767SOL    HW1 9047   2.206   2.444   4.844  0.1508 -2.7537 -1.4458
 2767SOL    HW2 9048   2.058   2.470   4.827  0.3956 -1.1519 -1.2990
 2768SOL     OW 9049   1.354   3.771   0.640  0.6704 -0.1172 -0.0745
 2768SOL    HW1 9050   1.320   3.832   0.705  0.9013 -0.3144  0.2352
 2768SOL    HW2 9051   1.318   3.802   0.557  2.1514  1.4902 -0.1886
 2769SOL     OW 9052   4.449   4.849   0.066 -0.7440  0.0992  0.2442
 2769SOL    HW1 9053   4.447   4.910   0.140 -1.3228 -0.6171  0.8359
 2769SOL    HW2 9054   4.399   4.773   0.096  1.3300 -1.3859  0.1724
 2770SOL     OW 9055   1.427   5.372   5.181  0.3404  0.1839 -0.4046
 2770SOL    HW1 9056   1.435   5.444   5.118  0.9857  0.2225 -0.2872
 2770SOL    HW2 9057   1.433   5.414   5.266  0.9708 -0.0350 -0.3376
 2771SOL     OW 9058   2.233   5.705   2.850 -0.5218  0.7912 -0.3182
 2771SOL    HW1 9059   2.301   5.750   2.800 -0.5578 -0.1777 -1.2690
 2771SOL    HW2 9060   2.267   5.617   2.863 -0.3704  1.0916  1.6802
 2772SOL     OW 9061   2.033   2.555   4.184 -0.0812 -0.1196 -0.4208
 2772SOL    HW1 9062   2.114   2.519   4.219 -0.9317 -1.5041  0.1921
 2772SOL    HW2 9063   2.020   2.636   4.234  1.4547  0.6964 -1.2797
 2773SOL     OW 9064   3.450   5.606   2.784  0.0269  0.1156  0.0273
 2773SOL    HW1 9065   3.404   5.641   2.860  2.3007  0.2808  1.4145
 2773SOL    HW2 9066   3.535   5.578   2.818  0.0343 -2.5649 -1.8987
 2774SOL     OW 9067   4.859   4.149   2.506 -0.4171 -0.0601  0.4389
 2774SOL    HW1 9068   4.800   4.170   2.579 -0.7505 -0.0847  0.1806
 2774SOL    HW2 9069   4.925   4.092   2.545  0.2229  1.0618  1.0339
 2775SOL     OW 9070   3.583   2.467   6.208  0.2483  0.3712 -0.0020
 2775SOL    HW1 9071   3.535   2.518   6.273  1.3640  1.9413 -0.3437
 2775SOL    HW2 9072   3.574   2.376   6.237 -2.4448  0.6238  0.2303
 2776SOL     OW 9073   3.195   0.398   1.130 -0.3680  0.3523  0.3499
 2776SOL    HW1 9074   3.201   0.493   1.126 -1.3016  0.4823  1.3894
 2776SOL    HW2 9075   3.247   0.373   1.206 -0.4514  0.0782  0.3209
 2777SOL     OW 9076   2.101   4.416   1.524 -0.0676 -0.0205  0.1075
 2777SOL    HW1 9077   2.036   4.465   1.475  0.7345  0.0669 -0.9059
 2777SOL    HW2 9078   2.185   4.438   1.483  0.5788 -0.3620  1.1801
 2778SOL     OW 9079   2.023   6.214   1.965 -0.0688 -0.1582  0.0533
 2778SOL    HW1 9080   1.935   6.234   1.933  0.1183 -1.6069 -1.5335
 2778SOL    HW2 9081   2.017   6.126   2.001  0.8237 -0.4773 -0.5304
 2779SOL     OW 9082   1.451   2.932   6.003  0.8055  0.1778 -0.2446
 2779SOL    HW1 9083   1.530   2.961   6.050  0.1256  0.0502  1.0372
 2779SOL    HW2 9084   1.379   2.961   6.058 -0.0766  0.7185 -1.6447
 2780SOL     OW 9085   1.351   4.598   5.196  0.1088 -0.4020  0.1730
 2780SOL    HW1 9086   1.260   4.595   5.167 -0.4006 -2.4869  1.7344
 2780SOL    HW2 9087   1.402   4.602   5.115 -1.3284 -1.2958 -0.8198
 2781SOL     OW 9088   0.019   3.130   2.274 -1.0628  0.1842 -0.4355
 2781SOL    HW1 9089  -0.033   3.105   2.198 -4.2947  0.9536  1.3372
 2781SOL    HW2 9090  -0.038   3.112   2.349  1.3332  0.9833  1.7091
 2782SOL     OW 9091   0.119   2.270   0.339  0.0177  0.3020  0.0087
 2782SOL    HW1 9092   0.174   2.205   0.383  1.2904  1.1959 -0.1870
 2782SOL    HW2 9093   0.104   2.337   0.405  0.9014  1.0509 -0.5278
 2783SOL     OW 9094   4.705   1.881   0.623  0.4175 -0.0718  0.1135
 2783SOL    HW1 9095   4.614   1.909   0.622  0.6037  0.5086 -0.5671
 2783SOL    HW2 9096   4.753   1.951   0.579  1.4169  0.3765  1.8228
 2784SOL     OW 9097   0.943   3.328   0.019 -0.3391 -0.0695 -0.2694
 2784SOL    HW1 9098   0.979   3.395  -0.039 -0.2068  0.9193  0.9161
 2784SOL    HW2 9099   0.852   3.319  -0.008 -0.3562  0.5851 -0.4504
 2785SOL     OW 9100   5.106   0.759   3.013 -0.1049  0.6491 -0.4436
 2785SOL    HW1 9101   5.081   0.836   3.065 -0.8716  0.7459 -0.9374
 2785SOL    HW2 9102   5.198   0.744   3.035  0.4544  2.5130 -1.3156
 2786SOL     OW 9103   1.749   0.275   1.349 -0.9195  0.4837  0.3887
 2786SOL    HW1 9104   1.732   0.249   1.440  2.1109 -0.6513  0.7381
 2786SOL    HW2 9105   1.683   0.228   1.298 -0.4629 -1.7804  1.7239
 2787SOL     OW 9106   4.420   5.513   4.784 -0.0080  0.4385 -0.2527
 2787SOL    HW1 9107   4.493   5.472   4.738  0.5705 -0.1637  1.1384
 2787SOL    HW2 9108   4.342   5.469   4.750  0.5615 -1.5754  0.8795
 2788SOL     OW 9109   1.160   5.907   5.968 -0.2786  0.3347 -0.2890
 2788SOL    HW1 9110   1.072   5.921   6.002 -1.1925 -1.2960 -1.7849
 2788SOL    HW2 9111   1.179   5.815   5.986 -0.9819 -0.7814 -4.1305
 2789SOL     OW 9112   5.176   2.436   1.218 -0.3410  0.2001 -0.3638
 2789SOL    HW1 9113   5.170   2.349   1.258 -1.2918  0.3313 -0.2072
 2789SOL    HW2 9114   5.221   2.490   1.284  2.5470 -0.7129 -1.4184
 2790SOL     OW 9115   1.004   0.079   3.445  0.5928  0.4514  0.3422
 2790SOL    HW1 9116   1.055   0.159   3.457  2.6515 -0.6907 -0.2303
 2790SOL    HW2 9117   1.039   0.040   3.365  1.9569 -2.5860  2.2249
 2791SOL     OW 9118   5.449   6.262   1.866 -0.4847  0.3336  0.8482
 2791SOL    HW1 9119   5.418   6.243   1.955 -0.6072  0.5879  0.8599
 2791SOL    HW2 9120   5.370   6.283   1.817 -0.3401  0.9450  0.8701
 2792SOL     OW 9121   3.710   5.705   5.036 -0.6474 -0.2716 -0.5868
 2792SOL    HW1 9122   3.715   5.610   5.021 -1.4506 -0.5397  0.6387
 2792SOL    HW2 9123   3.686   5.713   5.128 -1.1086  1.1235 -0.8019
 2793SOL     OW 9124   0.753   3.185   2.176 -0.3512  0.1013  0.0982
 2793SOL    HW1 9125   0.677   3.130   2.195 -0.2137  0.2746  1.2321
 2793SOL    HW2 9126   0.751   3.254   2.243 -0.6694  1.6660 -1.4562
 2794SOL     OW 9127   5.669   3.345   3.894 -1.1631  0.2915  0.0160
 2794SOL    HW1 9128   5.615   3.355   3.815 -0.1413 -0.6149 -0.8300
 2794SOL    HW2 9129   5.697   3.253   3.892  0.9834  0.8933  0.0174
 2795SOL     OW 9130   5.062   0.962   3.166  0.0016  0.0026 -1.1074
 2795SOL    HW1 9131   5.021   1.049   3.174 -1.4726 -0.7258 -0.2508
 2795SOL    HW2 9132   5.108   0.949   3.250  1.2349  0.4246 -1.6992
 2796SOL     OW 9133   2.583   1.257   2.243 -0.6901 -0.2479 -0.6166
 2796SOL    HW1 9134   2.623   1.174   2.215 -0.9132 -0.4383 -0.3774
 2796SOL    HW2 9135   2.547   1.238   2.330  1.5210  0.7961  0.6084
 2797SOL     OW 9136   0.497   4.392   2.550 -0.2279  0.1393  0.1864
 2797SOL    HW1 9137   0.592   4.402   2.563 -0.0146  1.6546 -2.1573
 2797SOL    HW2 9138   0.458   4.451   2.614  0.3508 -0.5427  1.2194
 2798SOL     OW 9139   0.667   6.289   3.979 -0.4244  0.0309 -0.7369
 2798SOL    HW1 9140   0.620   6.252   4.053 -1.1806 -1.4416 -1.8995
 2798SOL    HW2 9141   0.709   6.214   3.937 -0.3514  0.7612 -2.0351
 2799SOL     OW 9142   6.031   5.156   6.290 -0.0324 -0.0398 -0.1477
 2799SOL    HW1 9143   5.998   5.175   6.202  1.1324  1.2606 -0.3488
 2799SOL    HW2 9144   6.126   5.152   6.278  0.0456 -1.5200  0.7755
 2800SOL     OW 9145   1.902   1.854   4.976  0.0551  0.0865 -0.2187
 2800SOL    HW1 9146   1.913   1.922   5.042  2.2464 -0.4173 -0.0077
 2800SOL    HW2 9147   1.872   1.901   4.898 -0.0302  1.0586  0.3854
 2801SOL     OW 9148   3.968   0.794   4.483 -0.3741 -0.1786  0.1172
 2801SOL    HW1 9149   3.888   0.786   4.431 -0.6796  0.7764  0.4190
 2801SOL    HW2 9150   4.002   0.881   4.461  0.5300 -0.5316  0.0757
 2802SOL     OW 9151   4.858   5.769   3.764  0.0567 -0.4094 -0.3967
 2802SOL    HW1 9152   4.792   5.838   3.757  1.1738  0.5908 -1.6470
 2802SOL    HW2 9153   4.871   5.759   3.858 -0.2572  0.9914 -0.1748
 2803SOL     OW 9154   2.700   3.079   4.424  0.2219  0.1424 -0.6988
 2803SOL    HW1 9155   2.638   3.069   4.351  0.1142 -1.3937 -0.4481
 2803SOL    HW2 9156   2.785   3.090   4.382 -0.0476  0.9270 -1.0519
 2804SOL     OW 9157   1.169   5.031   5.528  0.3259  0.0504 -0.0099
 2804SOL    HW1 9158   1.158   5.047   5.622 -0.4325  0.3951 -0.1526
 2804SOL    HW2 9159   1.235   4.962   5.523 -0.9712 -1.3355  0.8743
 2805SOL     OW 9160   1.451   6.167   4.660 -0.2813 -0.6366 -0.8066
 2805SOL    HW1 9161   1.489   6.246   4.697 -2.3127 -0.0548  0.1554
 2805SOL    HW2 9162   1.524   6.124   4.615  1.5904  0.1575  1.3167
 2806SOL     OW 9163   1.163   1.071   1.533 -0.1445  0.3460 -0.2279
 2806SOL    HW1 9164   1.149   1.118   1.615 -1.2043 -0.2685 -0.0380
 2806SOL    HW2 9165   1.258   1.059   1.528 -0.0057  1.0375  0.5344
 2807SOL     OW 9166   0.555   4.690   5.285  0.0680  0.2711 -0.3772
 2807SOL    HW1 9167   0.475   4.690   5.231  0.8424  0.8191 -1.5577
 2807SOL    HW2 9168   0.568   4.781   5.309 -0.6949 -0.0524  1.4604
 2808SOL     OW 9169   2.684   0.614   4.154  0.6700 -0.2858 -0.4110
 2808SOL    HW1 9170   2.697   0.537   4.210  0.2521 -0.8622 -1.0964
 2808SOL    HW2 9171   2.701   0.583   4.065 -1.6265 -0.1708 -0.9580
 2809SOL     OW 9172   3.630   3.986   2.555 -0.0082 -0.6237 -0.2559
 2809SOL    HW1 9173   3.540   4.008   2.530  0.0073  2.0005  1.5674
 2809SOL    HW2 9174   3.621   3.909   2.611 -1.3733  0.4718  1.1272
 2810SOL     OW 9175   6.040   1.374   3.456 -0.1819 -0.2184 -0.5385
 2810SOL    HW1 9176   6.008   1.372   3.546  0.4887 -0.2241 -0.2952
 2810SOL    HW2 9177   6.124   1.327   3.459  0.1401  0.3172 -1.0462
 2811SOL     OW 9178   3.939   5.996   3.912 -0.1642  0.1131 -0.4102
 2811SOL    HW1 9179   3.902   6.022   3.828 -1.9681  0.3845  0.4037
 2811SOL    HW2 9180   3.896   5.913   3.931 -1.0123  0.8242  0.9409
 2812SOL     OW 9181   4.218   5.178   1.216 -0.0321  0.0946  0.2926
 2812SOL    HW1 9182   4.210   5.091   1.255  0.3750 -0.3429 -0.5766
 2812SOL    HW2 9183   4.171   5.172   1.133  1.4309  0.1835 -0.5822
 2813SOL     OW 9184   4.574   1.377   5.374  0.3987  0.0192  0.1714
 2813SOL    HW1 9185   4.525   1.456   5.351  0.6483  0.1273 -0.0048
 2813SOL    HW2 9186   4.665   1.406   5.378  0.6588 -0.5147 -1.1843
 2814SOL     OW 9187   5.180   3.843   0.680  0.1684 -0.0035  0.2801
 2814SOL    HW1 9188   5.105   3.796   0.716  1.4238 -2.9792 -0.6514
 2814SOL    HW2 9189   5.144   3.924   0.645 -2.1119 -0.0672  2.2724
 2815SOL     OW 9190   3.907   1.656   0.104 -0.3041 -0.5757  0.3929
 2815SOL    HW1 9191   3.919   1.630   0.196  0.1946 -0.7770  0.2741
 2815SOL    HW2 9192   3.914   1.574   0.055 -0.4766 -0.4550  0.1655
 2816SOL     OW 9193   3.499   2.275   2.616  0.2258 -0.6775  0.0399
 2816SOL    HW1 9194   3.588   2.292   2.646  0.4449  0.5944 -1.2347
 2816SOL    HW2 9195   3.444   2.297   2.691  0.9686 -1.7667  0.9438
 2817SOL     OW 9196   6.080   1.005   2.526 -0.3037  0.0353 -0.4136
 2817SOL    HW1 9197   6.030   1.087   2.520  0.2180  0.4872  1.0382
 2817SOL    HW2 9198   6.080   0.984   2.619  1.6864 -0.2712 -0.4365
 2818SOL     OW 9199   5.072   2.141   5.561 -0.2799  0.0996  0.0622
 2818SOL    HW1 9200   5.004   2.172   5.501 -0.7195  0.2375  0.6179
 2818SOL    HW2 9201   5.154   2.168   5.520 -0.4594 -1.5546 -1.4623
 2819SOL     OW 9202   0.800   2.434   6.000  0.8174 -0.0444  0.3270
 2819SOL    HW1 9203   0.744   2.379   5.946  0.5631 -0.2553  0.8082
 2819SOL    HW2 9204   0.889   2.404   5.980  0.6112 -1.9239  1.9791
 2820SOL     OW 9205   0.285   1.316   3.072  0.0492 -0.7253 -0.2520
 2820SOL    HW1 9206   0.284   1.317   3.167 -0.1137 -0.6284 -0.2553
 2820SOL    HW2 9207   0.360   1.260   3.049  0.6699  0.0221 -0.0748
 2821SOL     OW 9208   6.204   2.509   3.489 -0.1835 -0.3882  0.2537
 2821SOL    HW1 9209   6.290   2.543   3.465 -0.3847 -0.3541 -0.4124
 2821SOL    HW2 9210   6.221   2.457   3.568  0.5437 -0.8270 -0.1769
 2822SOL     OW 9211   4.962   5.578   3.376 -0.4412 -0.2570 -0.0326
 2822SOL    HW1 9212   4.962   5.606   3.284 -0.6000 -2.0514 -0.6175
 2822SOL    HW2 9213   5.047   5.607   3.410 -0.9371  1.6972 -0.2825
 2823SOL     OW 9214   3.839   0.458   5.200 -0.3292  0.0333 -0.4025
 2823SOL    HW1 9215   3.799   0.472   5.114 -0.5259 -0.4093 -0.3894
 2823SOL    HW2 9216   3.789   0.515   5.259 -0.0350  0.5217 -0.6176
 2824SOL     OW 9217   3.144   2.291   1.878  0.2016  0.1288 -0.3094
 2824SOL    HW1 9218   3.224   2.281   1.929  0.9285 -0.3262 -1.4873
 2824SOL    HW2 9219   3.174   2.293   1.787 -1.0396  0.9613 -0.7345
 2825SOL     OW 9220   0.197   1.467   6.238  0.1269 -0.5108  0.3161
 2825SOL    HW1 9221   0.277   1.515   6.217 -0.6223  0.3564 -0.6626
 2825SOL    HW2 9222   0.213   1.379   6.204  0.8208 -0.4716  0.5131
 2826SOL     OW 9223   2.094   3.058   2.923  0.6109 -0.4717 -0.3781
 2826SOL    HW1 9224   2.019   2.999   2.915 -0.1954  0.2288  1.4414
 2826SOL    HW2 9225   2.110   3.065   3.017  1.3255  1.3995 -0.5849
 2827SOL     OW 9226   5.795   5.570   4.630  0.2536  0.1591 -0.0317
 2827SOL    HW1 9227   5.731   5.535   4.692 -0.5899  0.6404 -0.6125
 2827SOL    HW2 9228   5.746   5.582   4.548  1.1111  0.4332 -0.5231
 2828SOL     OW 9229   6.217   0.894   0.847 -0.3297  0.4280  0.0564
 2828SOL    HW1 9230   6.224   0.939   0.763  0.1611  0.1424 -0.0567
 2828SOL    HW2 9231   6.143   0.833   0.836 -0.8938  1.0802  0.1591
 2829SOL     OW 9232   2.166   4.090   0.246 -0.2916  0.0901  0.2283
 2829SOL    HW1 9233   2.161   4.065   0.338 -0.6552  0.1658  0.2337
 2829SOL    HW2 9234   2.191   4.009   0.201  1.6270  0.4707  0.5686
 2830SOL     OW 9235   1.353   5.303   3.533  0.7953  0.3296 -0.7026
 2830SOL    HW1 9236   1.439   5.346   3.530  1.2942 -0.6029 -0.2102
 2830SOL    HW2 9237   1.307   5.349   3.603  1.5252 -0.2639  0.1938
 2831SOL     OW 9238   3.957   2.933   3.557  0.0152 -0.3668  0.1462
 2831SOL    HW1 9239   4.006   2.995   3.612  0.2225  1.1223 -1.6155
 2831SOL    HW2 9240   4.012   2.919   3.481 -0.8825 -1.2677 -0.3625
 2832SOL     OW 9241   3.516   5.020   2.691 -0.3976  0.2725 -0.3893
 2832SOL    HW1 9242   3.532   5.106   2.651 -0.8068  0.7367  0.4125
 2832SOL    HW2 9243   3.485   4.965   2.620  1.5778  0.2669 -1.3069
 2833SOL     OW 9244   3.843   5.817   4.809 -0.1397 -0.0537  0.7654
 2833SOL    HW1 9245   3.813   5.779   4.892 -0.1278  0.2767  0.9223
 2833SOL    HW2 9246   3.911   5.879   4.835 -0.3403  0.2639  0.5278
 2834SOL     OW 9247   2.976   3.526   3.941  0.3370  0.5436 -0.1284
 2834SOL    HW1 9248   2.899   3.559   3.987 -0.9470 -1.4145 -0.7694
 2834SOL    HW2 9249   3.027   3.482   4.008 -0.2688 -0.1267 -0.0952
 2835SOL     OW 9250   1.996   2.678   0.501  0.2964  0.0658  0.8916
 2835SOL    HW1 9251   2.062   2.701   0.566 -0.9544  1.9028  1.5808
 2835SOL    HW2 9252   2.046   2.644   0.427  1.9054  0.1314  1.9059
 2836SOL     OW 9253   5.388   1.763   3.709 -1.0014 -0.0307 -0.5542
 2836SOL    HW1 9254   5.360   1.855   3.705 -0.9592 -0.0307 -0.8740
 2836SOL    HW2 9255   5.354   1.731   3.792 -0.6498  0.3987 -0.2378
 2837SOL     OW 9256   4.836   3.914   1.885  0.3426 -0.7391 -0.3142
 2837SOL    HW1 9257   4.928   3.933   1.901 -0.0752  0.5643  0.7662
 2837SOL    HW2 9258   4.794   4.000   1.881 -1.0387 -1.3163  0.6752
 2838SOL     OW 9259   0.844   4.539   0.233 -0.1461  0.3244 -0.0818
 2838SOL    HW1 9260   0.902   4.591   0.289  0.6177  0.3432 -0.8461
 2838SOL    HW2 9261   0.807   4.603   0.172 -0.4093  0.2055 -0.0451
 2839SOL     OW 9262   4.547   2.047   5.279  0.0253  0.0746 -0.4447
 2839SOL    HW1 9263   4.499   2.018   5.202  0.5174  2.2359 -1.6407
 2839SOL    HW2 9264   4.619   2.099   5.245  1.4891 -0.5919  1.4297
 2840SOL     OW 9265   1.728   4.573   5.565  0.2351  0.8153 -0.3074
 2840SOL    HW1 9266   1.811   4.555   5.521 -0.7201  0.2520 -1.9989
 2840SOL    HW2 9267   1.675   4.615   5.497 -0.3527  2.6613  1.1956
 2841SOL     OW 9268   4.946   1.209   1.708  0.1282 -0.2211  0.3058
 2841SOL    HW1 9269   4.981   1.285   1.755 -1.5292 -0.3604  1.8677
 2841SOL    HW2 9270   4.863   1.239   1.671  0.0133 -0.9556 -0.0512
 2842SOL     OW 9271   3.173   2.396   0.597  0.5361 -0.4985 -0.0920
 2842SOL    HW1 9272   3.233   2.460   0.636 -1.2287 -0.4222  2.7692
 2842SOL    HW2 9273   3.209   2.311   0.622  0.9737 -0.5479 -0.8618
 2843SOL     OW 9274   4.673   3.758   1.199  0.3628 -1.1549  0.1936
 2843SOL    HW1 9275   4.702   3.846   1.178 -1.1111 -1.1942 -2.3731
 2843SOL    HW2 9276   4.741   3.724   1.258  2.9130  0.3943 -1.6372
 2844SOL     OW 9277   3.682   1.304   5.273  0.9222  0.1316 -0.7710
 2844SOL    HW1 9278   3.705   1.292   5.180  1.7490  0.0499 -0.5650
 2844SOL    HW2 9279   3.587   1.314   5.273  0.8438 -0.4914 -1.5674
 2845SOL     OW 9280   3.342   3.691   3.425  0.2373 -0.3563 -0.1882
 2845SOL    HW1 9281   3.310   3.759   3.367  0.8792  1.2513  1.2694
 2845SOL    HW2 9282   3.384   3.627   3.367  0.4210  0.9287 -1.5079
 2846SOL     OW 9283   4.636   0.235   2.631  0.4965  0.5248  0.2322
 2846SOL    HW1 9284   4.622   0.183   2.552  0.5018  1.0134 -0.0955
 2846SOL    HW2 9285   4.552   0.232   2.677  0.1887  1.0322 -0.2769
 2847SOL     OW 9286   2.699   2.766   3.526  0.0596 -0.0773 -0.1024
 2847SOL    HW1 9287   2.640   2.786   3.453 -0.3360  1.8622  0.6845
 2847SOL    HW2 9288   2.658   2.807   3.602  1.1608 -0.8711  0.9538
 2848SOL     OW 9289   6.034   2.597   5.516  0.3272 -0.0011  0.2045
 2848SOL    HW1 9290   6.115   2.640   5.489  0.3524 -0.6923 -0.8805
 2848SOL    HW2 9291   6.045   2.506   5.489 -1.3086  0.1404 -1.1778
 2849SOL     OW 9292   4.724   1.256   4.668  0.2744  0.0271  0.1495
 2849SOL    HW1 9293   4.716   1.198   4.592  0.2159  1.2929 -0.8520
 2849SOL    HW2 9294   4.635   1.289   4.683  0.2442 -0.3866  0.9163
 2850SOL     OW 9295   6.258   2.651   2.956 -0.7916  0.0695  0.2275
 2850SOL    HW1 9296   6.268   2.744   2.977 -0.2465  0.1374 -0.3058
 2850SOL    HW2 9297   6.206   2.650   2.876  1.7585  0.0964 -1.5574
 2851SOL     OW 9298   2.950   2.925   3.666  0.0045 -0.0365 -0.0511
 2851SOL    HW1 9299   2.913   2.847   3.707  0.8774 -1.2261 -1.4149
 2851SOL    HW2 9300   2.944   2.993   3.734 -0.7524 -1.2809  1.1853
 2852SOL     OW 9301   3.631   4.071   3.952  0.1185 -0.1611 -0.3268
 2852SOL    HW1 9302   3.718   4.059   3.990 -0.3526 -1.4687  0.4053
 2852SOL    HW2 9303   3.638   4.037   3.863  0.7322  1.1717 -0.8173
 2853SOL     OW 9304   2.778   6.149   1.531  0.0566  0.2344  0.6491
 2853SOL    HW1 9305   2.800   6.089   1.459 -1.2576 -0.6405  0.9437
 2853SOL    HW2 9306   2.843   6.129   1.598 -0.3027 -0.8150  0.7025
 2854SOL     OW 9307   3.192   5.697   2.431  0.2928 -0.4590 -0.2158
 2854SOL    HW1 9308   3.231   5.728   2.349 -2.3345 -0.0155 -1.3998
 2854SOL    HW2 9309   3.241   5.741   2.499  1.2952  0.7018 -1.6293
 2855SOL     OW 9310   0.569   0.523   2.669 -0.2210 -0.1118  0.3905
 2855SOL    HW1 9311   0.557   0.616   2.650 -1.3657 -0.2894  0.1563
 2855SOL    HW2 9312   0.624   0.522   2.748  1.1276  0.7106 -0.5041
 2856SOL     OW 9313   0.893   1.060   3.496  0.2352  0.3438 -0.7203
 2856SOL    HW1 9314   0.980   1.073   3.533  0.3026  0.8486 -1.0400
 2856SOL    HW2 9315   0.885   0.966   3.484  0.3630  0.2009  0.2092
 2857SOL     OW 9316   1.832   5.007   3.808 -0.1805  0.0647  0.1039
 2857SOL    HW1 9317   1.809   4.965   3.891  0.5574 -2.0900 -0.7177
 2857SOL    HW2 9318   1.816   4.940   3.742  2.0949  0.6945 -1.1762
 2858SOL     OW 9319   2.350   1.786   5.798  0.3097  0.4730 -0.2738
 2858SOL    HW1 9320   2.413   1.780   5.727  1.7897  0.8384  0.9577
 2858SOL    HW2 9321   2.348   1.698   5.837  0.1240  0.4861 -0.2517
 2859SOL     OW 9322   0.565   2.385   5.250  0.0171  0.0599  0.5651
 2859SOL    HW1 9323   0.607   2.321   5.307 -0.2470 -0.1261  0.5525
 2859SOL    HW2 9324   0.488   2.415   5.299  0.3455  0.6408  0.7263
 2860SOL     OW 9325   4.791   4.812   3.442 -0.0709  0.5292  0.6508
 2860SOL    HW1 9326   4.800   4.865   3.521  1.4561 -1.1682  1.6797
 2860SOL    HW2 9327   4.746   4.732   3.471  1.9751 -0.8510  0.2279
 2861SOL     OW 9328   1.622   1.329   1.273  0.0745 -0.5243  0.2643
 2861SOL    HW1 9329   1.654   1.313   1.362  0.6836 -0.0595  0.1320
 2861SOL    HW2 9330   1.633   1.423   1.259  2.1056 -0.9121 -1.0973
 2862SOL     OW 9331   0.373   0.246   4.098  0.6960  0.1509  0.4450
 2862SOL    HW1 9332   0.392   0.268   4.189 -0.0566 -0.0126  0.6470
 2862SOL    HW2 9333   0.314   0.171   4.103  2.2157 -1.1460 -0.2137
 2863SOL     OW 9334   5.957   5.067   4.564  0.6844  0.0862 -0.4012
 2863SOL    HW1 9335   5.914   4.983   4.551  0.2194  0.3634 -0.6835
 2863SOL    HW2 9336   6.010   5.079   4.484 -2.9912  2.2806 -2.8050
 2864SOL     OW 9337   2.656   0.373   4.266  0.0379  0.2348 -0.2564
 2864SOL    HW1 9338   2.567   0.339   4.270 -0.1192  0.3773 -1.8872
 2864SOL    HW2 9339   2.707   0.316   4.323 -1.3097  0.9631  1.7919
 2865SOL     OW 9340   3.311   3.429   4.443 -0.0734 -0.3706 -0.0229
 2865SOL    HW1 9341   3.404   3.440   4.464 -0.2896  1.2119  0.2137
 2865SOL    HW2 9342   3.311   3.384   4.358  0.8999 -0.1166 -0.1734
 2866SOL     OW 9343   5.723   5.959   2.671  0.6762 -0.5997 -0.3482
 2866SOL    HW1 9344   5.684   5.959   2.758  1.4773 -0.0485  0.0182
 2866SOL    HW2 9345   5.738   5.866   2.651  1.5204 -0.6778  0.5842
 2867SOL     OW 9346   4.113   5.218   5.716  0.0486 -0.0035  0.0197
 2867SOL    HW1 9347   4.136   5.150   5.652 -0.1458  0.3596 -0.4447
 2867SOL    HW2 9348   4.196   5.263   5.734  0.0167  0.2090 -0.3541
 2868SOL     OW 9349   1.228   4.932   2.505  0.3003 -0.1997 -0.3710
 2868SOL    HW1 9350   1.147   4.957   2.461 -1.2174 -2.7725  0.7609
 2868SOL    HW2 9351   1.241   4.840   2.480  1.3626 -0.6260  1.6153
 2869SOL     OW 9352   3.989   5.664   5.993 -0.1306  0.5488  0.1377
 2869SOL    HW1 9353   3.963   5.696   6.079  0.7023 -0.6242  0.8553
 2869SOL    HW2 9354   3.985   5.568   6.001 -1.9624  0.4167 -1.7429
 2870SOL     OW 9355   4.940   2.421   5.203  0.3030  0.4270 -0.3445
 2870SOL    HW1 9356   5.003   2.483   5.167  1.3584  0.2687  1.1339
 2870SOL    HW2 9357   4.985   2.383   5.278 -0.2508 -2.2090 -1.2382
 2871SOL     OW 9358   5.612   1.055   2.236 -0.4787 -0.3798 -0.1292
 2871SOL    HW1 9359   5.543   1.018   2.291 -1.2047  1.9269  0.6316
 2871SOL    HW2 9360   5.673   0.982   2.222 -0.1362 -1.1189  3.8733
 2872SOL     OW 9361   2.099   3.476   2.282  0.3350  0.3444 -0.1833
 2872SOL    HW1 9362   2.174   3.478   2.222  0.3695 -2.0758 -0.3248
 2872SOL    HW2 9363   2.024   3.498   2.228  0.4305 -1.3422 -1.0509
 2873SOL     OW 9364   5.984   3.875   1.291  0.2972  0.4037  0.1369
 2873SOL    HW1 9365   5.906   3.826   1.316  1.0288 -2.6432 -2.8887
 2873SOL    HW2 9366   5.954   3.966   1.286 -2.4885 -0.3550  1.0614
 2874SOL     OW 9367   0.167   5.600   0.699  0.6019  0.2258  0.1254
 2874SOL    HW1 9368   0.081   5.619   0.735  0.6793 -0.3661  0.6394
 2874SOL    HW2 9369   0.156   5.518   0.650  0.4726  1.0727 -1.3322
 2875SOL     OW 9370   5.616   5.192   4.094  0.3423  0.0979  0.5673
 2875SOL    HW1 9371   5.561   5.115   4.112  1.6010 -0.4737  2.1393
 2875SOL    HW2 9372   5.679   5.195   4.166  0.1929  2.7715  0.6951
 2876SOL     OW 9373   6.147   4.412   2.571  0.5591 -0.4841  0.0630
 2876SOL    HW1 9374   6.146   4.397   2.477  0.0622 -0.1706  0.0155
 2876SOL    HW2 9375   6.072   4.470   2.587 -0.0717 -1.4583  0.8014
 2877SOL     OW 9376   0.078   3.074   5.732  0.0500  0.3002 -0.3706
 2877SOL    HW1 9377   0.063   3.022   5.811  0.4460  1.3441  0.4086
 2877SOL    HW2 9378   0.048   3.162   5.754  0.0651  0.5853 -1.4205
 2878SOL     OW 9379   1.820   2.459   5.849  0.5048  0.5937  0.2542
 2878SOL    HW1 9380   1.792   2.372   5.876 -1.0251  0.7093 -0.8539
 2878SOL    HW2 9381   1.843   2.450   5.757  1.3535  1.1481  0.3996
 2879SOL     OW 9382   3.482   3.135   0.477 -0.6763  0.3738 -0.2628
 2879SOL    HW1 9383   3.414   3.070   0.495  1.4816 -1.4061  2.2023
 2879SOL    HW2 9384   3.518   3.109   0.392 -1.4568 -0.1307 -0.4496
 2880SOL     OW 9385   4.924   0.081   4.828 -0.5474  0.4067 -0.0286
 2880SOL    HW1 9386   4.868   0.004   4.841 -3.4380  2.0073 -1.8252
 2880SOL    HW2 9387   4.951   0.074   4.736  1.0781  0.4335  0.4230
 2881SOL     OW 9388   1.942   4.245   3.477  0.3626  0.0515  0.1003
 2881SOL    HW1 9389   1.880   4.201   3.419  0.1637 -0.9157  1.0210
 2881SOL    HW2 9390   1.994   4.175   3.516  2.7172  0.8742 -1.3274
 2882SOL     OW 9391   3.773   4.152   5.804  0.1076 -0.3294  0.0215
 2882SOL    HW1 9392   3.727   4.077   5.766  0.0841  0.1829 -0.9718
 2882SOL    HW2 9393   3.810   4.198   5.729  2.2137 -0.6933  0.7686
 2883SOL     OW 9394   3.027   2.426   4.409 -0.5343 -0.0713 -0.2755
 2883SOL    HW1 9395   2.955   2.382   4.362 -0.9988 -0.1262  0.4639
 2883SOL    HW2 9396   2.982   2.483   4.472  0.0439 -1.3744  1.3789
 2884SOL     OW 9397   3.272   4.770   4.722 -0.4571  0.4053  0.0592
 2884SOL    HW1 9398   3.365   4.752   4.710 -0.4010  0.8786 -0.2374
 2884SOL    HW2 9399   3.248   4.723   4.802 -0.5181 -1.6504 -1.1050
 2885SOL     OW 9400   5.549   2.851   4.862 -0.2743 -0.3566 -0.2867
 2885SOL    HW1 9401   5.534   2.942   4.836  0.0223 -0.4130 -0.6640
 2885SOL    HW2 9402   5.473   2.804   4.830 -1.4524  0.0779  1.6905
 2886SOL     OW 9403   2.410   1.465   5.221 -0.7793 -0.2221  0.4818
 2886SOL    HW1 9404   2.401   1.387   5.276 -1.9847 -0.3655  0.1137
 2886SOL    HW2 9405   2.504   1.483   5.219 -0.6143 -0.8977  1.6312
 2887SOL     OW 9406   2.422   3.692   4.547  0.0318  0.4885 -0.1013
 2887SOL    HW1 9407   2.491   3.747   4.509  0.7873 -1.3334 -1.5373
 2887SOL    HW2 9408   2.365   3.671   4.473  0.6120 -1.8248  0.0279
 2888SOL     OW 9409   2.218   1.669   6.123  0.3528  0.2285  0.2296
 2888SOL    HW1 9410   2.157   1.598   6.101 -1.2547  1.9403 -1.2007
 2888SOL    HW2 9411   2.167   1.749   6.108  2.8483  1.7452 -0.6921
 2889SOL     OW 9412   5.218   0.823   4.792 -0.0011  0.0707 -0.4722
 2889SOL    HW1 9413   5.296   0.876   4.809 -0.5822  0.5427  0.8046
 2889SOL    HW2 9414   5.252   0.742   4.756  1.0099  0.6756 -0.9237
 2890SOL     OW 9415   2.971   1.803   2.430  0.3697 -0.2043 -0.6005
 2890SOL    HW1 9416   2.996   1.854   2.507 -1.2447 -0.6243  0.2586
 2890SOL    HW2 9417   2.975   1.712   2.458 -0.3678 -0.3598 -0.9431
 2891SOL     OW 9418   1.635   5.242   4.992 -0.0877  0.3453 -0.5436
 2891SOL    HW1 9419   1.590   5.226   5.075  1.2876  0.2993  0.2242
 2891SOL    HW2 9420   1.585   5.191   4.928 -0.8821 -0.0287  0.3364
 2892SOL     OW 9421   6.299   1.260   1.173  0.1187  0.0425  0.3648
 2892SOL    HW1 9422   6.339   1.173   1.176 -1.4041 -0.7358 -0.9320
 2892SOL    HW2 9423   6.303   1.285   1.080 -1.4196  0.3898  0.3662
 2893SOL     OW 9424   3.899   4.684   0.867 -0.1149 -0.4152 -0.2786
 2893SOL    HW1 9425   3.927   4.673   0.776 -2.7552 -1.4921 -1.0469
 2893SOL    HW2 9426   3.811   4.721   0.861 -1.6015 -3.2221  1.6379
 2894SOL     OW 9427   5.992   0.918   6.235 -0.1172 -0.1560 -0.3993
 2894SOL    HW1 9428   5.909   0.870   6.240  0.0313 -0.7535 -2.4294
 2894SOL    HW2 9429   6.056   0.859   6.274 -0.7542  0.7855  2.2586
 2895SOL     OW 9430   0.183   2.125   5.643 -0.3034 -0.0981 -0.5962
 2895SOL    HW1 9431   0.174   2.078   5.561  0.1852 -1.6162  0.1747
 2895SOL    HW2 9432   0.093   2.138   5.674 -0.4953 -3.3626  0.6529
 2896SOL     OW 9433   5.303   2.014   3.693  0.1441 -0.4972  0.9226
 2896SOL    HW1 9434   5.257   2.072   3.754  0.7985 -0.5019  1.4299
 2896SOL    HW2 9435   5.287   2.053   3.607  0.2193  0.1987  1.2145
 2897SOL     OW 9436   5.704   1.196   6.139  0.5706 -0.3019 -0.0657
 2897SOL    HW1 9437   5.697   1.129   6.208 -0.6674 -1.2937 -1.0988
 2897SOL    HW2 9438   5.753   1.154   6.069 -0.5142 -0.2937 -0.8653
 2898SOL     OW 9439   6.143   5.941   1.143 -0.1358  0.6143 -0.6526
 2898SOL    HW1 9440   6.080   6.013   1.140 -0.3449  0.5879  1.5349
 2898SOL    HW2 9441   6.091   5.864   1.166  0.6605  0.7160  1.9138
 2899SOL     OW 9442   3.874   4.475   1.890  0.8397  0.2151 -0.3297
 2899SOL    HW1 9443   3.964   4.451   1.912  0.6606 -0.4631 -0.2920
 2899SOL    HW2 9444   3.844   4.404   1.832  0.3522  0.4656 -0.3908
 2900SOL     OW 9445   4.059   4.945   0.692  0.2708  0.3474  0.2045
 2900SOL    HW1 9446   3.977   4.898   0.708  0.4167  0.1156  0.2772
 2900SOL    HW2 9447   4.077   4.932   0.599 -0.1447  0.9994  0.0246
 2901SOL     OW 9448   2.237   1.269   2.848  0.9336 -0.0046 -0.3370
 2901SOL    HW1 9449   2.174   1.341   2.846  0.1347 -0.4706  2.6317
 2901SOL    HW2 9450   2.218   1.219   2.769 -3.3374 -0.7097  0.8665
 2902SOL     OW 9451   2.302   5.129   5.126  0.3493 -0.8037 -0.0120
 2902SOL    HW1 9452   2.348   5.067   5.070 -0.1476 -1.6481  0.4868
 2902SOL    HW2 9453   2.209   5.110   5.112  0.0779  1.3219 -1.5067
 2903SOL     OW 9454   0.584   4.618   5.935  0.0161 -0.0371 -0.0279
 2903SOL    HW1 9455   0.674   4.649   5.940 -0.0810  0.1348  0.8638
 2903SOL    HW2 9456   0.542   4.675   5.871  1.0468 -1.4434 -2.0281
 2904SOL     OW 9457   2.368   2.491   4.543  0.2288  0.4011  0.0115
 2904SOL    HW1 9458   2.463   2.484   4.541  0.2248 -0.1103 -2.7560
 2904SOL    HW2 9459   2.337   2.405   4.572  0.5712  0.5478  0.8468
 2905SOL     OW 9460   0.993   2.291   4.300  0.0056  0.7408 -0.3108
 2905SOL    HW1 9461   1.027   2.203   4.284 -0.4082  0.7311 -1.2108
 2905SOL    HW2 9462   1.041   2.347   4.239  0.5376  1.2084  0.5193
 2906SOL     OW 9463   0.179   1.887   4.321  0.2117  0.4089  0.5050
 2906SOL    HW1 9464   0.265   1.860   4.289 -0.3555 -0.1063 -0.6334
 2906SOL    HW2 9465   0.122   1.883   4.244 -0.8295  0.7534  1.2341
 2907SOL     OW 9466   1.090   1.206   1.042  0.1661  0.3998  0.4850
 2907SOL    HW1 9467   1.013   1.156   1.016  1.2000 -0.0920 -1.8727
 2907SOL    HW2 9468   1.060   1.297   1.041 -0.5359  0.1760  0.1738
 2908SOL     OW 9469   1.271   4.084   0.004 -0.1148 -0.1102 -0.3291
 2908SOL    HW1 9470   1.365   4.102   0.011  0.2868 -1.4327 -1.7263
 2908SOL    HW2 9471   1.257   4.009   0.062 -0.2725 -0.0490 -0.2878
 2909SOL     OW 9472   5.002   1.925   2.388 -0.4166  0.2833 -0.3162
 2909SOL    HW1 9473   5.043   1.841   2.411 -0.9350 -0.1574 -0.9438
 2909SOL    HW2 9474   4.970   1.912   2.299 -2.7601  0.2515  0.4553
 2910SOL     OW 9475   1.063   5.845   1.130  0.5798  0.0620 -0.2859
 2910SOL    HW1 9476   1.151   5.883   1.129  0.7156 -0.1843  0.7919
 2910SOL    HW2 9477   1.040   5.834   1.038  1.7414 -0.0337 -0.5752
 2911SOL     OW 9478   3.666   0.436   3.219 -0.1231 -0.4086  0.1869
 2911SOL    HW1 9479   3.601   0.442   3.149 -2.0482 -3.0621  1.5711
 2911SOL    HW2 9480   3.749   0.425   3.173 -1.2775 -1.7409 -1.7608
 2912SOL     OW 9481   3.137   0.241   4.540  0.5953  0.4236  0.7029
 2912SOL    HW1 9482   3.073   0.298   4.582 -1.6906 -2.0257  0.8550
 2912SOL    HW2 9483   3.153   0.281   4.455 -0.5099  1.5644  0.9989
 2913SOL     OW 9484   4.447   4.051   1.888  0.8023  0.2614  0.1835
 2913SOL    HW1 9485   4.445   4.015   1.976 -1.0422  0.1569  0.1430
 2913SOL    HW2 9486   4.503   4.129   1.895  1.0904 -0.0345  1.3190
 2914SOL     OW 9487   1.534   4.168   0.019  0.2304 -0.2370  0.2373
 2914SOL    HW1 9488   1.569   4.086   0.054 -1.1003 -0.1489  1.9172
 2914SOL    HW2 9489   1.599   4.196  -0.045  0.8419 -2.4684 -0.2284
 2915SOL     OW 9490   4.717   0.568   5.195  0.1547  0.0945  0.2074
 2915SOL    HW1 9491   4.746   0.658   5.178  1.7981 -0.3020  0.7763
 2915SOL    HW2 9492   4.729   0.557   5.289  0.4603 -0.8854  0.0596
 2916SOL     OW 9493   0.435   4.041   4.514 -0.1730 -0.1596  0.3648
 2916SOL    HW1 9494   0.366   3.995   4.467 -0.9990  1.2284  0.1623
 2916SOL    HW2 9495   0.509   4.043   4.452 -1.1870  1.4949 -0.8843
 2917SOL     OW 9496   4.711   0.906   4.843 -0.1480  0.3675 -0.1962
 2917SOL    HW1 9497   4.803   0.916   4.819  0.0184 -0.1782  0.1940
 2917SOL    HW2 9498   4.664   0.963   4.783  0.7135  3.2706  1.6636
 2918SOL     OW 9499   1.106   1.040   4.991 -0.5705 -0.7631  0.4679
 2918SOL    HW1 9500   1.086   1.031   4.898 -2.0291  0.8769  0.5666
 2918SOL    HW2 9501   1.192   1.082   4.992 -0.0747 -1.7296 -0.1061
 2919SOL     OW 9502   2.541   0.713   2.384  0.2675 -0.0846 -0.2397
 2919SOL    HW1 9503   2.476   0.651   2.418 -0.7432 -0.5001 -2.6732
 2919SOL    HW2 9504   2.515   0.797   2.420  0.5153 -0.7593  1.6075
 2920SOL     OW 9505   5.599   0.086   3.851  0.2392 -0.1063 -0.4236
 2920SOL    HW1 9506   5.610   0.181   3.857 -0.1407 -0.1291  0.7591
 2920SOL    HW2 9507   5.524   0.066   3.907  1.0943 -1.2465  0.3613
 2921SOL     OW 9508   3.432   2.797   0.723  1.0709 -0.0075  0.1916
 2921SOL    HW1 9509   3.405   2.881   0.762 -0.7922 -1.2129  1.6797
 2921SOL    HW2 9510   3.398   2.801   0.634  0.9784  0.8053  0.2541
 2922SOL     OW 9511   5.272   1.403   4.941 -0.2232 -0.3502  0.2050
 2922SOL    HW1 9512   5.364   1.418   4.963  0.1203  0.4423 -1.6278
 2922SOL    HW2 9513   5.269   1.402   4.846 -2.6437  3.6269 -0.0087
 2923SOL     OW 9514   4.400   2.108   4.837  0.3769  0.4379  0.1074
 2923SOL    HW1 9515   4.483   2.087   4.794  1.0719 -2.4517  2.4966
 2923SOL    HW2 9516   4.334   2.063   4.785  0.6672  0.3591 -0.1964
 2924SOL     OW 9517   2.114   3.889   3.942 -0.0404  0.5491  0.3360
 2924SOL    HW1 9518   2.066   3.949   3.885  0.5876  0.7314 -0.0119
 2924SOL    HW2 9519   2.149   3.822   3.884 -0.7172 -0.1543  0.7213
 2925SOL     OW 9520   0.415   1.341   4.921 -0.1457 -0.0188 -0.0731
 2925SOL    HW1 9521   0.507   1.360   4.902 -0.0898  1.5926  1.5911
 2925SOL    HW2 9522   0.399   1.255   4.881  2.6307 -1.2923  1.3131
 2926SOL     OW 9523   1.427   2.306   5.667 -0.8518  0.1069 -0.2982
 2926SOL    HW1 9524   1.483   2.235   5.696  1.1472  1.5558 -0.4021
 2926SOL    HW2 9525   1.451   2.380   5.723 -3.1148  0.6630  0.0453
 2927SOL     OW 9526   1.626   1.181   5.505  0.0860  0.5418 -0.5405
 2927SOL    HW1 9527   1.622   1.116   5.435  1.5844  0.7704 -0.8711
 2927SOL    HW2 9528   1.621   1.266   5.460 -0.6254  0.6727 -0.2211
 2928SOL     OW 9529   1.580   4.801   5.764 -0.4299 -0.3575 -0.1883
 2928SOL    HW1 9530   1.547   4.851   5.839 -1.4694  1.2132 -1.6296
 2928SOL    HW2 9531   1.656   4.850   5.734  0.2851 -1.2568  0.0990
 2929SOL     OW 9532   5.652   1.333   5.727  0.1976  0.3131 -0.1947
 2929SOL    HW1 9533   5.721   1.374   5.780  0.4254 -0.4821  0.1354
 2929SOL    HW2 9534   5.581   1.397   5.727  1.2021  1.4901 -1.1704
 2930SOL     OW 9535   1.982   4.222   3.878  0.0849  0.0423  0.4780
 2930SOL    HW1 9536   1.888   4.227   3.861  0.1579  0.0787  0.0575
 2930SOL    HW2 9537   2.017   4.174   3.803  0.1979 -1.4094  1.4164
 2931SOL     OW 9538   1.298   2.237   0.438 -0.3428 -0.1743 -0.0904
 2931SOL    HW1 9539   1.206   2.264   0.434 -0.2424  0.1054 -0.6161
 2931SOL    HW2 9540   1.319   2.212   0.348  0.1721  0.0278 -0.0275
 2932SOL     OW 9541   3.108   4.819   2.063 -0.1230  0.5901 -0.0113
 2932SOL    HW1 9542   3.189   4.848   2.021 -0.5793 -0.0315 -1.3789
 2932SOL    HW2 9543   3.086   4.889   2.125 -0.0431  2.1328 -1.6552
 2933SOL     OW 9544   1.655   2.534   3.448  0.0638 -0.2209  0.3422
 2933SOL    HW1 9545   1.744   2.513   3.420  0.4560  1.5407  0.1339
 2933SOL    HW2 9546   1.666   2.604   3.512 -1.2051  0.6749 -0.3700
 2934SOL     OW 9547   2.966   5.105   1.798 -0.5061  0.0909 -0.3610
 2934SOL    HW1 9548   2.890   5.110   1.740 -0.6365 -0.7233 -0.2734
 2934SOL    HW2 9549   3.031   5.056   1.747  0.0019  0.8686 -0.4760
 2935SOL     OW 9550   3.477   2.776   2.021 -0.2848 -0.1909 -0.4337
 2935SOL    HW1 9551   3.447   2.792   2.110 -0.9575 -0.6053 -0.5714
 2935SOL    HW2 9552   3.455   2.857   1.973  0.8791  0.3757 -0.0446
 2936SOL     OW 9553   2.941   2.501   1.569  0.2041 -0.2550  0.8979
 2936SOL    HW1 9554   2.922   2.443   1.494  2.6052  1.1691 -0.9525
 2936SOL    HW2 9555   2.939   2.443   1.645 -0.4116 -2.1729 -0.5030
 2937SOL     OW 9556   4.218   5.551   1.657 -0.4866  0.2579  0.0062
 2937SOL    HW1 9557   4.181   5.543   1.569 -2.1000 -2.5718  0.8130
 2937SOL    HW2 9558   4.223   5.461   1.689  2.9978  0.9051  1.7233
 2938SOL     OW 9559   2.165   2.650   5.438 -0.0873 -0.3879 -0.3677
 2938SOL    HW1 9560   2.147   2.556   5.445 -0.7255 -0.2092  0.5319
 2938SOL    HW2 9561   2.108   2.680   5.368 -1.4997 -0.2863  0.7972
 2939SOL     OW 9562   1.639   5.101   2.655 -0.8742 -0.2501 -0.0519
 2939SOL    HW1 9563   1.642   5.148   2.571  0.4781  0.0764  0.1595
 2939SOL    HW2 9564   1.634   5.009   2.630 -0.9564 -0.1303 -0.4907
 2940SOL     OW 9565   5.453   1.017   5.054  0.4539  0.4437  0.2230
 2940SOL    HW1 9566   5.499   1.100   5.058  1.7821 -0.2883  0.6939
 2940SOL    HW2 9567   5.420   1.011   4.965 -0.2811  1.7796  0.3865
 2941SOL     OW 9568   2.505   5.866   5.919  0.0820  0.3228 -0.2025
 2941SOL    HW1 9569   2.588   5.823   5.899  1.0443  2.2137 -0.4868
 2941SOL    HW2 9570   2.494   5.931   5.849 -1.7501 -0.0058 -0.2753
 2942SOL     OW 9571   1.007   4.260   2.983 -0.1693  0.3042 -0.6746
 2942SOL    HW1 9572   0.985   4.285   2.893  0.4224  1.9451 -0.4058
 2942SOL    HW2 9573   1.065   4.185   2.973 -1.6178 -0.7516 -1.5683
 2943SOL     OW 9574   1.305   4.702   4.475 -0.1045  0.3675  0.0518
 2943SOL    HW1 9575   1.392   4.740   4.490 -0.4724  0.9844  0.6530
 2943SOL    HW2 9576   1.268   4.755   4.404 -0.6756  1.2416  0.9898
 2944SOL     OW 9577   2.978   3.281   2.502  0.5740  0.2354  0.0202
 2944SOL    HW1 9578   3.051   3.239   2.548  0.4733  0.0828  0.0403
 2944SOL    HW2 9579   2.902   3.228   2.524  0.7276 -0.6064 -1.3514
 2945SOL     OW 9580   1.903   5.936   4.792  0.1021 -0.1342 -0.2920
 2945SOL    HW1 9581   1.954   6.001   4.840  0.2890 -0.4547 -0.0537
 2945SOL    HW2 9582   1.905   5.858   4.847  0.8026 -0.6887 -1.0680
 2946SOL     OW 9583   1.050   4.169   0.452 -0.5108  0.0493 -0.4135
 2946SOL    HW1 9584   1.082   4.257   0.430 -0.8326  0.1073 -0.6646
 2946SOL    HW2 9585   1.011   4.138   0.370  2.0676 -1.4557 -1.1952
 2947SOL     OW 9586   4.773   1.770   5.822  0.0948  0.1038  0.2198
 2947SOL    HW1 9587   4.732   1.852   5.795  0.5801  0.6100  0.9892
 2947SOL    HW2 9588   4.797   1.784   5.914 -0.4864 -1.1621  0.5936
 2948SOL     OW 9589   2.849   1.248   3.107  0.0878 -0.2259  0.2785
 2948SOL    HW1 9590   2.931   1.278   3.067  0.4700  0.4317  1.4915
 2948SOL    HW2 9591   2.877   1.201   3.186 -0.6882 -0.4590  0.4272
 2949SOL     OW 9592   1.466   0.280   4.534  0.0220  0.1545 -0.2922
 2949SOL    HW1 9593   1.444   0.333   4.457  0.1436  1.0623  0.2752
 2949SOL    HW2 9594   1.434   0.332   4.608  1.1497 -0.0467  0.3511
 2950SOL     OW 9595   4.774   4.545   0.721  0.5036 -0.0746  0.1792
 2950SOL    HW1 9596   4.803   4.577   0.807  0.5074  0.2814  0.0486
 2950SOL    HW2 9597   4.835   4.473   0.701  0.5624 -0.0965  0.4309
 2951SOL     OW 9598   3.781   3.689   5.612 -0.1882  0.3803 -0.3970
 2951SOL    HW1 9599   3.744   3.611   5.652 -0.5039  0.2004 -1.0415
 2951SOL    HW2 9600   3.756   3.684   5.520  1.1134  0.4389 -0.7741
 2952SOL     OW 9601   2.550   4.500   0.050 -0.1679  0.2456 -0.0600
 2952SOL    HW1 9602   2.523   4.550   0.127 -0.4626 -2.0038  1.3867
 2952SOL    HW2 9603   2.642   4.522   0.037  0.0311  0.2632  1.2922
 2953SOL     OW 9604   3.849   2.907   4.905  0.2681  0.9128  0.6193
 2953SOL    HW1 9605   3.755   2.897   4.916  0.2800 -0.6250 -0.3407
 2953SOL    HW2 9606   3.860   2.936   4.815  0.7115  1.5337  0.8642
 2954SOL     OW 9607   5.271   5.956   3.891  0.9597  0.6244  0.0643
 2954SOL    HW1 9608   5.261   6.007   3.811  0.5520  0.0511 -0.2598
 2954SOL    HW2 9609   5.202   5.989   3.949  1.3120  1.1011  0.2178
 2955SOL     OW 9610   5.147   5.840   2.007 -0.1260 -0.0070 -0.6307
 2955SOL    HW1 9611   5.145   5.829   1.912 -0.3468  1.2290 -0.7981
 2955SOL    HW2 9612   5.135   5.935   2.019  1.9320  0.1620  0.5415
 2956SOL     OW 9613   1.893   0.343   3.796 -0.1736 -0.1396 -0.7180
 2956SOL    HW1 9614   1.922   0.336   3.705  2.3501  0.0131  0.0053
 2956SOL    HW2 9615   1.966   0.386   3.841 -0.5344 -1.9166  1.7341
 2957SOL     OW 9616   2.138   1.952   5.803  0.1537  0.4072 -0.0677
 2957SOL    HW1 9617   2.092   1.946   5.719  2.0073  1.1751 -1.2094
 2957SOL    HW2 9618   2.214   1.895   5.792  2.3458  3.1621 -0.3209
 2958SOL     OW 9619   3.274   3.420   2.973 -0.4024 -0.3053  0.1907
 2958SOL    HW1 9620   3.236   3.332   2.980 -1.1305 -0.1796 -1.5457
 2958SOL    HW2 9621   3.205   3.472   2.932  0.1521  0.9924  0.8644
 2959SOL     OW 9622   5.276   3.500   0.274  0.4613  0.1662  0.1085
 2959SOL    HW1 9623   5.240   3.458   0.352  0.1379  0.6912  0.2495
 2959SOL    HW2 9624   5.293   3.428   0.213  0.9938 -0.2750  0.7697
 2960SOL     OW 9625   5.461   2.345   6.158 -0.0644  0.2511  0.7015
 2960SOL    HW1 9626   5.404   2.287   6.207  0.6705  0.8630  2.3536
 2960SOL    HW2 9627   5.549   2.324   6.188  0.6882 -0.8541 -1.9755
 2961SOL     OW 9628   1.214   0.363   5.663  0.7288 -0.4018 -0.3474
 2961SOL    HW1 9629   1.146   0.353   5.596  1.2987 -1.2234 -0.8156
 2961SOL    HW2 9630   1.172   0.333   5.744 -0.6008  2.3370  0.1307
 2962SOL     OW 9631   2.549   5.380   5.579  0.0229 -0.3916  0.0250
 2962SOL    HW1 9632   2.513   5.297   5.609 -2.5327 -0.3396 -2.4998
 2962SOL    HW2 9633   2.616   5.356   5.516 -0.6853 -0.5674 -0.6717
 2963SOL     OW 9634   5.896   2.492   3.058  0.4285 -0.4114 -0.3956
 2963SOL    HW1 9635   5.968   2.449   3.013  0.3660 -1.9605  0.9045
 2963SOL    HW2 9636   5.867   2.560   2.997  5.3057  2.8903  0.4252
 2964SOL     OW 9637   1.421   0.359   6.180  0.0369 -0.3317  0.0364
 2964SOL    HW1 9638   1.414   0.366   6.275  0.0668 -1.0088  0.0938
 2964SOL    HW2 9639   1.335   0.327   6.152 -0.3360  0.8759 -0.2842
 2965SOL     OW 9640   1.250   5.384   6.208  0.3923  0.6560  0.1038
 2965SOL    HW1 9641   1.190   5.362   6.137  0.5833  2.0450 -0.5084
 2965SOL    HW2 9642   1.322   5.321   6.199  0.8775  1.3985 -1.5438
 2966SOL     OW 9643   3.390   2.232   5.431 -0.5739  0.0191 -0.5568
 2966SOL    HW1 9644   3.399   2.322   5.399 -0.8957  0.4347  0.4718
 2966SOL    HW2 9645   3.439   2.231   5.514  0.3074 -1.0452 -1.0687
 2967SOL     OW 9646   4.332   2.956   1.130 -0.1884 -0.0808 -0.2622
 2967SOL    HW1 9647   4.339   2.971   1.225  0.8569 -0.4284 -0.2679
 2967SOL    HW2 9648   4.390   2.881   1.114  1.7343  1.5815 -1.5663
 2968SOL     OW 9649   5.949   3.967   1.607 -0.0242 -0.1096 -0.2742
 2968SOL    HW1 9650   5.872   3.986   1.553  1.4279  0.5660 -2.2201
 2968SOL    HW2 9651   5.942   3.874   1.627 -1.4075 -0.0244 -0.2811
 2969SOL     OW 9652   2.813   4.035   0.570 -0.2230 -0.5301 -0.8365
 2969SOL    HW1 9653   2.888   4.039   0.629 -0.6962 -2.8705  0.0172
 2969SOL    HW2 9654   2.768   4.118   0.583  1.2337  0.1846 -0.0673
 2970SOL     OW 9655   3.929   3.842   1.169  0.4695  0.3404  0.5509
 2970SOL    HW1 9656   3.985   3.905   1.125 -1.3838  0.4193 -1.9053
 2970SOL    HW2 9657   3.914   3.772   1.105 -0.8774 -0.5110  1.6997
 2971SOL     OW 9658   0.346   0.563   1.107 -0.0274  0.1791 -0.2052
 2971SOL    HW1 9659   0.282   0.614   1.058 -1.8370  0.5086  2.3092
 2971SOL    HW2 9660   0.383   0.502   1.043 -1.2021  1.4917 -2.2375
 2972SOL     OW 9661   4.722   2.088   3.459 -0.2843 -0.0353  0.4299
 2972SOL    HW1 9662   4.742   2.013   3.402  1.3926 -0.4396  1.4569
 2972SOL    HW2 9663   4.791   2.085   3.525  0.3621  2.9492  0.0198
 2973SOL     OW 9664   1.654   0.547   4.384  0.0021 -0.1398 -0.2239
 2973SOL    HW1 9665   1.712   0.496   4.440 -1.1266 -1.2998 -0.0606
 2973SOL    HW2 9666   1.583   0.487   4.362 -0.9343  1.1065 -0.7342
 2974SOL     OW 9667   3.643   5.877   1.554 -0.1263  0.1820 -0.1337
 2974SOL    HW1 9668   3.688   5.794   1.571  1.3333  1.0627  0.5011
 2974SOL    HW2 9669   3.568   5.853   1.499 -0.0474 -1.6154  0.4694
 2975SOL     OW 9670   0.284   2.122   0.492  0.1437 -0.2217 -0.1226
 2975SOL    HW1 9671   0.361   2.078   0.456  0.6572  0.8409 -0.3418
 2975SOL    HW2 9672   0.310   2.151   0.579  0.4035  1.1761 -0.6438
 2976SOL     OW 9673   4.138   3.464   3.173 -0.2546  0.5974  0.8306
 2976SOL    HW1 9674   4.133   3.550   3.130 -0.5806  0.3019  0.2683
 2976SOL    HW2 9675   4.152   3.402   3.101 -0.9341  0.0821  1.1291
 2977SOL     OW 9676   5.246   3.829   4.290 -0.5302 -0.1234 -0.2256
 2977SOL    HW1 9677   5.248   3.777   4.210 -2.0707 -0.6910  0.0755
 2977SOL    HW2 9678   5.175   3.791   4.342  0.1385  0.5270  1.2169
 2978SOL     OW 9679   5.597   4.739   4.885 -0.2245 -0.3955 -0.3721
 2978SOL    HW1 9680   5.540   4.667   4.859  0.1566 -1.7355  2.2003
 2978SOL    HW2 9681   5.541   4.795   4.939 -0.1533  0.5631 -1.2551
 2979SOL     OW 9682   3.571   5.319   4.319  0.1494  0.0070  0.1091
 2979SOL    HW1 9683   3.621   5.398   4.340  0.3632 -0.3530  1.0300
 2979SOL    HW2 9684   3.638   5.252   4.301  0.1015 -0.7613  2.3895
 2980SOL     OW 9685   5.898   4.265   5.264 -0.0448  0.4860 -0.6573
 2980SOL    HW1 9686   5.914   4.357   5.284  1.1113 -0.2460  2.2816
 2980SOL    HW2 9687   5.984   4.229   5.243 -0.1773 -0.2859  0.0537
 2981SOL     OW 9688   5.846   3.157   0.187  0.6643  0.3830 -0.2395
 2981SOL    HW1 9689   5.913   3.107   0.141 -0.4691 -0.4722 -1.0052
 2981SOL    HW2 9690   5.875   3.159   0.278  1.2350 -0.7870 -0.3868
 2982SOL     OW 9691   5.870   2.788   2.595 -0.3425 -0.0294 -0.0724
 2982SOL    HW1 9692   5.778   2.792   2.621 -0.1749 -0.2539  0.5579
 2982SOL    HW2 9693   5.899   2.880   2.597 -0.7856  0.1539 -1.1618
 2983SOL     OW 9694   0.821   3.718   2.680  0.5158  0.1392  0.1115
 2983SOL    HW1 9695   0.887   3.785   2.700  0.7783  0.3270 -1.2968
 2983SOL    HW2 9696   0.786   3.743   2.594 -1.7347  0.3006  1.0027
 2984SOL     OW 9697   5.422   1.766   4.211  0.6020  0.3807  0.4459
 2984SOL    HW1 9698   5.389   1.681   4.180 -0.2329  0.7124  0.4002
 2984SOL    HW2 9699   5.515   1.766   4.186  0.0689  0.4813 -1.7411
 2985SOL     OW 9700   1.305   4.936   4.758 -0.3264  0.0284 -0.3767
 2985SOL    HW1 9701   1.272   4.850   4.784 -0.1719  0.2501  0.5869
 2985SOL    HW2 9702   1.226   4.988   4.743 -0.4186 -0.1102 -0.3717
 2986SOL     OW 9703   3.396   5.455   0.486  0.3078 -0.1931  0.5646
 2986SOL    HW1 9704   3.335   5.492   0.550  0.8228  0.5497  0.6313
 2986SOL    HW2 9705   3.482   5.463   0.526  0.5923 -0.1028 -0.0446
 2987SOL     OW 9706   1.302   0.090   2.055 -0.2128  0.0439  0.0505
 2987SOL    HW1 9707   1.317   0.064   1.964  0.1223 -1.8619  0.6001
 2987SOL    HW2 9708   1.347   0.022   2.106 -0.7282  0.8656  1.6445
 2988SOL     OW 9709   1.496   3.583   2.474 -0.2062  0.4220 -0.4200
 2988SOL    HW1 9710   1.572   3.592   2.532 -0.9312  0.0459  0.6146
 2988SOL    HW2 9711   1.482   3.489   2.467 -0.2074  0.4649 -1.1220
 2989SOL     OW 9712   2.842   2.560   3.936 -0.1007 -0.2924  0.1526
 2989SOL    HW1 9713   2.790   2.514   4.001 -0.0812  1.3258  1.3718
 2989SOL    HW2 9714   2.924   2.511   3.931 -1.0730 -1.9142 -0.5863
 2990SOL     OW 9715   5.421   0.011   2.329  0.4510  0.0115  0.4902
 2990SOL    HW1 9716   5.453  -0.056   2.390 -2.7809 -2.5318 -0.3279
 2990SOL    HW2 9717   5.354   0.058   2.378 -1.0188 -0.9748 -0.4755
 2991SOL     OW 9718   2.707   4.781   1.291  0.3583 -0.2130 -0.1466
 2991SOL    HW1 9719   2.745   4.860   1.252 -0.7715  0.1244 -0.6112
 2991SOL    HW2 9720   2.782   4.724   1.307  1.1429  0.7601 -0.2519
 2992SOL     OW 9721   1.054   3.635   4.237 -0.1471 -0.1857 -0.3895
 2992SOL    HW1 9722   1.030   3.562   4.180 -2.6724 -0.0694  0.4111
 2992SOL    HW2 9723   1.086   3.593   4.317 -1.7262 -0.4732  0.1235
 2993SOL     OW 9724   1.495   0.909   4.343 -0.5633  0.6775  0.4425
 2993SOL    HW1 9725   1.514   0.890   4.435  0.7218  2.6073  0.6308
 2993SOL    HW2 9726   1.404   0.938   4.343 -1.3582 -1.6332  0.6885
 2994SOL     OW 9727   6.230   1.325   6.212  0.2099 -1.2780  0.3666
 2994SOL    HW1 9728   6.139   1.352   6.198  0.7024  1.3645  1.5638
 2994SOL    HW2 9729   6.282   1.392   6.168  1.5693 -1.3527  1.7554
 2995SOL     OW 9730   0.981   3.078   1.373 -0.1796  0.2341 -0.2838
 2995SOL    HW1 9731   1.009   3.045   1.287  0.7811  0.6252 -0.1370
 2995SOL    HW2 9732   1.001   3.171   1.370 -0.1378  0.2487  0.3710
 2996SOL     OW 9733   2.828   3.066   1.476  0.0329  0.2124 -0.5103
 2996SOL    HW1 9734   2.866   3.010   1.408 -0.6544  0.5661 -1.2109
 2996SOL    HW2 9735   2.755   3.110   1.432  0.7240  1.8807 -0.0839
 2997SOL     OW 9736   1.255   5.106   4.323 -0.3683  0.2409  0.2768
 2997SOL    HW1 9737   1.202   5.173   4.279  0.9985  0.8399 -0.5076
 2997SOL    HW2 9738   1.337   5.150   4.344  0.6227 -1.2241 -0.3837
 2998SOL     OW 9739   4.025   1.085   5.332 -0.4842 -0.3612  0.1803
 2998SOL    HW1 9740   3.970   1.160   5.353  1.0498  0.4026  1.7278
 2998SOL    HW2 9741   4.100   1.122   5.284  0.4594 -0.8079  1.2587
 2999SOL     OW 9742   4.015   1.644   2.306 -0.3076 -0.0394  0.3729
 2999SOL    HW1 9743   4.090   1.605   2.351  0.0707  0.9328  0.6278
 2999SOL    HW2 9744   3.950   1.658   2.374 -1.6388 -2.8632 -0.1911
 3000SOL     OW 9745   4.794   4.434   3.343 -0.8977  0.1857 -0.7180
 3000SOL    HW1 9746   4.823   4.349   3.378 -1.8108  0.1539 -0.0264
 3000SOL    HW2 9747   4.756   4.412   3.257 -1.0295 -0.0910 -0.5904
 3001SOL     OW 9748   2.022   2.523   2.530  0.3108 -0.2395 -0.0659
 3001SOL    HW1 9749   1.982   2.490   2.611 -0.3676 -0.1774 -0.3682
 3001SOL    HW2 9750   2.050   2.612   2.552  1.2387 -0.6429  0.4536
 3002SOL     OW 9751   3.297   0.521   2.527 -0.0994 -0.0804  0.3906
 3002SOL    HW1 9752   3.212   0.561   2.509  0.1951 -0.4032 -2.1762
 3002SOL    HW2 9753   3.278   0.430   2.546 -0.3744 -0.0619  0.2107
 3003SOL     OW 9754   4.909   4.183   1.687  0.0204 -0.3170 -0.3890
 3003SOL    HW1 9755   4.850   4.237   1.635  1.9378  2.5003  0.1509
 3003SOL    HW2 9756   4.864   4.175   1.772 -0.1709  0.7431 -0.3721
 3004SOL     OW 9757   0.056   5.095   1.759  0.0622  0.3622  0.1301
 3004SOL    HW1 9758   0.009   5.037   1.819 -1.5545  0.6568 -0.8073
 3004SOL    HW2 9759   0.086   5.037   1.688  1.6771  0.0747  0.9968
 3005SOL     OW 9760   0.888   3.627   1.713  0.3167  0.1110  0.1968
 3005SOL    HW1 9761   0.908   3.574   1.790  1.6913  1.2813  0.6881
 3005SOL    HW2 9762   0.808   3.588   1.677  1.7087 -2.8219  0.0279
 3006SOL     OW 9763   3.652   3.748   3.164 -0.6933 -0.3357  0.2836
 3006SOL    HW1 9764   3.678   3.731   3.254  0.7526 -1.9960 -0.4056
 3006SOL    HW2 9765   3.571   3.697   3.152 -1.2493  0.3984  0.7931
 3007SOL     OW 9766   1.806   5.648   4.621  0.1927 -0.4042 -0.2760
 3007SOL    HW1 9767   1.901   5.653   4.629  0.1180  0.3710  0.3092
 3007SOL    HW2 9768   1.779   5.582   4.685  0.5047 -2.2755 -2.0116
 3008SOL     OW 9769   0.757   5.961   1.685 -0.0353 -0.0159 -0.7263
 3008SOL    HW1 9770   0.839   6.006   1.668 -0.4854  0.6628 -1.1230
 3008SOL    HW2 9771   0.720   5.945   1.598  0.8975 -2.6742 -0.7296
 3009SOL     OW 9772   4.105   2.622   1.322  0.0595  0.0917 -0.6754
 3009SOL    HW1 9773   4.128   2.530   1.307 -1.0395 -0.1107 -1.2278
 3009SOL    HW2 9774   4.015   2.630   1.291 -0.7234  0.7906  1.5790
 3010SOL     OW 9775   6.289   0.366   5.420  0.0062 -0.5418  0.1873
 3010SOL    HW1 9776   6.374   0.377   5.378 -0.3728 -0.5401 -0.5875
 3010SOL    HW2 9777   6.227   0.354   5.348 -0.9403  1.3217  0.6365
 3011SOL     OW 9778   5.286   2.304   4.940 -0.3769  0.3086  0.2999
 3011SOL    HW1 9779   5.350   2.292   5.010  0.1709  1.5555  0.0422
 3011SOL    HW2 9780   5.292   2.224   4.888  1.2821  0.5501  0.0548
 3012SOL     OW 9781   4.117   4.360   2.549 -0.0556 -0.6557 -0.7872
 3012SOL    HW1 9782   4.209   4.337   2.561  0.3020  0.6342 -0.9578
 3012SOL    HW2 9783   4.069   4.290   2.594  1.0221 -0.8300  0.1480
 3013SOL     OW 9784   4.235   2.505   4.458  0.1051 -0.6413  0.1846
 3013SOL    HW1 9785   4.183   2.478   4.382  1.1254 -1.4318 -0.2517
 3013SOL    HW2 9786   4.314   2.543   4.421 -0.5265  1.4164  0.8295
 3014SOL     OW 9787   4.038   4.986   5.032 -0.9529 -0.5742 -0.2171
 3014SOL    HW1 9788   3.945   4.985   5.007 -1.3703 -2.4326  1.2058
 3014SOL    HW2 9789   4.038   4.999   5.127  0.0731 -2.7589  0.1554
 3015SOL     OW 9790   3.102   4.334   2.325  0.3280  0.8826  0.0246
 3015SOL    HW1 9791   3.097   4.387   2.404  0.1025  1.2421 -0.2293
 3015SOL    HW2 9792   3.055   4.384   2.259 -1.0455 -0.2345  0.1060
 3016SOL     OW 9793   2.987   5.694   4.761  0.2997  0.1858 -0.4038
 3016SOL    HW1 9794   3.006   5.783   4.729  0.5471  0.2533 -0.0681
 3016SOL    HW2 9795   3.066   5.644   4.743  0.9581  0.5474  1.2930
 3017SOL     OW 9796   1.877   3.219   1.407 -0.1891 -0.0851 -0.1770
 3017SOL    HW1 9797   1.846   3.308   1.395  0.3277  0.0736 -0.3684
 3017SOL    HW2 9798   1.830   3.187   1.484  0.3698  0.7008  0.5184
 3018SOL     OW 9799   2.675   0.037   1.866 -0.2111 -0.4746  0.0074
 3018SOL    HW1 9800   2.768   0.056   1.877  0.2257 -1.4763 -1.5584
 3018SOL    HW2 9801   2.670  -0.058   1.867 -0.7396 -0.5778 -2.7697
 3019SOL     OW 9802   2.617   5.375   1.986 -0.2199 -0.3755  0.1323
 3019SOL    HW1 9803   2.563   5.372   2.065  0.3270 -2.0774  0.4880
 3019SOL    HW2 9804   2.578   5.309   1.928 -2.1605  2.5122 -2.1590
 3020SOL     OW 9805   0.753   5.702   0.305 -0.1496 -0.4771 -0.1150
 3020SOL    HW1 9806   0.783   5.688   0.215 -1.0547  0.0617 -0.5256
 3020SOL    HW2 9807   0.662   5.672   0.304 -1.2304  2.4554 -0.2728
 3021SOL     OW 9808   4.556   0.379   5.625  0.0367  0.5025 -0.1192
 3021SOL    HW1 9809   4.650   0.370   5.639  0.0130 -0.1534 -0.3570
 3021SOL    HW2 9810   4.545   0.471   5.600  0.8056  0.2562 -1.4774
 3022SOL     OW 9811   4.494   1.557   5.931 -0.4652  0.1092  0.0152
 3022SOL    HW1 9812   4.570   1.556   5.988 -0.2209 -0.2990 -0.3075
 3022SOL    HW2 9813   4.525   1.597   5.850 -0.7894  0.6151  0.1347
 3023SOL     OW 9814   6.099   0.220   5.562 -0.3720  0.2289  0.0092
 3023SOL    HW1 9815   6.173   0.267   5.523 -0.0399  0.6141  1.0808
 3023SOL    HW2 9816   6.032   0.287   5.576 -1.5026 -0.3218 -2.1747
 3024SOL     OW 9817   0.545   4.053   5.682  0.4612  0.4908  0.0304
 3024SOL    HW1 9818   0.546   4.132   5.736  0.4719  0.4670  0.0654
 3024SOL    HW2 9819   0.455   4.048   5.648 -0.2225 -0.7502  1.8859
 3025SOL     OW 9820   2.258   5.658   1.929 -0.2556 -0.4449  0.2535
 3025SOL    HW1 9821   2.200   5.601   1.979  2.3622 -1.9278  1.7923
 3025SOL    HW2 9822   2.268   5.613   1.845 -1.2103 -0.2185  0.0046
 3026SOL     OW 9823   4.572   2.012   3.829  0.6134  0.7137 -0.1140
 3026SOL    HW1 9824   4.530   1.932   3.797  0.0359  0.9406  0.0756
 3026SOL    HW2 9825   4.666   1.995   3.817  0.5489 -0.2897  0.6018
 3027SOL     OW 9826   0.080   2.232   1.154 -0.0110  0.4860  0.0141
 3027SOL    HW1 9827   0.109   2.285   1.228 -0.5719 -0.3395  0.8466
 3027SOL    HW2 9828   0.115   2.276   1.077  0.0901  1.6913  0.7334
 3028SOL     OW 9829   3.205   0.377   4.289  0.4520 -0.1778 -0.6462
 3028SOL    HW1 9830   3.224   0.471   4.291  0.1103 -0.0880 -1.3748
 3028SOL    HW2 9831   3.286   0.338   4.257 -0.3588  0.1635 -3.2958
 3029SOL     OW 9832   2.700   2.192   0.130  0.8056 -0.0741  0.0317
 3029SOL    HW1 9833   2.717   2.184   0.224 -0.0390  0.6819  0.2683
 3029SOL    HW2 9834   2.786   2.204   0.090  1.1100  0.3646  0.8035
 3030SOL     OW 9835   4.328   4.047   5.800  0.1917  0.1313 -0.2651
 3030SOL    HW1 9836   4.264   4.014   5.737  0.1623 -0.3437  0.0079
 3030SOL    HW2 9837   4.291   4.025   5.885 -0.2489  1.6608 -0.0402
 3031SOL     OW 9838   0.938   5.000   3.626  0.1844 -0.6584 -0.0374
 3031SOL    HW1 9839   1.031   5.018   3.634 -0.1253  0.5676  1.1461
 3031SOL    HW2 9840   0.917   5.020   3.535  0.7896  0.6460  0.0844
 3032SOL     OW 9841   1.845   4.425   4.255  0.5708  0.1152  0.2285
 3032SOL    HW1 9842   1.875   4.495   4.198 -0.6447 -0.3565 -1.0561
 3032SOL    HW2 9843   1.848   4.346   4.200 -1.8681 -0.1406  0.3296
 3033SOL     OW 9844   5.855   3.356   2.292  0.4161  0.6523  0.2271
 3033SOL    HW1 9845   5.876   3.335   2.383  0.5938  1.8536  0.4750
 3033SOL    HW2 9846   5.856   3.451   2.288  0.7764  0.6178 -1.1177
 3034SOL     OW 9847   4.538   3.553   1.702 -0.0494  0.6352  0.1879
 3034SOL    HW1 9848   4.537   3.649   1.700  0.0811  0.6243 -0.5509
 3034SOL    HW2 9849   4.454   3.527   1.663  0.2775  0.4469 -0.4065
 3035SOL     OW 9850   2.405   1.767   4.664 -0.4478 -0.0717 -0.3031
 3035SOL    HW1 9851   2.452   1.836   4.617 -1.1693  0.3972 -0.3504
 3035SOL    HW2 9852   2.453   1.687   4.643  0.5564  0.4367 -0.0483
 3036SOL     OW 9853   2.045   5.801   0.509  0.3595  0.0850  0.2756
 3036SOL    HW1 9854   2.059   5.813   0.603  0.8581 -0.3334  0.2597
 3036SOL    HW2 9855   2.037   5.706   0.498 -0.8824  0.2015  0.0507
 3037SOL     OW 9856   5.929   2.448   2.614  0.1717  0.3106 -0.9186
 3037SOL    HW1 9857   6.007   2.492   2.578  0.4365  0.5071 -0.1173
 3037SOL    HW2 9858   5.885   2.516   2.665  0.9941 -0.5018  0.9840
 3038SOL     OW 9859   3.672   4.755   4.432 -0.4214 -0.6607 -0.3699
 3038SOL    HW1 9860   3.654   4.775   4.340  0.3436 -2.4416 -0.9560
 3038SOL    HW2 9861   3.736   4.820   4.458 -2.2514  1.2422 -0.3978
 3039SOL     OW 9862   0.018   0.187   2.802 -0.5174 -0.5884  0.5595
 3039SOL    HW1 9863   0.085   0.122   2.824 -0.0307 -0.4995 -0.5842
 3039SOL    HW2 9864  -0.064   0.137   2.803 -0.6863 -0.3974  3.3906
 3040SOL     OW 9865   6.263   4.745   4.680  0.4391  0.5604  0.1159
 3040SOL    HW1 9866   6.184   4.784   4.643 -0.0517  0.4306  1.0177
 3040SOL    HW2 9867   6.251   4.650   4.669  0.7527  0.5644 -0.3011
 3041SOL     OW 9868   1.677   4.377   2.014 -0.4856  0.6154 -0.3271
 3041SOL    HW1 9869   1.656   4.464   1.980 -1.3716  0.2296 -0.8128
 3041SOL    HW2 9870   1.749   4.391   2.075 -1.8421  1.9765  1.0580
 3042SOL     OW 9871   3.623   0.092   1.153  0.1263  0.1976  0.1889
 3042SOL    HW1 9872   3.575   0.142   1.087 -0.2156 -0.1505  0.1715
 3042SOL    HW2 9873   3.675   0.030   1.102  0.4935  0.4789  0.2142
 3043SOL     OW 9874   5.433   1.673   0.597  0.3863 -0.3527 -0.1554
 3043SOL    HW1 9875   5.400   1.639   0.514 -0.7138 -0.4739  0.3117
 3043SOL    HW2 9876   5.442   1.595   0.652  1.6531 -0.3407 -0.3353
 3044SOL     OW 9877   4.068   0.998   2.962  0.4053  0.0261  0.5503
 3044SOL    HW1 9878   3.986   1.016   3.006  1.3055  0.5850  2.0722
 3044SOL    HW2 9879   4.078   0.902   2.968 -1.0991 -0.3201 -1.5189
 3045SOL     OW 9880   1.609   2.934   0.603 -0.6006 -0.1555 -0.3539
 3045SOL    HW1 9881   1.595   2.840   0.613  0.2384 -0.1874  0.7229
 3045SOL    HW2 9882   1.614   2.968   0.692  1.0509  0.5848 -0.6863
 3046SOL     OW 9883   2.007   4.248   1.165  0.0693  0.6366  0.0625
 3046SOL    HW1 9884   1.925   4.266   1.119  0.9533  1.3020 -1.3477
 3046SOL    HW2 9885   1.981   4.205   1.246 -1.6979  1.4030 -0.0626
 3047SOL     OW 9886   4.801   0.845   5.796 -0.0668  1.0186 -0.6885
 3047SOL    HW1 9887   4.880   0.838   5.851  1.2308  2.0967 -2.3162
 3047SOL    HW2 9888   4.734   0.879   5.855  1.1884  1.8247  0.3257
 3048SOL     OW 9889   2.734   5.165   0.483  0.6364  0.4430  0.3604
 3048SOL    HW1 9890   2.759   5.085   0.529 -0.1980  0.7531  1.3893
 3048SOL    HW2 9891   2.639   5.163   0.480  0.6473  0.8787 -0.5639
 3049SOL     OW 9892   5.545   1.020   1.486  0.6440 -1.2479 -0.5671
 3049SOL    HW1 9893   5.594   1.017   1.568 -1.7045  0.7609  1.0517
 3049SOL    HW2 9894   5.576   1.100   1.443  0.6899 -1.4161 -0.8511
 3050SOL     OW 9895   4.490   4.401   4.839 -0.4132  0.6044 -0.8677
 3050SOL    HW1 9896   4.479   4.457   4.916  3.0819  0.0245  0.2356
 3050SOL    HW2 9897   4.542   4.453   4.778 -1.9203  0.5257 -2.2975
 3051SOL     OW 9898   2.524   4.541   2.429 -0.2357  0.4374  0.4631
 3051SOL    HW1 9899   2.618   4.557   2.422 -0.4858  2.0076  0.4904
 3051SOL    HW2 9900   2.491   4.552   2.340 -0.2641 -1.2475  0.2218
 3052SOL     OW 9901   1.433   6.062   5.651  0.5629  0.2568 -0.4988
 3052SOL    HW1 9902   1.490   6.114   5.593 -0.2258  0.6299 -0.9587
 3052SOL    HW2 9903   1.493   6.022   5.714  1.5001 -0.4489 -1.7861
 3053SOL     OW 9904   2.357   4.549   3.561  0.7813 -0.0747  0.2305
 3053SOL    HW1 9905   2.347   4.580   3.470  3.9177  2.0674  0.4285
 3053SOL    HW2 9906   2.289   4.596   3.609  0.1015  0.0044 -0.7621
 3054SOL     OW 9907   4.767   2.865   0.349 -0.1136 -0.1933 -0.6645
 3054SOL    HW1 9908   4.715   2.857   0.429  0.4922 -0.1444 -0.2610
 3054SOL    HW2 9909   4.853   2.895   0.379 -0.3105  1.2922 -1.4627
 3055SOL     OW 9910   2.983   0.656   4.520  0.1300  0.0008 -0.4291
 3055SOL    HW1 9911   3.063   0.700   4.551 -0.2180  1.2681 -1.2472
 3055SOL    HW2 9912   2.939   0.722   4.467 -2.0132 -0.3030  0.8492
 3056SOL     OW 9913   2.171   5.128   1.520  0.0750  0.5149 -0.4855
 3056SOL    HW1 9914   2.226   5.054   1.493 -0.3168 -0.1489  0.4716
 3056SOL    HW2 9915   2.096   5.087   1.563 -0.0539  1.4849  0.2482
 3057SOL     OW 9916   4.663   1.825   1.600  0.0604 -0.3529  0.1862
 3057SOL    HW1 9917   4.603   1.885   1.644 -2.7488 -1.3133 -2.0651
 3057SOL    HW2 9918   4.702   1.877   1.530  0.5242 -0.2133  0.5393
 3058SOL     OW 9919   2.426   5.187   0.247  0.4432 -0.4967  0.4371
 3058SOL    HW1 9920   2.352   5.132   0.275  1.9463 -3.4649 -0.8615
 3058SOL    HW2 9921   2.462   5.223   0.327 -1.2077 -0.6113  1.2716
 3059SOL     OW 9922   0.942   2.062   4.846  0.1138 -0.3910 -0.0538
 3059SOL    HW1 9923   0.918   2.140   4.897  1.2212  0.5674 -0.9455
 3059SOL    HW2 9924   1.005   2.016   4.902  0.6625  0.2028 -0.1651
 3060SOL     OW 9925   5.529   2.875   5.977  0.2884 -0.0337 -0.6133
 3060SOL    HW1 9926   5.496   2.951   5.930 -0.6237 -1.0689 -1.7235
 3060SOL    HW2 9927   5.532   2.902   6.069 -1.9622  0.7078 -0.7021
 3061SOL     OW 9928   0.635   0.457   3.131 -0.3914  0.5012 -0.2827
 3061SOL    HW1 9929   0.609   0.529   3.074  0.9618  1.7206  0.5561
 3061SOL    HW2 9930   0.574   0.461   3.205 -1.3342 -0.2637 -1.0028
 3062SOL     OW 9931   0.381   2.208   4.206 -0.1394 -0.1999  0.2485
 3062SOL    HW1 9932   0.474   2.218   4.227 -0.6058 -0.9789  3.0278
 3062SOL    HW2 9933   0.347   2.297   4.204  0.7339  0.1536 -1.5521
 3063SOL     OW 9934   5.813   5.284   3.013 -0.2165 -0.6465 -0.2356
 3063SOL    HW1 9935   5.792   5.313   2.925  2.8623 -1.3770 -1.3074
 3063SOL    HW2 9936   5.775   5.196   3.019 -0.3583 -0.6275 -0.8410
 3064SOL     OW 9937   3.953   5.985   1.140 -0.0173 -0.3916  0.4754
 3064SOL    HW1 9938   3.873   5.938   1.118  1.2005 -1.5530 -1.8515
 3064SOL    HW2 9939   4.015   5.960   1.072  1.5925  2.3957  0.7594
 3065SOL     OW 9940   2.183   5.186   3.994 -0.6208 -0.4211  0.0018
 3065SOL    HW1 9941   2.244   5.181   3.921  0.6182 -1.2641  1.0405
 3065SOL    HW2 9942   2.208   5.265   4.041  0.6410 -1.4779  1.1982
 3066SOL     OW 9943   2.264   4.904   0.783 -0.0801 -0.0809  0.4916
 3066SOL    HW1 9944   2.321   4.831   0.809  0.2815  0.7154  2.0619
 3066SOL    HW2 9945   2.197   4.908   0.852 -2.1314 -1.0183 -1.3366
 3067SOL     OW 9946   4.104   3.726   3.157 -0.4377  0.5344  0.1118
 3067SOL    HW1 9947   4.172   3.766   3.103 -0.6510 -1.1062 -1.4940
 3067SOL    HW2 9948   4.022   3.749   3.113 -0.6425 -0.5173 -0.0889
 3068SOL     OW 9949   1.439   1.681   0.373 -0.0197  0.0835 -0.4196
 3068SOL    HW1 9950   1.528   1.645   0.371  0.0382  0.2219 -1.7761
 3068SOL    HW2 9951   1.387   1.613   0.416  0.2368 -1.3419 -2.1830
 3069SOL     OW 9952   1.953   3.551   2.832  0.0559  0.5986 -0.1585
 3069SOL    HW1 9953   1.972   3.500   2.911 -0.2034  0.0034 -0.4728
 3069SOL    HW2 9954   2.000   3.505   2.762  0.2952  1.1285 -0.3531
 3070SOL     OW 9955   6.284   3.424   3.164  0.0402  0.1102 -0.1262
 3070SOL    HW1 9956   6.239   3.404   3.246 -0.3479  2.8227  0.4335
 3070SOL    HW2 9957   6.376   3.404   3.181  0.1042  1.4497  1.3472
 3071SOL     OW 9958   5.895   2.932   4.622 -0.1816 -0.7085 -0.0996
 3071SOL    HW1 9959   5.909   2.873   4.548 -0.0568  0.4287 -1.0213
 3071SOL    HW2 9960   5.878   2.875   4.696  0.9257 -1.9232 -0.7473
 3072SOL     OW 9961   2.167   5.905   5.424 -0.0535  0.6043 -0.2472
 3072SOL    HW1 9962   2.203   5.873   5.507 -2.0174 -1.0381  0.0498
 3072SOL    HW2 9963   2.211   5.852   5.357 -2.3622 -2.0935  0.1696
 3073SOL     OW 9964   1.569   3.281   1.512 -0.6072  0.0761 -0.0127
 3073SOL    HW1 9965   1.555   3.265   1.419  0.6958 -1.6548  0.0264
 3073SOL    HW2 9966   1.614   3.202   1.543  0.8836  1.4874  1.6389
 3074SOL     OW 9967   4.697   4.186   1.145 -0.2103  0.0511  0.4732
 3074SOL    HW1 9968   4.762   4.256   1.152  1.3185 -1.3960  1.1207
 3074SOL    HW2 9969   4.742   4.115   1.099 -1.4528 -0.8434  0.5853
 3075SOL     OW 9970   2.723   0.355   6.162  0.8088 -0.3161  0.1136
 3075SOL    HW1 9971   2.781   0.299   6.110  2.8070  2.5725 -1.0062
 3075SOL    HW2 9972   2.778   0.429   6.189 -2.1375  2.2565 -0.3501
 3076SOL     OW 9973   5.225   6.131   3.383  0.1511  0.0243  0.1899
 3076SOL    HW1 9974   5.167   6.143   3.458  0.3282  0.2114  0.2987
 3076SOL    HW2 9975   5.172   6.086   3.318 -0.0911  0.1260  0.3188
 3077SOL     OW 9976   0.710   3.493   1.056 -0.1117  0.4654 -0.0771
 3077SOL    HW1 9977   0.768   3.538   0.993 -0.1035 -2.3883 -2.3110
 3077SOL    HW2 9978   0.769   3.437   1.107 -0.6445 -1.2762 -1.2923
 3078SOL     OW 9979   4.606   0.343   1.570 -0.2216 -0.2434 -0.1976
 3078SOL    HW1 9980   4.567   0.348   1.483  0.1987  2.6314 -0.3066
 3078SOL    HW2 9981   4.674   0.277   1.563 -1.7847 -1.8179 -1.3290
 3079SOL     OW 9982   4.362   0.241   0.081  0.0187  0.0519 -0.5231
 3079SOL    HW1 9983   4.396   0.299   0.149  2.7534 -1.5895 -0.3252
 3079SOL    HW2 9984   4.306   0.298   0.027  2.3016  2.8654 -0.2137
 3080SOL     OW 9985   0.944   2.863   2.620  0.0154  0.2480 -0.2509
 3080SOL    HW1 9986   0.935   2.839   2.713  1.3349  0.8381  0.0524
 3080SOL    HW2 9987   1.016   2.926   2.619 -1.4795  2.0270 -1.3875
 3081SOL     OW 9988   0.404   4.120   5.941 -0.6007  0.0715 -0.2994
 3081SOL    HW1 9989   0.460   4.114   6.019 -0.7624  0.9341 -0.1068
 3081SOL    HW2 9990   0.350   4.041   5.944 -1.2495  0.5316  0.9885
 3082SOL     OW 9991   3.571   5.634   2.220  0.2547  0.1621  0.2996
 3082SOL    HW1 9992   3.480   5.610   2.199 -0.5494  2.1223  1.2348
 3082SOL    HW2 9993   3.562   5.704   2.286  2.4303  0.9747 -0.1915
 3083SOL     OW 9994   2.478   0.113   2.135  0.9979 -0.4161 -0.2342
 3083SOL    HW1 9995   2.403   0.163   2.103  0.9795  0.0272  0.4743
 3083SOL    HW2 9996   2.487   0.040   2.074  0.3631 -0.1345 -0.6678
 3084SOL     OW 9997   3.360   2.687   4.514 -0.1071  0.6992  0.5320
 3084SOL    HW1 9998   3.405   2.768   4.489  0.1967  0.5766  0.6694
 3084SOL    HW2 9999   3.324   2.653   4.431  1.5116 -0.0831  0.0978
 3085SOL     OW10000   0.353   0.607   2.203 -0.6618 -0.2472 -0.1740
 3085SOL    HW110001   0.404   0.538   2.160  1.9637  0.3656  1.6734
 3085SOL    HW210002   0.338   0.573   2.291 -2.7018  0.0143 -0.3897
 3086SOL     OW10003   2.968   5.204   0.341  0.2329 -0.2094  0.7282
 3086SOL    HW110004   2.878   5.204   0.376 -0.7658 -1.3721 -1.6474
 3086SOL    HW210005   3.022   5.179   0.416 -1.5037 -0.2732  2.0292
 3087SOL     OW10006   3.991   2.678   4.504 -0.4678  0.3726 -0.0816
 3087SOL    HW110007   4.086   2.667   4.495 -0.6948 -1.8347 -0.2263
 3087SOL    HW210008   3.978   2.696   4.598  0.0332 -0.0694  0.0753
 3088SOL     OW10009   0.223   0.134   0.686 -0.1527 -0.3097  0.5555
 3088SOL    HW110010   0.189   0.076   0.754 -1.4049  1.3239  1.3925
 3088SOL    HW210011   0.148   0.189   0.661  1.3449  2.0792  1.0180
 3089SOL     OW10012   0.736   2.839   1.960  0.1591 -0.5131 -0.3121
 3089SOL    HW110013   0.693   2.922   1.939  3.0161  0.8081 -1.4663
 3089SOL    HW210014   0.720   2.827   2.054 -0.2487  1.3843 -0.1006
 3090SOL     OW10015   4.658   0.900   0.877  0.1548  0.0080 -0.1712
 3090SOL    HW110016   4.742   0.857   0.887  1.1499  1.4299 -1.7901
 3090SOL    HW210017   4.644   0.946   0.960  0.0532 -1.6999  0.7866
 3091SOL     OW10018   3.158   4.230   2.765  0.3220  0.0948 -0.0517
 3091SOL    HW110019   3.078   4.233   2.817 -0.5087  0.2913 -1.2871
 3091SOL    HW210020   3.170   4.319   2.734 -0.0453 -0.2963 -1.3939
 3092SOL     OW10021   3.332   5.787   1.986  0.0769 -0.6347 -0.0008
 3092SOL    HW110022   3.420   5.796   1.949 -0.2095 -1.4143 -0.9248
 3092SOL    HW210023   3.290   5.722   1.930 -0.9055 -0.6817  0.7775
 3093SOL     OW10024   2.067   0.166   1.061  0.9927  0.6010  0.2683
 3093SOL    HW110025   2.105   0.138   0.978  0.7262  0.9730  0.0143
 3093SOL    HW210026   2.125   0.237   1.090  0.6572  0.9841  0.0165
 3094SOL     OW10027   1.931   5.391   5.389 -0.6340 -0.3959  0.2509
 3094SOL    HW110028   1.895   5.348   5.311 -0.5802 -0.2984  0.1717
 3094SOL    HW210029   1.873   5.466   5.404 -0.8673 -0.6299  0.5280
 3095SOL     OW10030   0.290   4.321   4.556 -0.2278 -0.5293  0.2780
 3095SOL    HW110031   0.362   4.258   4.568 -0.0190 -0.1357  1.1209
 3095SOL    HW210032   0.301   4.385   4.626  0.0185  0.9091 -1.0149
 3096SOL     OW10033   5.118   2.843   3.093  0.0728 -0.6240 -0.1410
 3096SOL    HW110034   5.038   2.878   3.133  0.7466  1.4884 -0.5493
 3096SOL    HW210035   5.174   2.820   3.167  0.0684  0.2644  0.1416
 3097SOL     OW10036   5.971   4.130   4.958 -0.1115  0.0760 -0.1479
 3097SOL    HW110037   5.931   4.060   5.010  2.0348 -0.8190  0.4110
 3097SOL    HW210038   6.039   4.165   5.015  0.6848  0.7358 -1.4635
 3098SOL     OW10039   3.864   2.981   1.305  0.6980  0.5673 -0.3802
 3098SOL    HW110040   3.950   2.942   1.319  1.0725  1.6555  0.5047
 3098SOL    HW210041   3.811   2.948   1.378  0.5099  0.3105 -0.6317
 3099SOL     OW10042   2.341   3.023   2.001  0.1430  0.0450  0.0445
 3099SOL    HW110043   2.288   3.057   2.073  1.2233 -1.7443  1.8025
 3099SOL    HW210044   2.383   2.945   2.038  1.7228 -0.2252 -2.1596
 3100SOL     OW10045   2.996   1.172   4.214  0.6657  0.5578 -0.5802
 3100SOL    HW110046   3.090   1.185   4.225  0.7589  0.0061 -0.6826
 3100SOL    HW210047   2.986   1.077   4.203  0.2468  0.7350 -1.9739
 3101SOL     OW10048   3.302   3.644   4.061  0.0650  0.0157 -0.0598
 3101SOL    HW110049   3.320   3.709   4.128  0.7665  1.0949 -1.2470
 3101SOL    HW210050   3.247   3.690   3.997  1.0628 -0.3576 -1.2211
 3102SOL     OW10051   1.980   1.931   0.403 -0.1901 -0.3792  0.6033
 3102SOL    HW110052   1.969   1.848   0.449 -3.7615 -0.6013 -0.3598
 3102SOL    HW210053   1.962   1.910   0.311  0.4723  1.1934  0.0746
 3103SOL     OW10054   4.363   5.945   6.206  0.4972 -0.1019  0.0746
 3103SOL    HW110055   4.331   5.868   6.158 -0.9495  0.7135 -0.3120
 3103SOL    HW210056   4.446   5.967   6.163 -0.4509  0.2277 -1.6692
 3104SOL     OW10057   1.654   2.709   1.392  0.2699  0.2948 -0.4635
 3104SOL    HW110058   1.561   2.693   1.404  0.2780  0.9925  0.7879
 3104SOL    HW210059   1.660   2.801   1.365  0.6807  1.0954  2.0716
 3105SOL     OW10060   5.050   6.149   3.027 -0.2903  0.4342 -0.2003
 3105SOL    HW110061   4.988   6.221   3.040 -2.0672 -1.0199 -0.1892
 3105SOL    HW210062   5.029   6.087   3.096 -0.4167 -1.1313 -1.5912
 3106SOL     OW10063   2.604   1.107   1.675 -0.0489  0.5018 -0.2758
 3106SOL    HW110064   2.621   1.016   1.651  1.3192  0.4118  0.8714
 3106SOL    HW210065   2.546   1.101   1.751  1.4185  0.4711  0.8958
 3107SOL     OW10066   2.723   1.021   5.711  0.3837  0.0658  0.4687
 3107SOL    HW110067   2.771   0.942   5.737  0.7864 -0.4611 -1.6376
 3107SOL    HW210068   2.639   0.989   5.679  0.5324  0.4807 -0.3610
 3108SOL     OW10069   1.099   1.930   2.465 -0.1289 -0.0587 -0.3332
 3108SOL    HW110070   1.167   1.952   2.529  0.5563 -0.8252 -0.7818
 3108SOL    HW210071   1.145   1.928   2.381 -0.5394 -1.2797 -0.5561
 3109SOL     OW10072   0.357   4.280   4.904  0.1903  0.2142  0.4053
 3109SOL    HW110073   0.377   4.218   4.975 -0.2411 -0.4393 -0.0303
 3109SOL    HW210074   0.376   4.366   4.941  1.5150 -0.2122  0.7917
 3110SOL     OW10075   2.639   3.181   0.437  0.2090  0.7568  0.3871
 3110SOL    HW110076   2.632   3.085   0.437 -0.8197  0.8017 -1.2708
 3110SOL    HW210077   2.680   3.201   0.521  0.3919 -1.1304  0.8054
 3111SOL     OW10078   3.607   4.725   5.852  0.0057 -0.9854  0.4824
 3111SOL    HW110079   3.537   4.695   5.794 -0.2620 -1.1334  0.8735
 3111SOL    HW210080   3.572   4.803   5.894  0.3622 -0.6345  0.1304
 3112SOL     OW10081   4.364   4.920   5.801 -0.2117 -0.3232 -0.3932
 3112SOL    HW110082   4.406   4.984   5.859  0.9648 -1.7558  0.3935
 3112SOL    HW210083   4.347   4.844   5.857  1.8099 -2.1301 -2.0214
 3113SOL     OW10084   0.230   5.613   5.821 -0.5489  0.3736  0.4512
 3113SOL    HW110085   0.160   5.566   5.866  0.0648  0.0769  1.1208
 3113SOL    HW210086   0.224   5.703   5.853  0.3833 -0.0050  1.7771
 3114SOL     OW10087   1.831   2.877   3.338  0.2418  0.3977  0.3250
 3114SOL    HW110088   1.836   2.861   3.244  0.2059  0.1831  0.3600
 3114SOL    HW210089   1.799   2.795   3.375  0.8282  0.2840  0.5870
 3115SOL     OW10090   2.489   2.382   5.072  0.9180  0.2680  0.0420
 3115SOL    HW110091   2.456   2.390   5.161  3.0300 -1.4573  1.0635
 3115SOL    HW210092   2.577   2.347   5.082  1.9299  1.7204 -2.6569
 3116SOL     OW10093   5.238   2.751   4.367  0.5835  0.2052  0.0594
 3116SOL    HW110094   5.307   2.815   4.348  0.4147 -0.1211 -1.8234
 3116SOL    HW210095   5.246   2.686   4.297 -1.3669 -0.0706  0.0426
 3117SOL     OW10096   1.983   4.433   4.500 -0.0518  0.0507 -0.4037
 3117SOL    HW110097   1.941   4.446   4.415  0.7301 -2.2168 -1.1968
 3117SOL    HW210098   1.913   4.404   4.558 -0.1779 -0.6764 -0.9048
 3118SOL     OW10099   1.521   3.909   3.138 -0.6598  0.0637  0.8128
 3118SOL    HW110100   1.481   3.842   3.193  0.5449  0.2802  2.0113
 3118SOL    HW210101   1.545   3.979   3.200  3.2080 -0.8051  0.5731
 3119SOL     OW10102   0.486   5.039   1.461 -0.2096  0.3170 -0.0029
 3119SOL    HW110103   0.569   5.076   1.490 -0.7015  0.7829  0.8373
 3119SOL    HW210104   0.434   5.029   1.540 -1.1047  0.3905 -0.5602
 3120SOL     OW10105   0.852   3.943   5.402  0.4545 -0.1663  0.2751
 3120SOL    HW110106   0.904   4.015   5.367 -0.0234 -1.0160 -2.4763
 3120SOL    HW210107   0.891   3.865   5.362 -1.6636 -0.9920 -0.2825
 3121SOL     OW10108   5.660   0.139   1.927 -0.7881 -0.3828  0.2168
 3121SOL    HW110109   5.624   0.090   2.002 -1.0701 -0.5300 -0.0122
 3121SOL    HW210110   5.636   0.087   1.851  0.3556 -0.7494  0.0868
 3122SOL     OW10111   1.374   1.198   5.002  0.1327  0.0633  0.0994
 3122SOL    HW110112   1.404   1.262   5.067 -1.3695  0.1737  0.7252
 3122SOL    HW210113   1.451   1.181   4.948  0.4925  2.7638 -0.3833
 3123SOL     OW10114   5.460   5.053   3.170 -0.4116  0.1396  0.2229
 3123SOL    HW110115   5.485   4.960   3.175 -0.8710  0.0038  0.0292
 3123SOL    HW210116   5.500   5.092   3.248  0.5077 -0.0418 -0.1389
 3124SOL     OW10117   0.497   4.175   0.478 -0.0047 -0.1608  0.6870
 3124SOL    HW110118   0.468   4.103   0.533  3.3104 -0.7724  1.8232
 3124SOL    HW210119   0.544   4.133   0.406  0.8932  0.8052  0.6910
 3125SOL     OW10120   2.800   2.617   5.459  0.0517  0.4210  1.0245
 3125SOL    HW110121   2.750   2.610   5.378 -0.5721  1.0829  1.3395
 3125SOL    HW210122   2.874   2.674   5.436 -0.3323  0.9213  1.0085
 3126SOL     OW10123   1.903   2.449   3.775 -0.2453  0.3609  0.2651
 3126SOL    HW110124   1.984   2.500   3.784  0.4372  0.1980 -3.4932
 3126SOL    HW210125   1.833   2.514   3.778  0.3155  1.0059 -0.2882
 3127SOL     OW10126   4.075   3.388   1.469 -0.2395 -0.5563  0.4386
 3127SOL    HW110127   4.061   3.307   1.419  0.9477 -0.7633  0.4099
 3127SOL    HW210128   4.032   3.455   1.417  0.0744 -0.9370 -0.3345
 3128SOL     OW10129   0.720   4.254   2.847  0.4627 -0.3287  0.4062
 3128SOL    HW110130   0.780   4.247   2.921  0.8610  1.4662  0.2978
 3128SOL    HW210131   0.659   4.324   2.871  0.9390  0.6774 -1.1719
 3129SOL     OW10132   4.555   3.752   4.662 -0.0499 -0.2843  0.3551
 3129SOL    HW110133   4.533   3.840   4.691 -3.1613 -1.2069  1.1838
 3129SOL    HW210134   4.543   3.698   4.740 -0.8913 -1.7742 -0.7572
 3130SOL     OW10135   1.884   0.723   4.340  0.4007  0.0933  0.2219
 3130SOL    HW110136   1.796   0.686   4.329  0.9460 -1.9145  1.8637
 3130SOL    HW210137   1.875   0.815   4.318 -2.2243  0.0536  0.8554
 3131SOL     OW10138   0.018   1.701   3.829 -0.1986  0.2489  0.1985
 3131SOL    HW110139   0.044   1.697   3.737 -0.5437  0.5753  0.0825
 3131SOL    HW210140  -0.075   1.679   3.829 -0.3865  0.9978  0.3738
 3132SOL     OW10141   5.375   5.328   0.338  0.1982 -0.0475 -0.1759
 3132SOL    HW110142   5.366   5.233   0.333  0.1746  0.0268 -2.4086
 3132SOL    HW210143   5.301   5.362   0.287  0.9328  1.1180 -0.5116
 3133SOL     OW10144   4.220   5.166   4.062 -0.0109  0.0207 -0.9087
 3133SOL    HW110145   4.247   5.233   4.000 -0.0569  2.2404  1.3221
 3133SOL    HW210146   4.130   5.188   4.084  0.7786  0.8934  1.7945
 3134SOL     OW10147   4.577   1.294   4.990 -0.4634 -0.1412  0.3699
 3134SOL    HW110148   4.607   1.349   4.917  1.9025 -1.1690  0.4638
 3134SOL    HW210149   4.585   1.351   5.066 -1.3929  0.4407  0.0438
 3135SOL     OW10150   4.785   6.257   2.550 -0.4338 -0.0151  0.0015
 3135SOL    HW110151   4.714   6.194   2.539 -0.8090  0.1573  1.2626
 3135SOL    HW210152   4.783   6.280   2.643  0.4616  0.9558 -0.1931
 3136SOL     OW10153   5.685   2.791   4.009  0.1593 -0.3182 -0.5952
 3136SOL    HW110154   5.691   2.700   4.035  1.0558 -0.5722 -1.6103
 3136SOL    HW210155   5.646   2.789   3.921 -2.2439  0.4699  0.3498
 3137SOL     OW10156   2.141   4.361   2.135 -0.5714 -0.0572  0.3622
 3137SOL    HW110157   2.108   4.297   2.197  1.1238 -0.6260  0.7079
 3137SOL    HW210158   2.230   4.380   2.164 -0.2812  0.8284 -0.9978
 3138SOL     OW10159   6.089   0.461   3.347  0.5495 -0.1468  0.3882
 3138SOL    HW110160   6.009   0.416   3.321 -0.6485  1.8310  0.4154
 3138SOL    HW210161   6.153   0.392   3.359 -0.6696 -1.6761 -1.3373
 3139SOL     OW10162   3.209   5.504   0.672  0.7576 -0.2985 -0.4184
 3139SOL    HW110163   3.248   5.530   0.756  2.7470 -2.1533 -0.6978
 3139SOL    HW210164   3.115   5.506   0.689  0.9479  2.3851  0.8966
 3140SOL     OW10165   6.159   2.875   4.128  0.1679 -0.6842 -0.4393
 3140SOL    HW110166   6.071   2.892   4.160  0.0580  0.0983 -1.1350
 3140SOL    HW210167   6.149   2.864   4.033  1.1041  1.6745 -0.8681
 3141SOL     OW10168   2.441   5.140   4.488 -0.0054  0.0780  0.3165
 3141SOL    HW110169   2.499   5.209   4.455  0.0257  0.9150  1.9970
 3141SOL    HW210170   2.495   5.091   4.550 -0.8038  0.2724  1.1817
 3142SOL     OW10171   5.732   5.293   2.549  0.4294  0.4069 -0.0737
 3142SOL    HW110172   5.656   5.285   2.492  1.0041 -0.3365 -0.7622
 3142SOL    HW210173   5.695   5.296   2.638 -0.4008  0.1760 -0.4013
 3143SOL     OW10174   4.317   0.351   3.658 -0.3233  0.0829 -0.3324
 3143SOL    HW110175   4.238   0.356   3.604 -0.4491 -1.1032 -0.2842
 3143SOL    HW210176   4.328   0.258   3.675  0.8659  0.2726  0.0004
 3144SOL     OW10177   3.676   1.292   1.432  0.3084 -0.2878  0.1044
 3144SOL    HW110178   3.682   1.309   1.526  1.0005  1.4101 -0.2200
 3144SOL    HW210179   3.638   1.372   1.396  1.2499 -0.4225 -1.2261
 3145SOL     OW10180   4.598   2.287   4.491 -0.1558 -0.3325  0.2948
 3145SOL    HW110181   4.633   2.227   4.425  0.0643 -2.0630  1.9238
 3145SOL    HW210182   4.585   2.369   4.443  1.2223 -1.1301 -1.5890
 3146SOL     OW10183   2.243   2.503   2.870  0.0952  0.2520 -0.2434
 3146SOL    HW110184   2.178   2.439   2.898 -0.8415  0.5659 -1.6158
 3146SOL    HW210185   2.226   2.580   2.925 -0.7493  0.3538 -0.6322
 3147SOL     OW10186   1.164   2.777   2.285  0.6252 -0.0011 -0.7757
 3147SOL    HW110187   1.124   2.821   2.210 -0.5048  0.0764 -0.1645
 3147SOL    HW210188   1.235   2.835   2.312 -2.0674  2.7041  1.2693
 3148SOL     OW10189   1.940   1.529   6.301 -0.5494  0.0149 -0.1322
 3148SOL    HW110190   2.012   1.509   6.241 -0.8665 -0.4033 -0.3690
 3148SOL    HW210191   1.958   1.475   6.378 -0.1590  0.5296  0.1500
 3149SOL     OW10192   4.815   3.518   2.526  0.2317  0.0047 -0.0448
 3149SOL    HW110193   4.893   3.468   2.551 -0.4068 -0.1860  1.6661
 3149SOL    HW210194   4.834   3.608   2.554  0.5162  0.3215 -1.1997
 3150SOL     OW10195   2.887   5.245   1.492 -0.3505  0.1860  0.0610
 3150SOL    HW110196   2.889   5.331   1.449  0.4894 -0.1742 -0.6239
 3150SOL    HW210197   2.874   5.183   1.421 -5.5152 -0.0725  0.8436
 3151SOL     OW10198   2.495   2.656   2.641  0.3789  0.3801  1.3112
 3151SOL    HW110199   2.406   2.689   2.629 -0.4380 -1.1256  2.8772
 3151SOL    HW210200   2.543   2.729   2.678  0.1307  1.5649 -0.5534
 3152SOL     OW10201   5.298   3.588   5.775  0.5497  0.2828  0.2425
 3152SOL    HW110202   5.246   3.667   5.761  0.3537 -0.2037 -2.1463
 3152SOL    HW210203   5.278   3.532   5.700  0.3645 -2.2421  2.0431
 3153SOL     OW10204   0.987   0.451   1.605  0.3207  0.4284  0.0069
 3153SOL    HW110205   0.955   0.373   1.559  1.0211  0.0517  0.1491
 3153SOL    HW210206   1.081   0.450   1.591  0.8296 -0.6100  2.7764
 3154SOL     OW10207   1.058   3.535   0.404 -0.0819 -0.8627 -0.6025
 3154SOL    HW110208   1.128   3.516   0.342  0.7329  1.2971 -0.4414
 3154SOL    HW210209   0.978   3.504   0.361  0.3743  1.0086 -3.0171
 3155SOL     OW10210   6.196   0.768   4.212  0.1987  0.2980 -0.5190
 3155SOL    HW110211   6.217   0.685   4.255  1.3220  0.7092 -0.2348
 3155SOL    HW210212   6.254   0.832   4.253  0.2115  0.9919 -1.5681
 3156SOL     OW10213   3.327   2.584   5.635 -0.0265  0.0102 -0.2088
 3156SOL    HW110214   3.389   2.521   5.670 -1.2368 -0.3063  1.5269
 3156SOL    HW210215   3.347   2.665   5.682 -1.4244 -0.3159  1.0266
 3157SOL     OW10216   4.856   2.984   4.269 -0.0689 -0.3836  0.7492
 3157SOL    HW110217   4.845   3.050   4.200  3.1766 -2.1908 -1.7833
 3157SOL    HW210218   4.920   3.023   4.329 -0.1422 -0.2219  0.7230
 3158SOL     OW10219   1.718   1.460   4.169  0.3401 -0.5623 -0.5260
 3158SOL    HW110220   1.635   1.460   4.217  0.8122 -2.1329  0.3539
 3158SOL    HW210221   1.702   1.519   4.095 -1.1503  0.1352  0.2836
 3159SOL     OW10222   6.242   3.983   1.938  0.1543 -0.0986 -0.2933
 3159SOL    HW110223   6.329   3.973   1.977 -0.3401 -1.5435  0.5332
 3159SOL    HW210224   6.238   3.913   1.872 -0.6562 -0.5703  0.2396
 3160SOL     OW10225   6.016   3.795   5.755  0.2981 -0.8328 -0.2851
 3160SOL    HW110226   6.050   3.745   5.681  0.1345 -0.0400 -0.9173
 3160SOL    HW210227   5.926   3.817   5.730  0.1378 -0.8261  0.2874
 3161SOL     OW10228   6.283   1.973   2.859 -0.3364 -0.0324 -0.4664
 3161SOL    HW110229   6.194   1.973   2.825 -0.0939  1.0721 -1.1332
 3161SOL    HW210230   6.274   2.006   2.949 -0.6836 -0.7206 -0.2360
 3162SOL     OW10231   3.922   4.857   5.678  0.7084  0.6724  0.4945
 3162SOL    HW110232   3.944   4.859   5.771 -0.8727 -0.9502  0.9523
 3162SOL    HW210233   3.827   4.863   5.675  0.6997  0.2352 -1.0001
 3163SOL     OW10234   4.681   2.168   2.712 -0.3439 -0.1462 -0.3319
 3163SOL    HW110235   4.775   2.158   2.695  0.0807  0.0289  1.6593
 3163SOL    HW210236   4.642   2.177   2.625  1.4157 -0.6923 -1.2384
 3164SOL     OW10237   1.742   4.378   5.005  0.4229 -0.0791  0.1571
 3164SOL    HW110238   1.779   4.393   4.918 -0.8184  1.1411 -0.1937
 3164SOL    HW210239   1.708   4.288   5.002 -0.9594  0.4582 -1.1504
 3165SOL     OW10240   4.629   0.895   0.496  0.3473  0.4963  0.4255
 3165SOL    HW110241   4.685   0.936   0.431  1.5455 -1.0742  0.3988
 3165SOL    HW210242   4.599   0.967   0.551  0.2152  1.7067 -1.1763
 3166SOL     OW10243   2.252   0.772   1.570  0.4538  0.2523  0.4089
 3166SOL    HW110244   2.272   0.696   1.624  1.3163  1.3052  1.6171
 3166SOL    HW210245   2.187   0.740   1.507  1.7328 -1.7958  0.0459
 3167SOL     OW10246   4.555   4.480   0.895 -0.3264  0.0966 -0.2042
 3167SOL    HW110247   4.486   4.528   0.850 -0.9075 -0.3497  0.1850
 3167SOL    HW210248   4.622   4.466   0.829 -0.5863  0.5799 -0.5769
 3168SOL     OW10249   5.981   4.865   1.324 -0.0490  0.1311 -0.1559
 3168SOL    HW110250   6.055   4.813   1.358  0.4776  1.1397  0.2768
 3168SOL    HW210251   5.948   4.913   1.400 -1.8793 -1.1103 -0.1027
 3169SOL     OW10252   3.841   1.176   2.663  0.1053 -0.0725 -0.2189
 3169SOL    HW110253   3.854   1.266   2.632 -1.2117  0.6109  1.0820
 3169SOL    HW210254   3.809   1.129   2.586  0.0631  0.7571 -0.7282
 3170SOL     OW10255   0.206   3.156   1.474 -0.1881  0.1477 -0.5117
 3170SOL    HW110256   0.277   3.119   1.422 -0.2785  0.4295 -0.8376
 3170SOL    HW210257   0.126   3.122   1.434 -0.2302 -1.2837  0.6845
 3171SOL     OW10258   0.189   0.534   5.112 -0.1961 -0.2819  0.0069
 3171SOL    HW110259   0.152   0.447   5.094 -1.4206 -0.0515  1.1456
 3171SOL    HW210260   0.231   0.524   5.198  1.0904 -0.1437 -0.5958
 3172SOL     OW10261   5.169   6.089   1.702  0.3087 -0.4219  0.0976
 3172SOL    HW110262   5.102   6.033   1.663  0.2871  1.0686 -2.1904
 3172SOL    HW210263   5.135   6.109   1.790 -1.0980 -1.5325 -0.1483
 3173SOL     OW10264   6.201   5.535   4.377  0.1331 -0.3059 -1.0543
 3173SOL    HW110265   6.261   5.466   4.407 -0.4938 -0.8091 -0.9290
 3173SOL    HW210266   6.128   5.532   4.440 -0.4404 -0.3017 -1.7075
 3174SOL     OW10267   3.553   0.881   4.414  0.1247 -0.2785  0.0807
 3174SOL    HW110268   3.544   0.787   4.433 -1.4645 -0.1412  0.1672
 3174SOL    HW210269   3.587   0.918   4.495 -1.3963 -0.4876  0.8584
 3175SOL     OW10270   2.081   2.020   2.742 -0.6994 -0.0115 -0.3060
 3175SOL    HW110271   2.060   1.946   2.799 -2.6384  0.5660 -0.2003
 3175SOL    HW210272   2.157   2.061   2.783 -1.1858 -0.4392  1.0929
 3176SOL     OW10273   5.300   1.637   5.908  0.6507  0.7287  0.0394
 3176SOL    HW110274   5.254   1.656   5.826 -0.6892 -1.7233  0.1514
 3176SOL    HW210275   5.277   1.547   5.929  1.9262  0.8915  2.5242
 3177SOL     OW10276   1.547   1.882   5.364 -0.3059  0.1675  0.0080
 3177SOL    HW110277   1.473   1.898   5.422 -0.5502  1.0166 -0.5187
 3177SOL    HW210278   1.589   1.803   5.399 -1.6732 -0.5407  0.0902
 3178SOL     OW10279   3.139   1.728   5.896 -0.3327 -0.3790  0.1832
 3178SOL    HW110280   3.049   1.759   5.905 -0.5217  0.3550 -2.9028
 3178SOL    HW210281   3.130   1.638   5.864  0.0200 -0.3664  0.0446
 3179SOL     OW10282   5.385   0.704   0.141 -0.1594  0.2776  0.3158
 3179SOL    HW110283   5.311   0.659   0.102 -0.0838 -0.4030  0.9312
 3179SOL    HW210284   5.372   0.695   0.236  0.1739  1.0284  0.4402
 3180SOL     OW10285   4.749   5.076   5.694  0.3996 -0.3772 -0.4539
 3180SOL    HW110286   4.780   5.000   5.742  2.7166  1.1284  0.6124
 3180SOL    HW210287   4.806   5.080   5.617  1.0019  0.8266  0.0335
 3181SOL     OW10288   3.338   4.964   5.287  0.1250 -0.2425 -0.0258
 3181SOL    HW110289   3.409   4.997   5.342 -1.6411  1.5437  1.3417
 3181SOL    HW210290   3.379   4.946   5.202  2.3902 -0.3782  1.0373
 3182SOL     OW10291   2.865   0.963   0.234 -0.6487  0.2659  0.5148
 3182SOL    HW110292   2.790   0.919   0.195 -1.0012  0.4468  0.9824
 3182SOL    HW210293   2.874   1.044   0.184 -0.2528 -0.1326 -0.0765
 3183SOL     OW10294   3.516   1.047   1.619  0.3145  0.1526 -0.2343
 3183SOL    HW110295   3.607   1.019   1.622 -0.4750 -2.6573  0.1688
 3183SOL    HW210296   3.469   0.982   1.671 -1.8071  2.2152  0.6369
 3184SOL     OW10297   4.990   0.276   3.181 -0.9223 -0.1600 -0.5101
 3184SOL    HW110298   4.979   0.360   3.224 -1.5246 -0.5903  0.1993
 3184SOL    HW210299   5.078   0.279   3.144 -1.1322  0.9741 -0.9375
 3185SOL     OW10300   1.900   3.205   1.723 -0.2024  0.0009 -0.3199
 3185SOL    HW110301   1.902   3.215   1.818 -2.3745 -0.0081 -0.2098
 3185SOL    HW210302   1.931   3.288   1.689 -2.6589  1.3307  0.4654
 3186SOL     OW10303   1.455   1.279   0.527 -0.1096  0.0604 -0.2899
 3186SOL    HW110304   1.487   1.189   0.519 -1.8696 -0.7373  1.1481
 3186SOL    HW210305   1.406   1.293   0.446 -3.3604 -1.8452  1.1657
 3187SOL     OW10306   3.895   2.004   2.964  0.3698 -0.4653  0.5947
 3187SOL    HW110307   3.987   1.995   2.989  1.1414  1.0866 -1.3819
 3187SOL    HW210308   3.877   2.098   2.974 -0.1815 -0.3054 -1.4616
 3188SOL     OW10309   1.610   5.452   1.194 -0.7927 -0.2811  0.3921
 3188SOL    HW110310   1.602   5.485   1.283  1.8150  1.4361  0.0857
 3188SOL    HW210311   1.668   5.514   1.150 -1.2818 -1.5542 -2.2821
 3189SOL     OW10312   4.641   4.997   2.650  0.1319 -0.3957  0.3381
 3189SOL    HW110313   4.665   5.088   2.667  0.0947 -0.6360  1.7954
 3189SOL    HW210314   4.721   4.957   2.616  0.2310  0.0992 -0.0220
 3190SOL     OW10315   3.864   0.013   5.351  0.6781  0.1442  0.3119
 3190SOL    HW110316   3.785   0.022   5.404  0.8556 -0.6874  0.7295
 3190SOL    HW210317   3.833   0.027   5.261  0.1710  0.4342  0.5232
 3191SOL     OW10318   2.904   0.279   1.556  0.1442 -0.6612 -0.2269
 3191SOL    HW110319   2.934   0.282   1.647 -0.9172 -0.1556  0.1231
 3191SOL    HW210320   2.828   0.221   1.558 -0.6304  0.3256 -0.5548
 3192SOL     OW10321   5.570   3.353   2.480 -0.0649 -0.5496  0.4687
 3192SOL    HW110322   5.563   3.385   2.390 -1.9328  0.9069  1.0616
 3192SOL    HW210323   5.609   3.426   2.528 -0.9134 -0.5574  1.1803
 3193SOL     OW10324   1.170   2.033   4.391  0.6527 -0.3572  0.1330
 3193SOL    HW110325   1.255   2.034   4.435  1.3252 -1.1733 -1.0779
 3193SOL    HW210326   1.106   2.020   4.462  1.3411  2.0287  1.2705
 3194SOL     OW10327   4.580   2.078   0.249  0.1374  0.4722  0.2913
 3194SOL    HW110328   4.521   2.059   0.322 -0.2125  0.3823 -0.0180
 3194SOL    HW210329   4.558   2.168   0.224  0.1487  0.4453  0.1881
 3195SOL     OW10330   3.211   3.479   5.754  0.1154 -0.2204  0.0681
 3195SOL    HW110331   3.165   3.562   5.758  0.4280 -0.0809  1.1079
 3195SOL    HW210332   3.187   3.442   5.669 -0.4316  0.6892 -0.1854
 3196SOL     OW10333   2.202   3.334   1.754  0.1206  0.1960  0.6001
 3196SOL    HW110334   2.266   3.324   1.824 -1.1863 -2.6502  1.5408
 3196SOL    HW210335   2.228   3.269   1.688 -0.0706  1.1554 -0.4597
 3197SOL     OW10336   0.761   5.390   0.628 -0.3240 -0.4007 -0.5498
 3197SOL    HW110337   0.684   5.403   0.683 -0.3340  1.5191 -0.9715
 3197SOL    HW210338   0.826   5.353   0.688 -0.5292  1.0438  0.6198
 3198SOL     OW10339   0.321   0.552   3.964 -0.3048 -0.3961  0.0364
 3198SOL    HW110340   0.324   0.457   3.950 -1.8211 -0.3068 -1.2227
 3198SOL    HW210341   0.350   0.564   4.054  0.2046 -2.0249  0.1257
 3199SOL     OW10342   5.083   0.362   5.264  0.2345 -0.7344 -0.1869
 3199SOL    HW110343   5.169   0.402   5.250  0.2113 -1.2810 -2.1569
 3199SOL    HW210344   5.028   0.435   5.295  0.7908  0.2110 -1.3613
 3200SOL     OW10345   1.265   4.147   1.519  0.0334 -0.3205 -0.5658
 3200SOL    HW110346   1.319   4.104   1.586  1.2780  0.3389 -1.1255
 3200SOL    HW210347   1.274   4.092   1.441 -0.7030 -0.5991 -0.4685
 3201SOL     OW10348   5.497   3.391   4.238 -0.0035 -0.0631  0.4281
 3201SOL    HW110349   5.543   3.451   4.179 -0.4026  1.1881  1.3462
 3201SOL    HW210350   5.499   3.435   4.323 -3.4939  0.4053  0.3930
 3202SOL     OW10351   5.174   1.378   2.828  0.4676 -0.2548  0.5113
 3202SOL    HW110352   5.190   1.379   2.922  2.1687  2.5113  0.3196
 3202SOL    HW210353   5.192   1.288   2.801  1.4830 -0.7375  2.6167
 3203SOL     OW10354   0.664   6.228   0.618  0.5902 -0.3180  0.2775
 3203SOL    HW110355   0.599   6.295   0.641  0.5538 -0.4677  0.6246
 3203SOL    HW210356   0.679   6.181   0.700  2.2893  0.6959  0.5956
 3204SOL     OW10357   0.770   0.402   0.822  0.2342 -0.9056 -0.1009
 3204SOL    HW110358   0.774   0.497   0.822 -0.7364 -0.8536 -0.8133
 3204SOL    HW210359   0.677   0.381   0.821  0.4189 -1.8759  0.7858
 3205SOL     OW10360   3.392   1.903   5.886  0.4417  0.2070 -0.2664
 3205SOL    HW110361   3.313   1.850   5.874  1.0839 -0.5207 -1.4616
 3205SOL    HW210362   3.397   1.917   5.981 -1.5352  0.9429 -0.2283
 3206SOL     OW10363   5.503   4.411   4.062 -0.3790  0.2083 -0.3932
 3206SOL    HW110364   5.434   4.418   4.127  0.3308 -0.0169  0.4067
 3206SOL    HW210365   5.475   4.339   4.005  0.4070 -1.7314  1.5045
 3207SOL     OW10366   3.351   2.307   2.054 -0.1089 -0.2618 -0.0555
 3207SOL    HW110367   3.339   2.304   2.149 -0.8417 -1.0443 -0.1672
 3207SOL    HW210368   3.333   2.398   2.031 -0.4168 -0.1832  0.4877
 3208SOL     OW10369   1.043   5.842   4.211 -0.3928 -0.2079  0.2525
 3208SOL    HW110370   0.974   5.801   4.159 -1.5125  0.0936  1.4366
 3208SOL    HW210371   1.115   5.855   4.150 -2.0460  1.1731 -1.5110
 3209SOL     OW10372   3.214   0.685   5.033  0.0008  0.4466 -0.5919
 3209SOL    HW110373   3.163   0.703   4.954  1.0118  1.4037 -1.0430
 3209SOL    HW210374   3.172   0.607   5.070 -2.1136  1.4836 -0.6384
 3210SOL     OW10375   4.562   5.985   5.872  0.2212  0.1698  0.0289
 3210SOL    HW110376   4.596   5.896   5.883  0.6274  0.2417 -0.6035
 3210SOL    HW210377   4.573   6.026   5.957 -2.1140 -1.1091  1.0412
 3211SOL     OW10378   2.725   5.704   1.591 -0.4778 -0.2306  0.4690
 3211SOL    HW110379   2.664   5.705   1.517 -0.6962 -2.6911  0.5289
 3211SOL    HW210380   2.680   5.653   1.659  0.8162 -0.3433  1.2848
 3212SOL     OW10381   2.049   5.609   0.258  0.3940  0.2489 -0.0675
 3212SOL    HW110382   1.991   5.535   0.277  1.2949 -0.4211  0.1112
 3212SOL    HW210383   2.125   5.595   0.313  1.2323  0.5089 -1.1211
 3213SOL     OW10384   1.157   4.161   5.461 -0.4863 -0.2076 -0.3887
 3213SOL    HW110385   1.165   4.182   5.368 -0.5097  1.2176 -0.0867
 3213SOL    HW210386   1.198   4.075   5.469  0.6936  0.2078 -1.5036
 3214SOL     OW10387   5.355   5.720   4.770 -0.3645 -0.2100  0.0058
 3214SOL    HW110388   5.277   5.695   4.722 -0.8022  1.3045 -0.1246
 3214SOL    HW210389   5.400   5.783   4.714  0.6897 -0.6647  0.3023
 3215SOL     OW10390   3.181   0.113   5.836 -0.0675  0.6927  0.0805
 3215SOL    HW110391   3.274   0.132   5.831 -0.1994  1.1629 -0.6529
 3215SOL    HW210392   3.175   0.037   5.894  0.8496 -0.0249 -0.7523
 3216SOL     OW10393   5.905   1.983   4.277  0.8311 -0.2511 -0.2126
 3216SOL    HW110394   5.989   2.027   4.288  0.6742  0.0835 -0.3207
 3216SOL    HW210395   5.842   2.054   4.264  0.3389 -0.4415  1.0250
 3217SOL     OW10396   0.962   5.920   3.202  0.4387  0.3951 -0.3506
 3217SOL    HW110397   1.015   5.993   3.172  1.1154  0.4439  0.9111
 3217SOL    HW210398   1.016   5.876   3.267 -0.3313 -0.6785 -0.4046
 3218SOL     OW10399   0.195   5.131   0.036 -0.6223  0.1231  0.3742
 3218SOL    HW110400   0.203   5.162   0.126  0.8352  0.4294  0.1759
 3218SOL    HW210401   0.232   5.202  -0.017  0.4689 -0.8908 -0.2792
 3219SOL     OW10402   3.774   2.449   4.546 -0.2378 -0.1923 -0.0127
 3219SOL    HW110403   3.714   2.518   4.519  0.8018  0.4956 -0.6426
 3219SOL    HW210404   3.860   2.491   4.544  0.2234 -1.0152  1.3388
 3220SOL     OW10405   1.036   2.384   3.487 -0.2956  0.0223  0.4785
 3220SOL    HW110406   0.988   2.331   3.423  1.3587  0.3875 -1.1670
 3220SOL    HW210407   1.091   2.442   3.433  1.1822  0.3428  2.2388
 3221SOL     OW10408   3.897   2.792   5.995  0.2476 -0.1502  0.4431
 3221SOL    HW110409   3.879   2.699   6.007 -1.3334  0.0316 -0.2676
 3221SOL    HW210410   3.969   2.795   5.933  1.3145 -0.9019  1.5955
 3222SOL     OW10411   3.212   5.750   6.035 -0.2173 -0.1004  0.2392
 3222SOL    HW110412   3.189   5.702   5.955  2.8337 -2.7092  0.7368
 3222SOL    HW210413   3.253   5.830   6.004 -1.0311 -0.0395 -0.7360
 3223SOL     OW10414   1.878   3.560   4.196 -0.9293  0.3423 -0.9015
 3223SOL    HW110415   1.866   3.506   4.274  0.5345 -0.2601 -1.0612
 3223SOL    HW210416   1.822   3.518   4.130 -1.2337  0.1348 -0.5204
 3224SOL     OW10417   6.300   5.328   5.036 -0.2241 -0.2099  0.4499
 3224SOL    HW110418   6.341   5.407   5.002 -0.1208  0.8298  2.8277
 3224SOL    HW210419   6.353   5.256   5.001  0.0079  0.7637 -1.3026
 3225SOL     OW10420   4.698   1.742   1.904  0.0334 -0.0044 -0.3236
 3225SOL    HW110421   4.699   1.679   1.975  0.7111 -0.3695 -0.6549
 3225SOL    HW210422   4.635   1.809   1.932  0.4749 -0.0191  0.7202
 3226SOL     OW10423   1.351   0.989   0.007 -0.7937  0.0096 -0.0271
 3226SOL    HW110424   1.392   1.000  -0.079 -0.6117 -0.9338 -0.0694
 3226SOL    HW210425   1.331   0.895   0.013 -1.3182  0.1579  0.7290
 3227SOL     OW10426   5.515   4.616   1.787 -0.3511  0.0930 -0.0466
 3227SOL    HW110427   5.568   4.544   1.753  0.0536  0.5755 -0.4539
 3227SOL    HW210428   5.578   4.682   1.816 -0.6436 -0.6010  2.4290
 3228SOL     OW10429   1.178   2.453   1.676  0.0035  0.3765 -0.1791
 3228SOL    HW110430   1.177   2.378   1.617 -2.5383  0.0223  0.1814
 3228SOL    HW210431   1.265   2.492   1.665  0.1188 -0.5103 -3.0471
 3229SOL     OW10432   3.529   5.370   3.312  0.1451 -0.1765 -0.5586
 3229SOL    HW110433   3.612   5.419   3.305  0.1588  0.3127  2.0151
 3229SOL    HW210434   3.505   5.352   3.222  2.0081  1.4675 -1.4776
 3230SOL     OW10435   2.771   4.388   2.943  0.5560 -0.0466 -0.0204
 3230SOL    HW110436   2.755   4.436   3.024 -0.0766  2.1482 -1.3650
 3230SOL    HW210437   2.684   4.362   2.913  0.7729 -0.6857 -0.1104
 3231SOL     OW10438   6.289   5.736   3.426 -0.0748 -0.5211  0.6405
 3231SOL    HW110439   6.294   5.803   3.494 -0.7680 -0.0818  0.2714
 3231SOL    HW210440   6.199   5.704   3.430 -0.5864  0.5942 -1.0619
 3232SOL     OW10441   6.246   1.281   4.131 -0.1859 -0.2834 -0.1226
 3232SOL    HW110442   6.309   1.229   4.082 -1.7220 -2.6014  0.2049
 3232SOL    HW210443   6.189   1.217   4.173 -0.7933  1.6494  2.2567
 3233SOL     OW10444   2.441   2.859   2.939 -0.4183 -0.0023 -0.2540
 3233SOL    HW110445   2.525   2.877   2.896 -1.4377  0.1187 -2.3400
 3233SOL    HW210446   2.390   2.939   2.926 -0.1783  0.7882  2.9374
 3234SOL     OW10447   6.246   2.349   0.145 -0.1552  0.9896 -0.3609
 3234SOL    HW110448   6.311   2.342   0.214  0.0422  0.4246 -0.6042
 3234SOL    HW210449   6.221   2.442   0.145  0.7293  1.2319 -0.3438
 3235SOL     OW10450   3.651   0.991   3.560 -0.0142 -0.8372 -0.3304
 3235SOL    HW110451   3.734   1.033   3.538 -0.2413 -0.0423  0.2809
 3235SOL    HW210452   3.586   1.036   3.507 -0.4360  0.4697  1.2100
 3236SOL     OW10453   3.062   1.218   6.011  0.5287  0.1899 -0.6877
 3236SOL    HW110454   2.991   1.274   5.978  0.5756  0.2006 -0.7696
 3236SOL    HW210455   3.142   1.256   5.975  0.7393  1.1307  0.6835
 3237SOL     OW10456   2.827   5.667   4.038 -0.2078  0.6955 -0.7212
 3237SOL    HW110457   2.911   5.653   3.995  0.5126  1.4860  0.3580
 3237SOL    HW210458   2.848   5.664   4.132 -1.7115 -0.9750 -0.3897
 3238SOL     OW10459   3.032   3.371   4.179  0.1171  0.0728  0.7512
 3238SOL    HW110460   3.061   3.293   4.227  1.1559  0.2976  0.5036
 3238SOL    HW210461   2.960   3.405   4.232 -0.8450 -1.4426  0.4876
 3239SOL     OW10462   5.134   1.575   0.897  0.1476 -0.0736 -0.1605
 3239SOL    HW110463   5.080   1.552   0.973 -0.6431  0.4953 -0.5344
 3239SOL    HW210464   5.212   1.616   0.935 -0.3156  0.3602  0.3382
 3240SOL     OW10465   2.667   4.046   1.921 -0.1693 -0.3164  0.6521
 3240SOL    HW110466   2.601   4.013   1.982 -0.4578  1.5876  1.4351
 3240SOL    HW210467   2.751   4.016   1.957 -0.5175 -2.5111 -0.1943
 3241SOL     OW10468   5.835   1.137   3.740 -0.0056  0.0948 -0.0002
 3241SOL    HW110469   5.752   1.123   3.785  0.5664 -0.7142  0.8174
 3241SOL    HW210470   5.857   1.052   3.703 -0.5832  0.7771 -2.0753
 3242SOL     OW10471   5.629   0.683   1.825  0.9124 -0.1192  0.1333
 3242SOL    HW110472   5.575   0.660   1.750  0.5293 -0.1044  0.4015
 3242SOL    HW210473   5.652   0.775   1.811 -0.4656  0.3556  0.8128
 3243SOL     OW10474   5.336   1.676   5.106  0.0601  0.2997  0.3266
 3243SOL    HW110475   5.262   1.650   5.160  0.6948 -1.7927  0.2928
 3243SOL    HW210476   5.297   1.715   5.028 -0.9964 -0.4026  0.4871
 3244SOL     OW10477   3.437   5.795   5.577  0.2403  0.0952 -0.1756
 3244SOL    HW110478   3.389   5.769   5.498  0.4400  1.2783 -0.7221
 3244SOL    HW210479   3.522   5.751   5.568  0.6424  1.0003 -1.1718
 3245SOL     OW10480   2.490   4.261   1.047 -0.5041 -0.4249  0.4616
 3245SOL    HW110481   2.557   4.195   1.028  0.6657  0.6171  0.8986
 3245SOL    HW210482   2.410   4.223   1.011  0.6013 -0.9591 -1.5719
 3246SOL     OW10483   3.059   2.506   5.117  0.0529 -0.6692 -0.8684
 3246SOL    HW110484   3.135   2.456   5.088  0.3849 -0.8487  0.2780
 3246SOL    HW210485   3.020   2.452   5.186  0.2592  0.5231  0.2023
 3247SOL     OW10486   0.341   5.876   4.479 -0.7751  0.0237  0.4630
 3247SOL    HW110487   0.258   5.854   4.522 -0.6353 -2.1237 -0.2535
 3247SOL    HW210488   0.367   5.796   4.433  0.8887  1.1356 -0.6792
 3248SOL     OW10489   1.701   3.454   6.210 -0.3098 -0.1676  0.0703
 3248SOL    HW110490   1.726   3.414   6.127  0.6679  0.3502  0.1038
 3248SOL    HW210491   1.719   3.547   6.199 -1.4799  0.1251  0.3943
 3249SOL     OW10492   3.485   1.772   2.363  0.1915  0.4476  0.2017
 3249SOL    HW110493   3.457   1.863   2.363  1.3171  0.8668  2.5954
 3249SOL    HW210494   3.574   1.774   2.328 -0.1096  0.1295 -0.5952
 3250SOL     OW10495   3.458   2.134   3.030 -0.1828 -0.3731  0.0136
 3250SOL    HW110496   3.382   2.151   3.086  0.8849  0.1237  1.3657
 3250SOL    HW210497   3.502   2.219   3.023  0.4698 -0.7362 -0.4191
 3251SOL     OW10498   2.822   4.075   3.148 -0.1512  0.6706  0.3484
 3251SOL    HW110499   2.747   4.017   3.139 -0.6756  1.0224  1.9787
 3251SOL    HW210500   2.863   4.076   3.062 -2.0669  0.5345 -0.6090
 3252SOL     OW10501   1.864   0.830   5.434  1.0934 -0.2443 -0.2327
 3252SOL    HW110502   1.882   0.907   5.488  3.4695 -0.7529 -0.2045
 3252SOL    HW210503   1.886   0.755   5.489  1.0138 -0.8706 -1.0238
 3253SOL     OW10504   5.946   4.470   3.502 -0.1591 -0.0903  0.3670
 3253SOL    HW110505   6.020   4.434   3.551 -0.4253  0.4151  1.1456
 3253SOL    HW210506   5.908   4.394   3.459  0.0451 -0.5521  0.9860
 3254SOL     OW10507   4.926   4.227   3.525  0.0868  0.2787  0.1180
 3254SOL    HW110508   4.873   4.253   3.601 -0.1511  1.1594 -0.3396
 3254SOL    HW210509   5.014   4.258   3.546  0.7486 -2.1046  1.3607
 3255SOL     OW10510   3.302   6.105   3.146 -0.2623 -0.3513 -0.6914
 3255SOL    HW110511   3.271   6.078   3.233  1.0475 -1.8923 -0.6534
 3255SOL    HW210512   3.314   6.199   3.153  0.2907 -0.5062  0.9736
 3256SOL     OW10513   1.925   4.457   0.358  0.1233 -0.4549  0.3449
 3256SOL    HW110514   1.838   4.451   0.318  0.2031 -0.6262  0.2004
 3256SOL    HW210515   1.939   4.372   0.399  0.8233 -0.9376 -0.8520
 3257SOL     OW10516   5.607   5.744   5.938  0.8809 -0.7600  0.1537
 3257SOL    HW110517   5.538   5.754   5.872 -0.4364  0.4302  1.6536
 3257SOL    HW210518   5.667   5.818   5.921  0.5281 -0.4364  0.3156
 3258SOL     OW10519   1.818   3.681   5.311 -0.1371 -0.2309  0.0742
 3258SOL    HW110520   1.740   3.680   5.256 -0.1718 -2.7505  0.0789
 3258SOL    HW210521   1.788   3.647   5.395  0.6608  0.2475  0.5609
 3259SOL     OW10522   4.799   3.416   2.266  0.0019  0.1446  0.3543
 3259SOL    HW110523   4.792   3.322   2.281  2.4724 -0.1772 -0.0334
 3259SOL    HW210524   4.805   3.454   2.354  0.0596 -0.1744  0.4885
 3260SOL     OW10525   6.180   4.817   5.324  0.0215 -0.2240 -0.5415
 3260SOL    HW110526   6.128   4.784   5.397 -1.9855 -0.6996 -2.1124
 3260SOL    HW210527   6.144   4.904   5.307  0.8019  0.0788 -0.6902
 3261SOL     OW10528   5.810   3.520   1.356  0.3797 -0.1329 -0.7551
 3261SOL    HW110529   5.807   3.615   1.372 -0.6365 -0.3566  0.5885
 3261SOL    HW210530   5.762   3.508   1.274 -0.4141  0.4294 -0.3829
 3262SOL     OW10531   5.012   2.596   1.607  0.3970 -0.5419  0.1681
 3262SOL    HW110532   5.084   2.630   1.660 -0.1434  2.2343 -0.7080
 3262SOL    HW210533   4.935   2.602   1.664  0.4849 -1.4724  0.3965
 3263SOL     OW10534   1.064   1.764   3.103 -0.3987  0.3257  0.4566
 3263SOL    HW110535   1.121   1.744   3.178 -2.5454 -1.5764  1.7339
 3263SOL    HW210536   1.028   1.851   3.123 -0.6086  0.0263  1.4350
 3264SOL     OW10537   5.337   4.946   3.897  0.4204 -0.6189 -0.0546
 3264SOL    HW110538   5.282   5.005   3.948 -0.4079 -1.0912 -0.3866
 3264SOL    HW210539   5.360   4.875   3.957  1.5722  0.1118  0.4009
 3265SOL     OW10540   5.721   5.361   5.016 -0.4275  0.0795  0.3858
 3265SOL    HW110541   5.789   5.374   5.082  0.2208  1.2830 -0.4708
 3265SOL    HW210542   5.763   5.307   4.949 -1.3073 -1.7489  1.2482
 3266SOL     OW10543   3.403   3.518   6.302 -0.6855 -0.2210  0.2856
 3266SOL    HW110544   3.369   3.454   6.364  0.3660 -1.0301  0.0500
 3266SOL    HW210545   3.336   3.586   6.299 -1.0903 -0.5248  1.7484
 3267SOL     OW10546   1.906   3.861   5.125 -0.2096  0.7753 -0.1201
 3267SOL    HW110547   1.917   3.783   5.179  2.9659  1.5017  0.4693
 3267SOL    HW210548   1.946   3.838   5.041 -1.1617  1.1251 -0.6931
 3268SOL     OW10549   0.252   5.506   2.010 -0.1770 -0.2878  0.1632
 3268SOL    HW110550   0.165   5.529   2.042 -1.0484 -1.8170 -0.9413
 3268SOL    HW210551   0.236   5.462   1.927  1.7227  0.0366 -0.4294
 3269SOL     OW10552   2.221   4.074   2.957  0.4256 -0.7736 -0.2285
 3269SOL    HW110553   2.171   4.098   3.035 -2.7161 -1.4574 -1.8320
 3269SOL    HW210554   2.233   4.156   2.910 -1.0238 -0.8289 -0.7470
 3270SOL     OW10555   3.932   1.609   4.852  0.9488  0.2582  0.2883
 3270SOL    HW110556   3.940   1.685   4.794 -0.3450  2.0335  2.2892
 3270SOL    HW210557   3.991   1.627   4.925 -0.2849 -0.0302  1.3965
 3271SOL     OW10558   1.193   3.002   3.520 -0.1725 -0.2769  0.3718
 3271SOL    HW110559   1.270   3.037   3.564 -0.5715  1.4362 -0.1991
 3271SOL    HW210560   1.188   3.051   3.438 -0.7944 -1.7080 -0.4884
 3272SOL     OW10561   5.914   5.887   0.405  0.0117 -0.4369 -0.7885
 3272SOL    HW110562   5.820   5.872   0.415  0.0039  0.2184  0.1993
 3272SOL    HW210563   5.940   5.934   0.484  1.3310 -1.2919 -0.6698
 3273SOL     OW10564   0.671   5.281   4.365  0.1663  0.3566  0.3137
 3273SOL    HW110565   0.662   5.192   4.400  0.9588 -0.8426 -2.2695
 3273SOL    HW210566   0.765   5.299   4.371  0.5232 -0.3523 -2.0259
 3274SOL     OW10567   4.618   0.634   0.318  0.3972 -0.9667 -0.3794
 3274SOL    HW110568   4.538   0.685   0.329  1.6372  0.9551  0.0933
 3274SOL    HW210569   4.588   0.543   0.321 -1.9029 -0.3209 -1.3771
 3275SOL     OW10570   0.282   5.380   6.209  0.0680  0.5238 -0.0040
 3275SOL    HW110571   0.275   5.441   6.282 -1.0104  0.3851  0.0244
 3275SOL    HW210572   0.224   5.415   6.141 -0.9913 -0.7116  0.2127
 3276SOL     OW10573   3.590   4.103   2.225  0.5273  0.0658  0.6596
 3276SOL    HW110574   3.502   4.137   2.213  0.7196  0.6719  0.9264
 3276SOL    HW210575   3.589   4.060   2.310  0.0491 -1.3820 -0.0483
 3277SOL     OW10576   5.186   3.777   0.311  0.0368 -0.2027 -0.1693
 3277SOL    HW110577   5.235   3.829   0.247 -0.2121  0.9301  0.5328
 3277SOL    HW210578   5.195   3.687   0.281  0.6676  0.2217 -1.2991
 3278SOL     OW10579   3.060   4.184   1.644  0.0981  0.8427  0.2357
 3278SOL    HW110580   3.069   4.140   1.729  0.5097  0.7286  0.1349
 3278SOL    HW210581   2.986   4.244   1.656 -0.5506  0.0322  0.3327
 3279SOL     OW10582   5.039   2.303   1.890  0.0236 -0.4866 -0.5390
 3279SOL    HW110583   5.064   2.294   1.799  0.0345  0.9348 -0.7012
 3279SOL    HW210584   5.082   2.383   1.919 -1.9129  0.4255  0.0049
 3280SOL     OW10585   4.281   1.524   4.846 -0.4357 -0.6918 -0.6630
 3280SOL    HW110586   4.232   1.480   4.915 -0.7283  0.7026  0.0673
 3280SOL    HW210587   4.247   1.488   4.765 -0.3179 -2.1292 -0.0937
 3281SOL     OW10588   0.645   0.175   3.536 -0.2539  0.2100  0.4579
 3281SOL    HW110589   0.704   0.232   3.486 -0.5511  1.7101  1.7473
 3281SOL    HW210590   0.703   0.132   3.600 -0.2198 -0.0587  0.2504
 3282SOL     OW10591   5.191   2.436   3.242 -0.1086  0.3194  0.1371
 3282SOL    HW110592   5.219   2.526   3.226 -0.8189  0.6626  0.7780
 3282SOL    HW210593   5.101   2.432   3.211  0.0428 -0.2808 -0.2468
 3283SOL     OW10594   5.052   2.696   5.545 -0.1998 -0.2360  0.3669
 3283SOL    HW110595   4.984   2.634   5.519  0.1370 -1.2157  1.6617
 3283SOL    HW210596   5.015   2.742   5.620 -0.7187  1.7033 -1.0128
 3284SOL     OW10597   5.602   2.134   0.485 -0.1898 -0.0813  0.0471
 3284SOL    HW110598   5.560   2.215   0.457 -0.9415 -1.1026 -1.9731
 3284SOL    HW210599   5.535   2.089   0.536 -0.0434  0.1847  0.4842
 3285SOL     OW10600   4.521   5.135   3.707 -0.5208 -0.4606 -0.3208
 3285SOL    HW110601   4.617   5.130   3.707 -0.3504  1.8776 -0.6033
 3285SOL    HW210602   4.493   5.056   3.661  1.1202 -2.6026  2.0652
 3286SOL     OW10603   4.962   1.866   2.124 -0.1904  0.4439 -0.2678
 3286SOL    HW110604   4.867   1.872   2.136 -0.7907 -1.4888 -2.9654
 3286SOL    HW210605   4.973   1.845   2.031  2.7141 -2.1093  0.4653
 3287SOL     OW10606   6.007   2.797   0.783  0.0716 -0.5294  0.7056
 3287SOL    HW110607   6.074   2.782   0.716 -2.5386  0.2119 -2.2824
 3287SOL    HW210608   5.965   2.712   0.793  1.0868 -0.8847  2.2515
 3288SOL     OW10609   3.079   1.912   0.143 -0.5982 -0.3397 -0.2741
 3288SOL    HW110610   3.041   1.848   0.083  2.3864 -1.4792 -1.0740
 3288SOL    HW210611   3.138   1.964   0.089  0.7581 -0.1680  1.3102
 3289SOL     OW10612   6.001   0.732   3.780  0.1373  0.0204  0.0412
 3289SOL    HW110613   5.987   0.679   3.859 -0.9352 -0.4294 -0.4374
 3289SOL    HW210614   6.023   0.667   3.713 -0.9804  0.1990 -0.5037
 3290SOL     OW10615   4.538   1.176   0.606 -1.5722  0.2714 -0.1205
 3290SOL    HW110616   4.548   1.226   0.525 -0.6713  1.3060  0.5862
 3290SOL    HW210617   4.516   1.242   0.672  0.3705 -0.1045  0.9918
 3291SOL     OW10618   2.361   1.018   4.595  0.5823  0.4654 -0.1258
 3291SOL    HW110619   2.396   1.052   4.512 -0.2197  0.6101 -0.4195
 3291SOL    HW210620   2.279   0.976   4.570  0.2688  0.6275  0.6185
 3292SOL     OW10621   4.599   4.244   1.398  0.1968 -0.7161 -0.1988
 3292SOL    HW110622   4.680   4.295   1.407 -0.9928  1.0693  1.0050
 3292SOL    HW210623   4.601   4.212   1.308 -0.4034  4.1008 -2.1736
 3293SOL     OW10624   0.835   3.571   1.975  0.3384 -0.1641 -0.4415
 3293SOL    HW110625   0.848   3.595   2.067 -1.1064  0.3480 -0.3561
 3293SOL    HW210626   0.755   3.615   1.949  0.1045 -1.2190 -1.6266
 3294SOL     OW10627   5.624   2.540   5.087  0.0873 -0.4762 -0.3358
 3294SOL    HW110628   5.616   2.451   5.122  2.7219 -0.7290 -0.2309
 3294SOL    HW210629   5.640   2.594   5.164  0.4085 -0.2003 -0.5985
 3295SOL     OW10630   5.343   0.832   3.142 -0.0571 -0.4686  0.9314
 3295SOL    HW110631   5.320   0.876   3.224 -2.2101  0.3401 -0.0404
 3295SOL    HW210632   5.378   0.747   3.169  1.8212  0.8064  2.7582
 3296SOL     OW10633   5.157   3.262   0.413 -0.0038 -0.0888 -0.1128
 3296SOL    HW110634   5.061   3.258   0.420  0.0306  1.0720  2.2603
 3296SOL    HW210635   5.188   3.193   0.472  0.5783  0.6027  0.4149
 3297SOL     OW10636   2.246   3.851   0.135  0.1901  0.0833 -0.2732
 3297SOL    HW110637   2.178   3.794   0.099 -0.6403 -0.6093  2.2082
 3297SOL    HW210638   2.282   3.896   0.058 -1.0027 -1.7263 -2.0113
 3298SOL     OW10639   4.941   3.023   0.145 -0.3982 -0.0190 -0.1038
 3298SOL    HW110640   4.994   3.063   0.076  0.3738 -1.9953 -0.7093
 3298SOL    HW210641   4.992   2.948   0.175 -2.1974 -1.1389  0.3254
 3299SOL     OW10642   2.751   2.369   6.097  0.0104  0.3037 -0.5838
 3299SOL    HW110643   2.713   2.453   6.120 -1.9263 -0.7558  0.3720
 3299SOL    HW210644   2.816   2.352   6.166 -0.5498  0.4245 -0.0154
 3300SOL     OW10645   2.711   6.097   5.850  0.2654 -0.4139  0.0294
 3300SOL    HW110646   2.748   6.009   5.839  0.4397 -0.5939  1.7716
 3300SOL    HW210647   2.651   6.106   5.777  0.8364 -1.6717 -0.6387
 3301SOL     OW10648   5.753   2.091   0.697  0.1426  0.0880  0.3823
 3301SOL    HW110649   5.722   2.118   0.611 -2.3618  1.7140  1.6729
 3301SOL    HW210650   5.727   1.999   0.705 -1.4103  0.4808  0.1138
 3302SOL     OW10651   4.977   4.410   2.500 -0.0030  0.0403 -0.3893
 3302SOL    HW110652   5.034   4.375   2.568 -1.6041 -0.4696  0.7489
 3302SOL    HW210653   4.908   4.345   2.490 -0.3049  0.5285 -1.8858
 3303SOL     OW10654   2.901   0.062   5.340 -0.4643  0.1184 -0.1088
 3303SOL    HW110655   2.833  -0.001   5.363 -0.8307  0.6424  0.2831
 3303SOL    HW210656   2.903   0.124   5.414 -1.3275  1.5504 -1.2283
 3304SOL     OW10657   6.200   3.051   4.380 -0.6552  0.5116 -0.3724
 3304SOL    HW110658   6.148   3.110   4.326  0.5851  0.0336 -2.1897
 3304SOL    HW210659   6.211   2.972   4.326  2.0857  0.6743 -0.1850
 3305SOL     OW10660   0.838   4.525   3.330  0.4586  0.4755  0.0996
 3305SOL    HW110661   0.927   4.509   3.298 -0.2056  0.0917 -1.6678
 3305SOL    HW210662   0.837   4.618   3.353  1.3364  0.4577  0.2292
 3306SOL     OW10663   5.171   4.943   1.824 -0.0199  0.0872  0.1537
 3306SOL    HW110664   5.258   4.962   1.789  0.2015  0.2856  0.8045
 3306SOL    HW210665   5.140   4.869   1.771  1.0346 -0.7693  0.6707
 3307SOL     OW10666   4.187   4.823   4.845 -0.1204 -0.0545  0.2692
 3307SOL    HW110667   4.144   4.889   4.898 -1.0806 -0.5977  0.1964
 3307SOL    HW210668   4.144   4.741   4.869 -0.1313 -0.4031 -0.8770
 3308SOL     OW10669   0.354   4.622   2.866 -0.0690  0.2743 -0.0289
 3308SOL    HW110670   0.326   4.688   2.929  0.6100 -1.2207  1.9307
 3308SOL    HW210671   0.284   4.557   2.866  0.5132 -0.3721  0.1874
 3309SOL     OW10672   4.405   4.230   0.945  0.3829 -0.0994 -0.0185
 3309SOL    HW110673   4.419   4.202   1.035  0.2538 -0.1237 -0.0065
 3309SOL    HW210674   4.468   4.301   0.932 -1.5870  1.9864  1.0426
 3310SOL     OW10675   1.793   0.594   1.865  0.7710 -0.3182  0.8021
 3310SOL    HW110676   1.851   0.580   1.939  2.5965  2.1695  0.0079
 3310SOL    HW210677   1.850   0.627   1.795 -1.6124  3.5390  0.3311
 3311SOL     OW10678   2.478   2.179   1.721 -0.0268  0.1006 -0.0483
 3311SOL    HW110679   2.467   2.271   1.746  1.6833  0.6241 -1.0572
 3311SOL    HW210680   2.528   2.141   1.794 -2.2350 -0.5323  1.2212
 3312SOL     OW10681   3.012   3.147   3.799  0.5298  0.0664  0.4038
 3312SOL    HW110682   2.928   3.187   3.822  0.2796  0.6903 -1.4738
 3312SOL    HW210683   3.060   3.215   3.753  1.6675 -0.6042  0.5632
 3313SOL     OW10684   3.826   4.672   4.837 -0.1671  0.3944  0.5121
 3313SOL    HW110685   3.893   4.631   4.891 -1.3108  0.4379  2.0175
 3313SOL    HW210686   3.759   4.605   4.826 -0.5827  0.8385  0.2894
 3314SOL     OW10687   0.406   4.558   4.763  0.0447 -0.2186 -0.1090
 3314SOL    HW110688   0.329   4.595   4.805 -0.0531 -0.1273 -0.3627
 3314SOL    HW210689   0.458   4.522   4.834 -0.3999 -0.5908  0.0256
 3315SOL     OW10690   1.430   5.391   4.420  1.1955 -0.3928  0.3296
 3315SOL    HW110691   1.437   5.351   4.333  1.0055 -1.0980  0.6353
 3315SOL    HW210692   1.515   5.433   4.434  1.0557  0.1592 -0.4021
 3316SOL     OW10693   2.327   0.455   4.256  0.4613  0.5310  0.0225
 3316SOL    HW110694   2.398   0.441   4.193  0.4869  1.0876 -0.0775
 3316SOL    HW210695   2.289   0.539   4.231 -0.2871  0.2024  0.0299
 3317SOL     OW10696   0.828   0.329   5.693 -0.1082  0.0166 -0.8687
 3317SOL    HW110697   0.898   0.370   5.642 -0.1683  2.8739  1.0889
 3317SOL    HW210698   0.748   0.349   5.645 -0.1358  2.4443  0.0385
 3318SOL     OW10699   4.168   3.075   5.136  0.5217 -0.0064 -0.2521
 3318SOL    HW110700   4.150   3.073   5.230  0.9836  1.3781 -0.1105
 3318SOL    HW210701   4.248   3.023   5.126  1.3663  1.1234  0.3681
 3319SOL     OW10702   5.825   5.360   0.415  0.3672  0.4084  0.5191
 3319SOL    HW110703   5.895   5.384   0.354  1.3017  0.1726  1.4540
 3319SOL    HW210704   5.746   5.397   0.377  0.5973 -1.2714 -1.7609
 3320SOL     OW10705   4.604   4.831   1.038  0.0841 -0.5549 -0.2746
 3320SOL    HW110706   4.616   4.745   1.078  0.7547 -1.2071 -1.8136
 3320SOL    HW210707   4.643   4.893   1.101  1.9789 -1.6295 -0.3220
 3321SOL     OW10708   5.470   3.137   3.761  0.7308 -0.2424 -0.5517
 3321SOL    HW110709   5.383   3.162   3.729  0.9314  2.0377  0.5238
 3321SOL    HW210710   5.463   3.143   3.856  1.9243 -0.6000 -0.4263
 3322SOL     OW10711   2.336   5.989   1.722 -0.1546 -0.4852 -0.2323
 3322SOL    HW110712   2.387   5.920   1.765 -1.4118 -1.3092  0.0067
 3322SOL    HW210713   2.338   5.966   1.629  0.0922 -0.3795 -0.2548
 3323SOL     OW10714   2.999   4.741   1.386 -0.0722 -0.3053  0.0792
 3323SOL    HW110715   2.974   4.824   1.344 -2.7583 -1.1972 -0.2722
 3323SOL    HW210716   2.986   4.675   1.318  1.3562 -1.1355  0.5680
 3324SOL     OW10717   5.410   5.735   5.021 -0.1393  0.4333  0.6363
 3324SOL    HW110718   5.399   5.728   4.926 -1.5161 -0.2642  0.8096
 3324SOL    HW210719   5.430   5.827   5.036 -1.9926  1.0287 -0.1847
 3325SOL     OW10720   3.529   4.258   0.519 -0.4222  0.0428 -0.2079
 3325SOL    HW110721   3.512   4.228   0.430  0.3455 -0.3169 -0.2451
 3325SOL    HW210722   3.575   4.342   0.508 -0.2755 -0.0301 -0.1533
 3326SOL     OW10723   1.380   1.462   1.385 -0.4296  0.0006 -0.3384
 3326SOL    HW110724   1.452   1.494   1.331  0.3372 -0.5415  0.3461
 3326SOL    HW210725   1.347   1.386   1.337 -0.1105 -0.1516 -0.3182
 3327SOL     OW10726   0.884   2.375   5.361 -0.2548  0.0424  0.0423
 3327SOL    HW110727   0.887   2.412   5.449  0.3013  0.0474  0.0247
 3327SOL    HW210728   0.813   2.310   5.364  0.5680 -0.8361  0.8384
 3328SOL     OW10729   3.185   3.179   0.617 -0.1044 -0.0057 -0.1661
 3328SOL    HW110730   3.124   3.171   0.544 -2.3184  0.6932  1.5296
 3328SOL    HW210731   3.245   3.248   0.590 -1.2407  0.6662 -1.0836
 3329SOL     OW10732   1.609   0.564   4.727 -0.0185 -0.2120  0.5663
 3329SOL    HW110733   1.664   0.500   4.682  0.8426  0.4255  0.6965
 3329SOL    HW210734   1.650   0.575   4.813  1.6241  2.6639 -0.4446
 3330SOL     OW10735   5.820   2.345   1.782  1.0433 -0.1977  0.3865
 3330SOL    HW110736   5.780   2.350   1.696 -0.0898  1.3520  0.9522
 3330SOL    HW210737   5.912   2.362   1.767  0.9653 -0.5780 -0.5800
 3331SOL     OW10738   4.826   5.881   4.827  0.0407 -1.1036  0.2796
 3331SOL    HW110739   4.861   5.912   4.744 -0.8020 -0.9728 -0.0446
 3331SOL    HW210740   4.799   5.961   4.873  0.6444 -1.1666  0.7431
 3332SOL     OW10741   5.442   1.962   4.782  1.2725  0.1311  1.2229
 3332SOL    HW110742   5.501   1.962   4.707  1.3379  2.8650  1.1521
 3332SOL    HW210743   5.492   1.920   4.852  2.0203 -0.5546  0.3090
 3333SOL     OW10744   4.626   0.519   3.463 -0.0445  0.5624 -0.3539
 3333SOL    HW110745   4.602   0.537   3.554 -0.1014 -1.1613  0.0106
 3333SOL    HW210746   4.543   0.525   3.415 -0.3266 -0.1960  0.0168
 3334SOL     OW10747   1.326   3.791   4.178  0.3610  0.1105 -0.1443
 3334SOL    HW110748   1.239   3.752   4.176  0.9504 -1.3018  0.5939
 3334SOL    HW210749   1.311   3.883   4.196 -1.0930  0.3418 -2.1481
 3335SOL     OW10750   4.466   1.297   6.093 -0.4095 -0.3226  0.1303
 3335SOL    HW110751   4.420   1.363   6.146  1.7859 -0.3689  2.2434
 3335SOL    HW210752   4.452   1.326   6.002  0.5561  3.2140  0.9420
 3336SOL     OW10753   1.019   5.285   1.904 -0.2521  0.2185  0.2549
 3336SOL    HW110754   0.925   5.271   1.916 -0.6530  1.6481 -0.9127
 3336SOL    HW210755   1.060   5.226   1.967 -1.9449  0.1206  1.3411
 3337SOL     OW10756   5.228   1.829   0.698 -0.4712  0.4407  0.1832
 3337SOL    HW110757   5.152   1.771   0.708  1.2636 -2.2008 -0.8511
 3337SOL    HW210758   5.293   1.775   0.653  1.7368  2.8670  0.2569
 3338SOL     OW10759   3.390   1.004   4.890  0.1065 -0.5764 -0.6222
 3338SOL    HW110760   3.470   1.045   4.923 -0.8591  0.5150  0.4414
 3338SOL    HW210761   3.369   0.938   4.956 -1.0326  0.6250  0.2726
 3339SOL     OW10762   1.872   0.215   5.330 -0.1823 -0.1118 -0.0446
 3339SOL    HW110763   1.837   0.175   5.251 -0.2518  0.0945 -0.1179
 3339SOL    HW210764   1.933   0.282   5.299  1.3394 -1.3911  0.0800
 3340SOL     OW10765   1.582   0.831   3.128 -0.4618  0.0128 -0.2205
 3340SOL    HW110766   1.497   0.872   3.110  0.2458  1.9565  0.6453
 3340SOL    HW210767   1.599   0.851   3.220  2.7358  3.2879 -1.3082
 3341SOL     OW10768   1.923   2.253   4.690 -0.0761  0.2700  0.2824
 3341SOL    HW110769   1.966   2.184   4.740 -1.5319 -0.8503  0.0239
 3341SOL    HW210770   1.986   2.274   4.621 -0.0227 -1.5661 -0.2837
 3342SOL     OW10771   4.530   5.652   3.288  0.3049  0.6307  0.0391
 3342SOL    HW110772   4.598   5.586   3.296  0.7545  1.2017  1.2719
 3342SOL    HW210773   4.463   5.625   3.350 -0.1413  0.6095 -0.4445
 3343SOL     OW10774   4.544   4.552   5.114  0.4503 -0.3868  0.2360
 3343SOL    HW110775   4.578   4.591   5.194 -0.5248  0.0433  0.4552
 3343SOL    HW210776   4.552   4.622   5.049 -1.7642  0.4076  0.7462
 3344SOL     OW10777   3.688   0.397   0.811  0.1114 -0.2562  0.5218
 3344SOL    HW110778   3.773   0.385   0.769  1.0867  2.4935  1.5078
 3344SOL    HW210779   3.624   0.389   0.740  1.4572  0.9439 -0.8990
 3345SOL     OW10780   4.422   2.789   4.629  0.3855 -0.8859 -0.1949
 3345SOL    HW110781   4.483   2.801   4.702  0.6257 -2.2099 -0.1385
 3345SOL    HW210782   4.462   2.836   4.556 -0.8862  2.2507  0.9943
 3346SOL     OW10783   5.942   1.740   6.164 -0.0221 -0.7596 -0.7743
 3346SOL    HW110784   5.887   1.803   6.210 -0.5553 -1.9845  0.3293
 3346SOL    HW210785   5.934   1.765   6.071 -0.2008  0.7749 -0.3779
 3347SOL     OW10786   2.937   5.621   0.648  0.0327  0.5151  0.2288
 3347SOL    HW110787   2.981   5.612   0.564  0.0332  2.4961 -0.0267
 3347SOL    HW210788   2.895   5.536   0.663  2.5612 -0.8972 -0.2797
 3348SOL     OW10789   3.374   1.269   1.156  0.6730 -0.6691 -0.0089
 3348SOL    HW110790   3.432   1.344   1.152 -0.0121 -0.1855 -1.4711
 3348SOL    HW210791   3.423   1.203   1.205  0.7519  1.1591  2.5847
 3349SOL     OW10792   3.827   0.215   5.543  0.1300 -0.0542 -0.4604
 3349SOL    HW110793   3.747   0.179   5.581 -0.0266 -1.8083 -2.2483
 3349SOL    HW210794   3.807   0.308   5.530 -1.5174 -0.3784 -0.5532
 3350SOL     OW10795   5.792   3.471   4.667  0.0599  0.7009 -0.6536
 3350SOL    HW110796   5.749   3.502   4.588 -0.6016 -0.8081 -0.9212
 3350SOL    HW210797   5.845   3.397   4.638  0.1018  0.3634  0.2572
 3351SOL     OW10798   1.215   2.833   0.846 -0.2143 -0.7709 -0.3575
 3351SOL    HW110799   1.243   2.743   0.832  0.7759 -0.7517  1.2406
 3351SOL    HW210800   1.285   2.872   0.898 -0.0862  1.2666 -1.9368
 3352SOL     OW10801   4.331   3.414   2.373  0.0153 -0.7961 -0.1712
 3352SOL    HW110802   4.404   3.430   2.432  1.7250 -0.5850 -2.2116
 3352SOL    HW210803   4.366   3.353   2.307 -1.7402 -0.9158 -1.0626
 3353SOL     OW10804   4.267   1.719   6.251  0.3057 -0.7202 -0.1652
 3353SOL    HW110805   4.300   1.629   6.251 -0.5761 -1.0531  0.5320
 3353SOL    HW210806   4.340   1.771   6.284  0.3201 -1.3827  0.8858
 3354SOL     OW10807   2.737   4.584   0.520 -0.2339  0.0256  0.3853
 3354SOL    HW110808   2.759   4.504   0.471  2.1275 -0.3764  1.9337
 3354SOL    HW210809   2.710   4.646   0.452 -1.2107 -1.7716 -0.9584
 3355SOL     OW10810   3.445   0.089   3.538  0.0187  0.1066  0.1667
 3355SOL    HW110811   3.496   0.168   3.524  1.5347 -0.6273  1.1591
 3355SOL    HW210812   3.368   0.098   3.482  1.1983  1.3105 -1.3333
 3356SOL     OW10813   0.938   3.749   3.430  0.2805 -0.0910  0.3215
 3356SOL    HW110814   0.994   3.806   3.484 -1.0502 -0.0318  1.7153
 3356SOL    HW210815   0.997   3.682   3.397  2.0255  2.3124 -1.7996
 3357SOL     OW10816   3.150   0.951   5.970  0.3890 -0.2685 -0.1855
 3357SOL    HW110817   3.134   0.861   5.999 -2.1957 -0.6296 -2.3103
 3357SOL    HW210818   3.087   1.004   6.019  0.6323  0.1204 -0.2859
 3358SOL     OW10819   4.608   6.028   6.142 -0.0066 -0.2019 -0.1235
 3358SOL    HW110820   4.677   6.094   6.132  0.6080 -1.0254 -1.7252
 3358SOL    HW210821   4.649   5.958   6.194 -0.3609  0.2521  0.7860
 3359SOL     OW10822   2.745   0.208   2.845  0.0631 -0.4059  0.3410
 3359SOL    HW110823   2.742   0.234   2.937 -1.2408 -0.2338  0.2686
 3359SOL    HW210824   2.833   0.172   2.833  0.5749  0.4285  1.4120
 3360SOL     OW10825   5.512   3.274   1.339  0.6724  0.4442 -0.7887
 3360SOL    HW110826   5.554   3.241   1.419  1.2389 -0.0564 -1.2780
 3360SOL    HW210827   5.516   3.369   1.347 -0.7505  0.4310  0.5330
 3361SOL     OW10828   5.312   4.808   2.684 -0.1519 -0.2060  0.0778
 3361SOL    HW110829   5.268   4.729   2.717  0.3341  0.0764  1.4651
 3361SOL    HW210830   5.312   4.868   2.759  3.5620 -0.5885  0.5682
 3362SOL     OW10831   3.826   1.100   2.186  0.4307 -0.2477 -0.2698
 3362SOL    HW110832   3.847   1.192   2.200  0.3260 -0.3301  0.4409
 3362SOL    HW210833   3.782   1.099   2.101  2.0541  0.0968 -1.1618
 3363SOL     OW10834   0.190   0.362   5.806 -0.2616  0.0303 -0.1834
 3363SOL    HW110835   0.133   0.334   5.877 -3.6952  0.8681 -2.3668
 3363SOL    HW210836   0.204   0.284   5.753  0.2387 -0.0517  0.0577
 3364SOL     OW10837   3.879   1.355   2.208  0.2365  0.5217 -0.1515
 3364SOL    HW110838   3.823   1.429   2.184 -0.6409 -0.4868 -1.3470
 3364SOL    HW210839   3.958   1.366   2.155 -0.2811  0.1237 -1.0258
 3365SOL     OW10840   1.477   1.801   5.087  0.5361  0.6442  0.0987
 3365SOL    HW110841   1.548   1.859   5.061 -1.0608  2.4523 -0.4850
 3365SOL    HW210842   1.455   1.828   5.176  0.1026  0.6388 -0.0009
 3366SOL     OW10843   4.156   4.685   2.085  0.2231 -0.1728  0.4185
 3366SOL    HW110844   4.118   4.614   2.034  0.3271  0.4429 -0.5319
 3366SOL    HW210845   4.131   4.665   2.176  1.4392 -2.1896  0.3710
 3367SOL     OW10846   5.408   5.424   6.137 -0.6036 -0.4671  0.3121
 3367SOL    HW110847   5.348   5.362   6.179 -1.3811 -1.2193 -1.7343
 3367SOL    HW210848   5.352   5.473   6.077  0.2386  1.3851  0.9812
 3368SOL     OW10849   1.037   2.345   2.982  0.2940 -0.0085 -0.2091
 3368SOL    HW110850   1.007   2.401   3.053 -2.9129 -1.8568  0.0871
 3368SOL    HW210851   0.975   2.361   2.911  1.2821 -0.8207 -1.2969
 3369SOL     OW10852   5.151   0.041   4.174  0.0529 -0.1975  0.2328
 3369SOL    HW110853   5.158   0.086   4.258  0.8369 -1.9054  1.1287
 3369SOL    HW210854   5.076  -0.018   4.185  1.2327 -1.7183  0.4111
 3370SOL     OW10855   0.968   0.389   4.121  0.2476  0.2611 -0.2335
 3370SOL    HW110856   1.064   0.395   4.122  0.4973 -2.2242 -2.0909
 3370SOL    HW210857   0.948   0.309   4.170 -0.9211  0.7207  0.0798
 3371SOL     OW10858   5.177   3.809   5.709 -0.1984  0.5074  0.7980
 3371SOL    HW110859   5.088   3.831   5.683 -0.0110  0.0615 -0.2342
 3371SOL    HW210860   5.233   3.865   5.655  0.1778  0.1103  0.7708
 3372SOL     OW10861   0.855   3.207   0.901  0.0371 -0.6479  0.2519
 3372SOL    HW110862   0.848   3.162   0.985  2.5503 -1.1584  0.2724
 3372SOL    HW210863   0.949   3.217   0.887 -0.3526  1.4254 -1.4705
 3373SOL     OW10864   0.390   2.046   5.317  0.0015 -0.2220  0.8499
 3373SOL    HW110865   0.377   2.121   5.259 -0.6538 -1.1756 -0.2898
 3373SOL    HW210866   0.479   2.014   5.296  0.1543  0.0414  1.0993
 3374SOL     OW10867   1.744   6.227   4.458 -0.0614 -0.1377 -0.2124
 3374SOL    HW110868   1.818   6.170   4.481 -0.3751 -0.5143 -0.1205
 3374SOL    HW210869   1.694   6.176   4.393 -0.8867 -0.3921  0.6025
 3375SOL     OW10870   5.374   2.678   5.525 -0.3523 -0.3770 -0.0732
 3375SOL    HW110871   5.390   2.605   5.585  1.7411 -0.8753 -1.1380
 3375SOL    HW210872   5.338   2.637   5.446  0.1528 -0.2044 -0.4053
 3376SOL     OW10873   0.577   5.499   3.569 -0.3625  0.2123  0.3209
 3376SOL    HW110874   0.664   5.537   3.557 -0.2942  0.0960  0.4439
 3376SOL    HW210875   0.517   5.569   3.546 -0.2870 -0.7897 -3.6077
 3377SOL     OW10876   0.635   1.339   3.546 -0.2541 -0.1645 -0.5072
 3377SOL    HW110877   0.689   1.334   3.625 -0.9513 -2.7152 -0.1036
 3377SOL    HW210878   0.549   1.364   3.578 -0.3556 -0.4547 -0.5504
 3378SOL     OW10879   6.262   1.519   4.260 -0.1471  0.1145 -0.2348
 3378SOL    HW110880   6.271   1.429   4.229 -0.4848 -0.5273  1.4003
 3378SOL    HW210881   6.352   1.553   4.261 -0.0522 -0.0941 -1.1489
 3379SOL     OW10882   2.279   4.980   4.272 -0.9070  0.0555  0.1774
 3379SOL    HW110883   2.319   4.990   4.358 -1.3272 -1.5126  0.5901
 3379SOL    HW210884   2.353   4.978   4.211 -0.5467  0.1915  0.6044
 3380SOL     OW10885   4.211   3.392   2.900  0.3540 -0.2480 -0.0293
 3380SOL    HW110886   4.197   3.450   2.826 -1.3464 -0.0775  0.3839
 3380SOL    HW210887   4.300   3.359   2.889  1.1679  1.9854 -0.5678
 3381SOL     OW10888   5.705   4.564   0.246 -0.2667 -0.2408 -0.3159
 3381SOL    HW110889   5.777   4.622   0.218  0.4279 -1.6276 -1.5324
 3381SOL    HW210890   5.701   4.576   0.341 -0.3365  1.9908 -0.5463
 3382SOL     OW10891   2.746   2.335   5.107  0.1405 -0.1878  0.0006
 3382SOL    HW110892   2.774   2.303   5.192 -0.3203 -0.8909 -0.1096
 3382SOL    HW210893   2.747   2.431   5.116 -1.9665 -0.2444  1.4870
 3383SOL     OW10894   4.351   2.539   0.728  0.1933  0.1470 -0.1811
 3383SOL    HW110895   4.432   2.575   0.763 -0.0105 -0.0816  0.5651
 3383SOL    HW210896   4.372   2.511   0.639  0.9527  0.0022  0.0394
 3384SOL     OW10897   2.214   1.306   3.890 -0.3079 -0.3379 -0.0026
 3384SOL    HW110898   2.146   1.348   3.837 -0.8586 -0.3729  0.6619
 3384SOL    HW210899   2.269   1.379   3.920  1.2222 -0.4676 -2.2157
 3385SOL     OW10900   0.462   5.476   1.098 -0.1442  0.5919  0.0688
 3385SOL    HW110901   0.371   5.487   1.123 -0.4293  0.0111 -0.6944
 3385SOL    HW210902   0.498   5.418   1.166  0.1307  2.1941  1.3547
 3386SOL     OW10903   1.758   6.237   2.716 -0.1354 -0.7708  0.1653
 3386SOL    HW110904   1.726   6.193   2.637 -0.2220 -0.0446 -0.2103
 3386SOL    HW210905   1.769   6.167   2.780 -0.6951 -1.2759 -0.2871
 3387SOL     OW10906   5.124   4.362   1.531  0.0753  0.4067 -0.5564
 3387SOL    HW110907   5.218   4.345   1.542  0.1423  1.3560  0.6419
 3387SOL    HW210908   5.106   4.433   1.593 -1.2731  0.8010 -1.3668
 3388SOL     OW10909   1.586   2.403   5.134 -0.4124  0.3300  0.4862
 3388SOL    HW110910   1.592   2.479   5.192 -0.2928  1.0972 -0.4881
 3388SOL    HW210911   1.504   2.361   5.158 -0.5102  0.8005  1.0064
 3389SOL     OW10912   2.097   1.579   5.609 -0.1875 -0.1420 -0.4124
 3389SOL    HW110913   2.079   1.672   5.601 -0.1819 -0.1378 -0.3776
 3389SOL    HW210914   2.187   1.568   5.579 -0.3239 -0.1968 -0.8062
 3390SOL     OW10915   5.544   2.073   4.468 -0.0234 -0.7555 -0.0620
 3390SOL    HW110916   5.611   2.075   4.537 -0.3444  2.2312  0.2861
 3390SOL    HW210917   5.523   2.165   4.452 -1.7893 -1.4749 -2.4097
 3391SOL     OW10918   1.584   4.570   5.345  0.3515  0.0054 -0.1515
 3391SOL    HW110919   1.590   4.476   5.363  1.6736  0.3371  1.4334
 3391SOL    HW210920   1.506   4.579   5.291 -0.8668 -1.8216  1.1582
 3392SOL     OW10921   4.816   4.365   1.499  0.2220 -0.7663  0.3693
 3392SOL    HW110922   4.912   4.365   1.505  0.4225  1.5156 -1.2344
 3392SOL    HW210923   4.792   4.457   1.507 -1.6719 -1.0834 -0.9213
 3393SOL     OW10924   1.595   1.720   2.049  0.3654 -0.3216 -0.4767
 3393SOL    HW110925   1.649   1.642   2.066  0.7133 -0.2608 -1.2678
 3393SOL    HW210926   1.518   1.708   2.106  1.5121 -0.0506  1.2208
 3394SOL     OW10927   3.045   3.138   1.095  0.3219 -0.3258  0.0388
 3394SOL    HW110928   3.036   3.197   1.020 -1.3677  1.7632  1.7625
 3394SOL    HW210929   3.139   3.139   1.115  0.4024  1.4483 -0.2574
 3395SOL     OW10930   1.021   1.909   5.996 -0.0797  0.0428  0.0356
 3395SOL    HW110931   1.068   1.826   5.989 -0.5467 -0.3232  0.9784
 3395SOL    HW210932   1.067   1.968   5.937  1.4545 -0.3515  0.7687
 3396SOL     OW10933   3.156   2.461   2.500 -0.1251  0.1344 -0.1883
 3396SOL    HW110934   3.087   2.443   2.436  0.0420 -0.1172 -0.3007
 3396SOL    HW210935   3.117   2.523   2.562 -1.1858 -1.6066  0.9832
 3397SOL     OW10936   5.534   0.387   0.998  0.8665 -0.1854 -0.4499
 3397SOL    HW110937   5.459   0.328   0.991 -0.1393  1.1150 -1.0484
 3397SOL    HW210938   5.496   0.474   0.992  2.2673  0.5631  0.8187
 3398SOL     OW10939   0.750   6.168   4.960  0.7281  0.1539  0.1464
 3398SOL    HW110940   0.778   6.152   4.870  4.0127  0.3938  0.9867
 3398SOL    HW210941   0.807   6.240   4.990 -0.5795  0.3910  2.2847
 3399SOL     OW10942   4.469   4.108   0.638  0.1133 -0.6655  0.1688
 3399SOL    HW110943   4.468   4.193   0.682 -0.5621  1.5069 -3.5487
 3399SOL    HW210944   4.382   4.101   0.598  0.0557 -3.2961  0.5901
 3400SOL     OW10945   4.846   4.958   3.641 -0.4118 -0.2560 -0.1488
 3400SOL    HW110946   4.927   4.929   3.683 -0.5239  0.9654  0.9615
 3400SOL    HW210947   4.837   5.050   3.666 -2.0978 -0.3370 -0.3081
 3401SOL     OW10948   5.027   1.921   5.711 -0.0374 -0.4752 -0.4050
 3401SOL    HW110949   4.938   1.925   5.747 -0.0117 -1.3490 -0.2153
 3401SOL    HW210950   5.031   1.993   5.649 -0.9351 -0.5235 -0.5356
 3402SOL     OW10951   0.056   0.550   1.038 -0.2644  0.3334  0.3596
 3402SOL    HW110952   0.109   0.471   1.053  0.1593  0.8225  1.5034
 3402SOL    HW210953  -0.028   0.516   1.006  0.1786 -0.5330  0.0620
 3403SOL     OW10954   4.716   6.038   3.164  0.4111 -0.0440 -0.4069
 3403SOL    HW110955   4.788   6.059   3.223  0.9449 -2.7164  0.0483
 3403SOL    HW210956   4.758   6.019   3.080  0.0669 -0.1129 -0.5670
 3404SOL     OW10957   5.657   3.094   1.834 -0.1291 -0.1989 -0.1499
 3404SOL    HW110958   5.727   3.046   1.880 -3.0862 -3.4158  1.5490
 3404SOL    HW210959   5.634   3.165   1.894  0.8540  0.1123 -0.1317
 3405SOL     OW10960   5.358   0.916   4.469  0.4869  0.3162 -0.0404
 3405SOL    HW110961   5.313   0.851   4.415 -0.2850 -0.1681  1.1342
 3405SOL    HW210962   5.433   0.870   4.505  0.9946  0.6351 -0.6794
 3406SOL     OW10963   1.454   3.090   3.645 -0.0533  0.2107  0.2743
 3406SOL    HW110964   1.460   3.048   3.731  0.3728 -1.5916 -0.5892
 3406SOL    HW210965   1.538   3.072   3.604 -0.6284  0.1464 -0.9063
 3407SOL     OW10966   1.360   4.623   2.979  0.5105 -0.5912  0.1599
 3407SOL    HW110967   1.282   4.586   3.022 -0.2644 -0.5687 -1.1871
 3407SOL    HW210968   1.339   4.622   2.886  1.1146  1.7972 -0.0528
 3408SOL     OW10969   4.099   0.665   3.286  0.1617 -0.1367  0.2763
 3408SOL    HW110970   4.046   0.674   3.206 -1.4928  3.1249  1.5436
 3408SOL    HW210971   4.186   0.696   3.260 -0.3424  0.8444 -0.3517
 3409SOL     OW10972   3.214   4.679   3.323 -0.3611 -0.2244  0.2039
 3409SOL    HW110973   3.267   4.612   3.280 -0.6938 -0.0856 -0.4399
 3409SOL    HW210974   3.149   4.629   3.374 -0.8589 -0.4029 -0.5860
 3410SOL     OW10975   4.996   5.605   2.574 -0.0614  0.5574 -0.5674
 3410SOL    HW110976   5.043   5.679   2.613 -0.0980  0.1707  0.2344
 3410SOL    HW210977   4.963   5.556   2.649  1.1146 -1.0168 -1.0152
 3411SOL     OW10978   3.828   5.357   5.354 -0.3841 -0.3968 -0.1403
 3411SOL    HW110979   3.880   5.423   5.309 -0.4050  0.1113  0.5630
 3411SOL    HW210980   3.763   5.407   5.403 -1.3935 -1.0034 -0.8180
 3412SOL     OW10981   3.004   1.802   4.267 -0.4972 -0.3195  0.1661
 3412SOL    HW110982   3.006   1.713   4.233  0.0761  0.6345 -2.4821
 3412SOL    HW210983   3.095   1.831   4.267 -0.6830  0.3166  0.9126
 3413SOL     OW10984   5.667   0.986   2.942 -0.5541  0.6094  0.1881
 3413SOL    HW110985   5.660   0.894   2.968 -0.1685  0.8737  1.2960
 3413SOL    HW210986   5.622   1.034   3.012 -0.4138  1.2919 -0.1838
 3414SOL     OW10987   2.286   5.949   3.852 -0.3488 -0.5930 -0.1539
 3414SOL    HW110988   2.269   5.858   3.826  0.5205 -0.8242  0.0761
 3414SOL    HW210989   2.206   5.995   3.827 -0.6520 -1.3461 -0.6303
 3415SOL     OW10990   3.005   3.317   2.830 -0.1198  0.2377 -0.5793
 3415SOL    HW110991   3.042   3.256   2.767  0.3725 -0.7365  0.6154
 3415SOL    HW210992   2.916   3.334   2.798  0.8881  1.7750 -2.8952
 3416SOL     OW10993   3.688   3.390   4.728  0.3699  0.6633  0.3262
 3416SOL    HW110994   3.776   3.415   4.704  0.1212  0.2525 -1.0966
 3416SOL    HW210995   3.648   3.469   4.764  1.0492  1.0606  0.2012
 3417SOL     OW10996   5.873   5.429   3.249 -0.2617 -0.2936 -0.0754
 3417SOL    HW110997   5.867   5.373   3.172 -0.6863 -1.6315  0.8942
 3417SOL    HW210998   5.783   5.444   3.276 -0.1169  0.1094  0.1954
 3418SOL     OW10999   5.777   4.596   5.187 -0.2704  0.4075 -0.3468
 3418SOL    HW111000   5.862   4.572   5.224 -0.4324  0.1050 -0.1675
 3418SOL    HW211001   5.797   4.627   5.099  0.0414  0.4722 -0.2550
 3419SOL     OW11002   1.217   4.706   3.848  0.7208  0.3302  0.7965
 3419SOL    HW111003   1.166   4.777   3.888  0.5537  0.6239  0.0759
 3419SOL    HW211004   1.153   4.636   3.836  0.2336  1.0398 -0.9894
 3420SOL     OW11005   1.671   1.646   5.428 -0.3985  0.0724  0.6330
 3420SOL    HW111006   1.743   1.661   5.365 -2.9552 -0.3737 -2.6943
 3420SOL    HW211007   1.713   1.650   5.514  3.5565 -0.0551 -1.0740
 3421SOL     OW11008   5.846   2.232   1.184  0.2165 -0.3930 -0.5650
 3421SOL    HW111009   5.888   2.319   1.184 -1.6532  0.5668 -0.0324
 3421SOL    HW211010   5.915   2.172   1.156  1.3926  1.3521 -1.5935
 3422SOL     OW11011   1.491   4.977   0.819 -0.4547  0.3043  0.7654
 3422SOL    HW111012   1.518   5.063   0.851  2.9855  0.6863 -2.3952
 3422SOL    HW211013   1.570   4.923   0.827 -1.9994 -2.0520  0.9803
 3423SOL     OW11014   4.772   0.202   1.394  0.0104  0.2497  0.5612
 3423SOL    HW111015   4.860   0.238   1.393 -0.4852  1.6422 -1.4981
 3423SOL    HW211016   4.719   0.269   1.349 -1.6905 -1.4025 -0.0139
 3424SOL     OW11017   1.404   6.108   3.408  0.0119  0.3161  0.3624
 3424SOL    HW111018   1.351   6.059   3.471 -1.7608  2.5111  0.6827
 3424SOL    HW211019   1.342   6.137   3.342  1.1456  1.4068 -0.2626
 3425SOL     OW11020   4.864   1.831   4.515  0.0897 -0.1328 -0.3695
 3425SOL    HW111021   4.898   1.865   4.432  1.2006  0.1173  0.1625
 3425SOL    HW211022   4.928   1.860   4.581 -1.5321  0.9610  0.8078
 3426SOL     OW11023   5.471   3.565   1.330  0.0676  0.4125  0.5639
 3426SOL    HW111024   5.537   3.559   1.261  0.0213  2.7576  0.2216
 3426SOL    HW211025   5.446   3.658   1.331 -2.0163 -0.0881  1.8132
 3427SOL     OW11026   2.708   4.605   2.731  0.0885  0.0024 -0.3094
 3427SOL    HW111027   2.791   4.647   2.752 -0.2342  0.1935  0.6099
 3427SOL    HW211028   2.732   4.532   2.673  0.8875  0.0911 -0.0968
 3428SOL     OW11029   1.047   0.246   0.837 -0.6797  0.1023  0.1579
 3428SOL    HW111030   0.984   0.318   0.841  1.0520  1.7606 -0.8397
 3428SOL    HW211031   1.091   0.248   0.922 -1.1476 -0.2824  0.4120
 3429SOL     OW11032   2.265   0.573   2.444  0.1350  0.2140 -0.0963
 3429SOL    HW111033   2.338   0.548   2.499 -1.8511 -1.3212  2.0041
 3429SOL    HW211034   2.254   0.500   2.383 -1.6775 -1.2155  1.8332
 3430SOL     OW11035   0.282   3.017   5.982 -0.4151  0.6086 -0.4139
 3430SOL    HW111036   0.361   3.068   5.998 -0.3379  0.0928  0.9680
 3430SOL    HW211037   0.286   2.945   6.045 -1.4370 -0.0618 -1.0749
 3431SOL     OW11038   5.570   3.347   1.939 -0.0954  0.2514  0.8706
 3431SOL    HW111039   5.650   3.394   1.917 -0.2933  0.1764 -0.0748
 3431SOL    HW211040   5.503   3.384   1.881  0.4439 -3.4896 -2.6354
 3432SOL     OW11041   2.313   0.361   0.497  0.2534  0.0448 -0.0567
 3432SOL    HW111042   2.383   0.333   0.439  0.0012 -0.4815 -0.1167
 3432SOL    HW211043   2.350   0.354   0.585  0.5734  0.6590 -0.1374
 3433SOL     OW11044   0.929   5.528   1.822  0.1324  0.0107  0.4715
 3433SOL    HW111045   0.963   5.548   1.735  0.1175  1.4946  0.7902
 3433SOL    HW211046   0.971   5.446   1.846 -1.8032 -1.8564 -1.9693
 3434SOL     OW11047   2.758   5.209   4.516  0.1582 -0.1565 -0.5038
 3434SOL    HW111048   2.850   5.184   4.502  0.4430 -0.3340  1.4231
 3434SOL    HW211049   2.763   5.279   4.582 -1.2071 -2.1844  1.9179
 3435SOL     OW11050   0.055   0.158   4.195  0.1483  0.3239  0.1969
 3435SOL    HW111051   0.077   0.182   4.285  1.2159  0.9794 -0.2224
 3435SOL    HW211052  -0.036   0.129   4.200  0.1069  0.6014  1.4429
 3436SOL     OW11053   4.625   3.166   2.409  0.0898 -0.2325  0.1399
 3436SOL    HW111054   4.585   3.253   2.406  0.2016 -0.1882 -0.0695
 3436SOL    HW211055   4.551   3.106   2.425  0.1448 -0.0048  1.4050
 3437SOL     OW11056   5.868   0.817   5.351  0.0287 -0.4831  0.3227
 3437SOL    HW111057   5.809   0.887   5.324  0.0319 -0.6687 -0.1740
 3437SOL    HW211058   5.838   0.793   5.439  0.5885  0.7484  0.8678
 3438SOL     OW11059   0.445   4.417   0.147 -0.7372  0.1836 -0.1106
 3438SOL    HW111060   0.352   4.399   0.143 -0.6796 -0.2131  0.2455
 3438SOL    HW211061   0.463   4.471   0.070 -1.3536  0.7028  0.1038
 3439SOL     OW11062   0.593   2.298   2.616 -0.3514 -0.4636  0.1871
 3439SOL    HW111063   0.677   2.326   2.578 -0.3544 -0.1456  0.4117
 3439SOL    HW211064   0.533   2.370   2.595 -0.0505  0.3327  1.9128
 3440SOL     OW11065   1.087   0.690   5.722  0.1380  0.1676  0.1376
 3440SOL    HW111066   0.997   0.717   5.705 -0.7662 -0.8376  2.8655
 3440SOL    HW211067   1.129   0.767   5.759  0.2653  0.4637 -0.6004
 3441SOL     OW11068   0.705   5.920   5.736  0.1657  0.1569  0.2264
 3441SOL    HW111069   0.640   5.919   5.807 -0.7505  1.3340 -0.5471
 3441SOL    HW211070   0.747   5.834   5.740 -1.3049 -0.5618  0.8849
 3442SOL     OW11071   3.920   5.479   1.122  0.0795  0.2056 -0.0304
 3442SOL    HW111072   3.868   5.486   1.042 -1.2438 -2.1966  0.5229
 3442SOL    HW211073   3.886   5.401   1.166  2.6635 -0.1878  1.4892
 3443SOL     OW11074   5.637   4.744   0.474 -0.0089 -0.6183  0.4546
 3443SOL    HW111075   5.555   4.765   0.429  0.9125 -0.6387 -1.2946
 3443SOL    HW211076   5.696   4.816   0.452 -0.0365  0.3630  3.1852
 3444SOL     OW11077   0.967   2.645   1.621  0.6264  0.4822  0.0803
 3444SOL    HW111078   0.974   2.707   1.694  0.8123  2.2669 -1.3746
 3444SOL    HW211079   1.030   2.576   1.642  0.7466  0.9949  1.5523
 3445SOL     OW11080   0.950   4.602   1.257 -0.4680  0.2005  0.7422
 3445SOL    HW111081   0.913   4.622   1.342 -0.8189  0.0965  0.6141
 3445SOL    HW211082   1.023   4.663   1.247 -0.2431  0.0146  1.2438
 3446SOL     OW11083   0.901   4.588   2.183 -0.5895 -0.4007  0.2305
 3446SOL    HW111084   0.982   4.551   2.220  0.4023 -0.0415 -1.4815
 3446SOL    HW211085   0.893   4.674   2.224 -0.6156 -0.8007  1.0853
 3447SOL     OW11086   0.624   0.419   2.401 -0.0559 -0.4047 -0.5447
 3447SOL    HW111087   0.677   0.353   2.446 -0.6806 -0.9399 -0.5857
 3447SOL    HW211088   0.591   0.476   2.471 -0.4596 -0.8252 -0.3875
 3448SOL     OW11089   2.797   4.651   3.950  0.4225 -0.6609 -0.1317
 3448SOL    HW111090   2.820   4.699   4.029  0.2030 -2.4988  1.1228
 3448SOL    HW211091   2.748   4.714   3.896  2.4991  1.3053  0.1338
 3449SOL     OW11092   1.952   4.508   3.527 -0.1473 -0.6902 -0.5744
 3449SOL    HW111093   1.871   4.548   3.493  0.0181  0.0632 -0.1101
 3449SOL    HW211094   1.936   4.414   3.522 -0.9324 -0.5555 -0.7852
 3450SOL     OW11095   2.535   0.047   5.930  0.1374  0.1690  0.3581
 3450SOL    HW111096   2.506  -0.038   5.961 -1.4015  0.6600  0.3549
 3450SOL    HW211097   2.630   0.047   5.943 -0.0363 -0.9546  1.8015
 3451SOL     OW11098   4.123   0.159   5.660  0.2607  0.2847  0.4224
 3451SOL    HW111099   4.126   0.225   5.729 -0.3088  0.4268  0.3125
 3451SOL    HW211100   4.215   0.143   5.638  0.3747  1.7470 -0.2361
 3452SOL     OW11101   1.175   1.463   4.811 -0.0385  0.1300 -0.3340
 3452SOL    HW111102   1.241   1.525   4.842  0.4720 -0.4466 -0.2306
 3452SOL    HW211103   1.112   1.458   4.883  0.2888  0.0065 -0.0522
 3453SOL     OW11104   2.286   3.712   1.614 -0.3302  0.0246 -0.0239
 3453SOL    HW111105   2.249   3.638   1.661  1.9320 -0.9763  0.2862
 3453SOL    HW211106   2.316   3.771   1.683 -0.9787  0.6788 -0.2766
 3454SOL     OW11107   3.637   5.668   1.280 -0.0705 -0.0873  0.7866
 3454SOL    HW111108   3.548   5.700   1.294 -0.3476 -1.1619  1.5118
 3454SOL    HW211109   3.629   5.601   1.212  0.3167  0.3644  0.2763
 3455SOL     OW11110   6.207   3.465   1.486  0.1323 -0.3518  0.1999
 3455SOL    HW111111   6.199   3.546   1.437 -1.6688 -0.1106  0.8060
 3455SOL    HW211112   6.290   3.472   1.532 -0.0476  1.2006  0.3288
 3456SOL     OW11113   2.003   3.432   1.611  0.1630 -0.1243 -0.2912
 3456SOL    HW111114   2.004   3.527   1.624  0.7953 -0.3399  1.5542
 3456SOL    HW211115   2.081   3.401   1.657  0.1665 -1.5158 -1.1828
 3457SOL     OW11116   2.394   3.180   0.316  0.4715 -0.2424  0.3639
 3457SOL    HW111117   2.408   3.140   0.230  0.9333  0.3332  0.1645
 3457SOL    HW211118   2.482   3.202   0.347  0.4127 -1.6082  1.5610
 3458SOL     OW11119   1.304   5.321   4.665  0.1669  0.5545  0.2565
 3458SOL    HW111120   1.329   5.325   4.573 -0.8619 -0.1708 -0.0841
 3458SOL    HW211121   1.209   5.332   4.664  0.3600  2.9415  1.4557
 3459SOL     OW11122   4.194   4.395   2.895 -0.0590 -0.2140 -0.0573
 3459SOL    HW111123   4.167   4.487   2.892  0.8783  0.0560 -2.0850
 3459SOL    HW211124   4.290   4.399   2.886 -0.1762 -1.4318 -2.4489
 3460SOL     OW11125   3.382   1.468   3.174 -0.0431 -0.5676 -0.2495
 3460SOL    HW111126   3.441   1.396   3.194  1.2366  1.0586  2.4233
 3460SOL    HW211127   3.439   1.541   3.149 -1.0254  0.4373  0.3123
 3461SOL     OW11128   4.184   2.490   5.441 -0.0321  0.2186  0.0506
 3461SOL    HW111129   4.202   2.555   5.510 -0.7753  0.4366  0.0418
 3461SOL    HW211130   4.139   2.540   5.373  0.7035 -0.0002 -0.6025
 3462SOL     OW11131   1.230   1.354   4.122 -0.4577  0.0023  0.5136
 3462SOL    HW111132   1.154   1.403   4.153 -2.0193 -0.0425 -2.8814
 3462SOL    HW211133   1.198   1.264   4.113  0.8351 -0.5978  1.5317
 3463SOL     OW11134   0.524   2.847   0.977 -0.3141 -0.3504 -0.0618
 3463SOL    HW111135   0.547   2.891   1.059 -1.3146 -2.4956  1.4764
 3463SOL    HW211136   0.559   2.904   0.908 -0.0039  1.8674  1.8114
 3464SOL     OW11137   0.616   6.197   2.906  0.3656 -0.2276  0.2794
 3464SOL    HW111138   0.671   6.161   2.976 -1.5507  0.5223  2.2812
 3464SOL    HW211139   0.638   6.290   2.904 -1.6688  0.3622  2.0458
 3465SOL     OW11140   0.380   3.866   3.580 -0.4715  0.0992 -0.1793
 3465SOL    HW111141   0.294   3.903   3.557 -1.1427 -0.9752  0.4895
 3465SOL    HW211142   0.442   3.935   3.560 -1.6566  1.5089  0.8040
 3466SOL     OW11143   1.627   2.599   0.279 -0.2798  0.1204 -0.4370
 3466SOL    HW111144   1.552   2.549   0.312  0.0958  0.4485  1.0248
 3466SOL    HW211145   1.590   2.679   0.244 -0.6818 -0.0580 -0.4236
 3467SOL     OW11146   4.155   2.260   3.177 -0.2252 -0.0379  0.6981
 3467SOL    HW111147   4.180   2.352   3.187 -0.8903  0.0275  1.9167
 3467SOL    HW211148   4.198   2.215   3.250 -1.9126 -0.2611  1.6042
 3468SOL     OW11149   4.382   5.515   6.231 -0.8418  0.0194  0.2186
 3468SOL    HW111150   4.350   5.523   6.141 -0.3482 -1.1757 -0.0820
 3468SOL    HW211151   4.337   5.585   6.279 -0.9226  0.8455 -1.0007
 3469SOL     OW11152   5.180   4.964   5.896 -0.0861  0.0609 -0.7724
 3469SOL    HW111153   5.190   4.927   5.983 -2.5731 -1.4260 -1.0290
 3469SOL    HW211154   5.243   4.917   5.842  1.6000  1.1184  0.1773
 3470SOL     OW11155   1.818   1.204   6.045  0.0554 -0.7892  0.4419
 3470SOL    HW111156   1.731   1.210   6.005  0.5826 -0.7029 -0.7402
 3470SOL    HW211157   1.801   1.181   6.136 -1.1282 -3.3340 -0.3284
 3471SOL     OW11158   5.463   3.435   3.683  0.3254 -0.1593 -0.0646
 3471SOL    HW111159   5.503   3.461   3.600  2.3088 -0.7217  0.6449
 3471SOL    HW211160   5.400   3.367   3.659 -1.0360  1.4666 -1.3478
 3472SOL     OW11161   4.750   3.644   6.108 -0.0065  0.1546 -0.1104
 3472SOL    HW111162   4.794   3.666   6.190  1.3392 -0.3513 -0.6635
 3472SOL    HW211163   4.763   3.721   6.052  0.1105  0.0333 -0.2508
 3473SOL     OW11164   2.561   3.939   2.145 -0.1565 -0.2946  0.5878
 3473SOL    HW111165   2.512   3.862   2.173 -0.5420 -0.3223 -0.1226
 3473SOL    HW211166   2.519   4.012   2.190 -0.0670 -0.4535  0.9291
 3474SOL     OW11167   2.739   3.825   1.201  0.2085  0.5422 -0.5740
 3474SOL    HW111168   2.753   3.736   1.168  2.1416  0.7051 -0.3203
 3474SOL    HW211169   2.653   3.822   1.242 -0.9306 -0.4965 -2.8465
 3475SOL     OW11170   0.656   2.936   0.735  0.4932  0.5228  0.2252
 3475SOL    HW111171   0.743   2.976   0.735  0.4050  0.7382 -0.5027
 3475SOL    HW211172   0.617   2.964   0.652  0.6241 -1.5335 -0.5681
 3476SOL     OW11173   3.187   2.514   3.056 -0.1380  0.0743 -0.2048
 3476SOL    HW111174   3.121   2.520   2.988 -0.1947 -2.1779 -0.4197
 3476SOL    HW211175   3.163   2.582   3.119 -2.1259 -0.0824 -0.7321
 3477SOL     OW11176   2.467   1.942   0.304 -0.1946 -0.0554  0.0383
 3477SOL    HW111177   2.404   1.907   0.240 -0.1091 -0.2913  0.0805
 3477SOL    HW211178   2.443   2.034   0.314  0.3097  0.2059 -0.9634
 3478SOL     OW11179   0.708   5.296   1.892 -0.7912  0.5494 -0.2796
 3478SOL    HW111180   0.688   5.377   1.845 -2.8295 -0.7166 -1.7639
 3478SOL    HW211181   0.677   5.226   1.834 -0.0870 -1.2753  1.4187
 3479SOL     OW11182   0.305   3.911   6.068  0.5686  1.0251 -0.0987
 3479SOL    HW111183   0.354   3.832   6.047  0.2951  1.0800 -1.0177
 3479SOL    HW211184   0.239   3.883   6.131  1.3192  0.8090  0.6067
 3480SOL     OW11185   0.420   4.866   6.041  0.1479 -0.3058  0.9311
 3480SOL    HW111186   0.340   4.903   6.079  0.0062  2.0649 -1.3574
 3480SOL    HW211187   0.390   4.821   5.962  1.0375  0.3028  0.2372
 3481SOL     OW11188   4.235   3.127   4.531  0.2521  0.5629 -0.8489
 3481SOL    HW111189   4.318   3.154   4.569 -0.9327  1.6194  1.1590
 3481SOL    HW211190   4.199   3.206   4.493 -0.6506  0.5530 -0.0497
 3482SOL     OW11191   2.515   5.967   1.246  0.1771 -0.0003 -0.1068
 3482SOL    HW111192   2.493   5.938   1.335 -2.2462 -1.4420 -1.0571
 3482SOL    HW211193   2.454   6.039   1.229  0.1412 -0.1931 -0.8256
 3483SOL     OW11194   1.012   1.020   4.731 -0.1409 -0.7059 -0.6831
 3483SOL    HW111195   1.090   1.030   4.677 -0.9932 -2.0422 -2.2770
 3483SOL    HW211196   0.992   0.926   4.727 -1.4297 -0.5033  0.2541
 3484SOL     OW11197   2.989   0.008   2.688 -0.1766 -0.4260  0.0681
 3484SOL    HW111198   3.076  -0.005   2.724  0.4662 -0.9783 -1.5891
 3484SOL    HW211199   3.004   0.037   2.598 -1.6983 -0.6884 -0.3116
 3485SOL     OW11200   4.305   0.769   2.774  0.3961 -0.2443  0.0537
 3485SOL    HW111201   4.335   0.681   2.750  1.5605  0.3420 -0.7254
 3485SOL    HW211202   4.302   0.817   2.691  2.3905  1.2113  0.7471
 3486SOL     OW11203   3.028   0.103   1.344 -0.1558 -0.4637  0.0296
 3486SOL    HW111204   3.102   0.160   1.326 -0.9090  0.3558 -0.5972
 3486SOL    HW211205   3.006   0.119   1.435 -0.7139  0.7218 -0.2868
 3487SOL     OW11206   1.564   0.370   5.539  0.4093 -0.3431  0.1043
 3487SOL    HW111207   1.584   0.394   5.448  1.4945  0.8419  0.6131
 3487SOL    HW211208   1.638   0.317   5.567  0.9068  0.6573  0.7685
 3488SOL     OW11209   5.841   5.117   3.332 -0.4869  0.0098  0.5793
 3488SOL    HW111210   5.935   5.101   3.347 -0.5305  1.0334  2.1397
 3488SOL    HW211211   5.833   5.212   3.329 -1.4686 -0.0705  0.4305
 3489SOL     OW11212   3.465   4.860   2.473 -0.2282  0.7276 -0.7426
 3489SOL    HW111213   3.490   4.768   2.471 -1.1050  0.4923 -1.7583
 3489SOL    HW211214   3.433   4.879   2.385 -0.1123  1.9966 -0.5401
 3490SOL     OW11215   2.611   3.891   5.424  0.0643 -0.1945 -0.4311
 3490SOL    HW111216   2.652   3.947   5.490  1.0019 -0.4372 -0.8016
 3490SOL    HW211217   2.615   3.942   5.343 -0.5643 -0.1343 -0.4300
 3491SOL     OW11218   4.168   1.968   2.540 -0.0864  0.2594  0.7799
 3491SOL    HW111219   4.113   1.907   2.589  1.2343 -0.0511  1.9528
 3491SOL    HW211220   4.251   1.921   2.528 -0.4088  0.2337 -2.0196
 3492SOL     OW11221   3.214   6.092   4.998 -0.4840 -0.0330  0.0227
 3492SOL    HW111222   3.142   6.137   5.044  0.0344  0.6105  0.2239
 3492SOL    HW211223   3.293   6.137   5.029  0.0548 -1.1132  0.2433
 3493SOL     OW11224   4.192   6.073   3.848 -0.0627 -0.4828  0.1978
 3493SOL    HW111225   4.117   6.014   3.850  0.6395 -1.3942  0.4423
 3493SOL    HW211226   4.253   6.036   3.911  0.5583  0.3011  0.0739
 3494SOL     OW11227   4.260   6.064   5.574  0.5210 -1.1272 -0.4219
 3494SOL    HW111228   4.252   6.083   5.668  1.1099  0.0410 -0.5978
 3494SOL    HW211229   4.325   5.994   5.570  0.4109 -1.2640  0.0490
 3495SOL     OW11230   4.721   0.036   2.238 -0.6095  0.2286 -0.3674
 3495SOL    HW111231   4.783   0.036   2.311 -2.0703  0.8097  0.9517
 3495SOL    HW211232   4.702  -0.057   2.223  0.6597  0.0379 -0.8944
 3496SOL     OW11233   4.977   0.041   4.571  0.3864  0.0912 -0.4904
 3496SOL    HW111234   4.998   0.097   4.496 -0.5400  0.5895 -0.3914
 3496SOL    HW211235   5.034  -0.035   4.560  1.8911  1.1631 -0.4696
 3497SOL     OW11236   4.124   5.296   1.958  0.5535  0.3927  0.0658
 3497SOL    HW111237   4.070   5.350   2.016  1.1971 -0.5946  1.6395
 3497SOL    HW211238   4.070   5.219   1.940  1.1948 -0.3424  1.2022
 3498SOL     OW11239   2.754   1.614   1.052 -0.0383  0.4133 -0.4807
 3498SOL    HW111240   2.682   1.557   1.025  0.7450 -0.6010 -0.5152
 3498SOL    HW211241   2.722   1.659   1.129 -0.1860 -1.1681  0.4213
 3499SOL     OW11242   3.457   3.833   3.629 -1.0225 -0.3826 -0.0461
 3499SOL    HW111243   3.406   3.777   3.570 -1.8516 -0.6283  0.8710
 3499SOL    HW211244   3.403   3.911   3.640 -0.2206  0.2867 -0.7082
 3500SOL     OW11245   4.086   5.501   4.028 -0.4748  0.3035 -0.5906
 3500SOL    HW111246   4.057   5.589   4.055 -0.5292  0.0708  0.1309
 3500SOL    HW211247   4.181   5.504   4.036 -0.5850 -0.6210  2.5017
 3501SOL     OW11248   1.545   0.112   4.311  0.1398  0.1389  0.1816
 3501SOL    HW111249   1.472   0.152   4.358  0.4555  1.3394 -0.3225
 3501SOL    HW211250   1.511   0.099   4.222  0.4203  0.3822  0.0388
 3502SOL     OW11251   2.907   4.145   0.849 -0.1646 -0.1050  0.0306
 3502SOL    HW111252   2.892   4.229   0.891  0.2810 -0.6606  1.3537
 3502SOL    HW211253   3.002   4.136   0.845 -0.1757  0.1821 -1.6587
 3503SOL     OW11254   1.385   3.971   5.127  0.4791  0.0526 -0.0078
 3503SOL    HW111255   1.397   4.053   5.176  0.2846  0.7544 -1.1125
 3503SOL    HW211256   1.436   3.983   5.047  1.5827 -1.4745  0.4301
 3504SOL     OW11257   3.742   3.361   2.452  0.0251  0.3003 -0.1793
 3504SOL    HW111258   3.732   3.343   2.358  2.6273 -1.2393 -0.2394
 3504SOL    HW211259   3.765   3.454   2.455 -1.9898  0.8917 -0.8323
 3505SOL     OW11260   2.949   1.151   1.285  0.0055 -0.3536  0.2360
 3505SOL    HW111261   3.019   1.209   1.253  0.0551 -0.1578  0.6860
 3505SOL    HW211262   2.982   1.118   1.369  0.2144 -1.4677 -0.2656
 3506SOL     OW11263   4.029   2.102   4.592 -0.0326 -0.1533  0.5162
 3506SOL    HW111264   4.102   2.118   4.533  1.1447 -1.3281  1.5962
 3506SOL    HW211265   3.958   2.156   4.557  1.4802  1.4332 -0.2702
 3507SOL     OW11266   2.563   5.731   3.271 -0.3915 -0.2128 -0.5145
 3507SOL    HW111267   2.553   5.721   3.366 -0.0538 -0.6632 -0.5234
 3507SOL    HW211268   2.488   5.684   3.234 -1.2947  1.1396 -0.4406
 3508SOL     OW11269   5.411   0.656   5.635  0.0460 -0.2666  0.1640
 3508SOL    HW111270   5.449   0.616   5.556 -1.7624 -0.8155 -0.4875
 3508SOL    HW211271   5.317   0.656   5.618 -0.2579  1.2377  1.6003
 3509SOL     OW11272   5.347   4.467   6.014  1.0281 -0.1283  0.1600
 3509SOL    HW111273   5.308   4.410   6.080 -1.3225  0.4688 -0.6220
 3509SOL    HW211274   5.394   4.407   5.956 -1.9097 -1.4619 -0.9996
 3510SOL     OW11275   2.825   5.862   0.724 -0.2682  0.0795  0.1160
 3510SOL    HW111276   2.884   5.791   0.701 -0.2123  0.4413 -0.9304
 3510SOL    HW211277   2.750   5.852   0.665  0.6301  2.0128 -1.5074
 3511SOL     OW11278   0.072   4.891   1.559  0.1532  0.3323 -0.8810
 3511SOL    HW111279   0.136   4.857   1.496  1.8419  1.2799  0.2342
 3511SOL    HW211280   0.087   4.839   1.638 -0.2324  0.7910 -0.5016
 3512SOL     OW11281   5.540   0.744   3.761 -0.3574  0.5472 -0.2998
 3512SOL    HW111282   5.596   0.698   3.698  0.6411 -1.3294  1.8096
 3512SOL    HW211283   5.479   0.793   3.707  0.2481 -1.1762 -2.7376
 3513SOL     OW11284   6.290   0.247   5.998 -0.0106 -0.0000 -0.2652
 3513SOL    HW111285   6.299   0.309   6.071  1.9281  1.2368 -1.4697
 3513SOL    HW211286   6.205   0.267   5.960  0.0599  1.0967  0.1161
 3514SOL     OW11287   5.128   4.627   1.240  0.7242 -0.0657 -0.0002
 3514SOL    HW111288   5.087   4.593   1.319  1.5672 -0.1485  0.4109
 3514SOL    HW211289   5.066   4.693   1.207  0.0464 -0.5208  0.3308
 3515SOL     OW11290   0.014   1.241   3.073  0.4701  0.2244 -0.7939
 3515SOL    HW111291   0.101   1.276   3.054  0.7143 -0.4703 -0.9976
 3515SOL    HW211292  -0.018   1.293   3.146 -0.2393  2.5874 -2.6544
 3516SOL     OW11293   1.769   3.986   4.243  0.3975 -0.0524 -0.1983
 3516SOL    HW111294   1.684   3.991   4.288 -0.6337 -0.9506 -1.9439
 3516SOL    HW211295   1.825   3.938   4.304 -0.5186  0.0184  0.7357
 3517SOL     OW11296   5.063   1.471   1.158  0.6113 -0.2817 -0.0637
 3517SOL    HW111297   5.007   1.471   1.236 -0.4707 -0.4267 -0.8201
 3517SOL    HW211298   5.152   1.483   1.192  0.1233 -0.0385  1.1644
 3518SOL     OW11299   4.502   2.608   5.612 -0.0712  0.1738 -0.4651
 3518SOL    HW111300   4.466   2.695   5.601  0.0810  0.4443  0.9957
 3518SOL    HW211301   4.443   2.565   5.674 -1.1605 -1.4021 -2.4696
 3519SOL     OW11302   3.298   0.351   5.994  0.1376 -0.1985  0.5637
 3519SOL    HW111303   3.320   0.293   6.067 -0.4040 -0.9863  0.1093
 3519SOL    HW211304   3.227   0.406   6.028 -0.1061 -0.5567  0.6370
 3520SOL     OW11305   3.342   5.235   1.925  0.0405  0.0706 -0.1233
 3520SOL    HW111306   3.266   5.216   1.870  0.2467  1.8837 -1.1027
 3520SOL    HW211307   3.410   5.175   1.893 -0.0875  0.5292 -1.3234
 3521SOL     OW11308   0.611   2.928   1.238 -0.2326  0.1484  0.2691
 3521SOL    HW111309   0.641   2.837   1.234  0.7416  0.4540  0.3432
 3521SOL    HW211310   0.655   2.964   1.315 -0.8707  0.5972  0.4307
 3522SOL     OW11311   1.877   0.937   3.067  0.4424 -0.5552  0.0988
 3522SOL    HW111312   1.918   1.013   3.108  1.9279 -0.7024 -1.0284
 3522SOL    HW211313   1.786   0.939   3.096  0.9357  0.5457  1.6288
 3523SOL     OW11314   5.075   4.856   3.760  0.3976 -0.2863 -0.2792
 3523SOL    HW111315   5.164   4.891   3.772  0.5204 -0.9452  0.8564
 3523SOL    HW211316   5.088   4.771   3.717  0.3975 -0.8020  0.7126
 3524SOL     OW11317   2.794   5.868   2.447 -0.0203 -0.0225  0.0236
 3524SOL    HW111318   2.736   5.874   2.371 -1.3025  0.0725  0.9807
 3524SOL    HW211319   2.824   5.958   2.461 -2.7378  0.7094  1.8171
 3525SOL     OW11320   2.675   2.312   4.034  0.5105  0.1115  0.1954
 3525SOL    HW111321   2.592   2.274   4.062  0.9103 -0.5175  0.5583
 3525SOL    HW211322   2.678   2.296   3.940  0.6936 -0.8245  0.3460
 3526SOL     OW11323   2.259   5.653   1.525 -0.3773  0.2416 -0.1015
 3526SOL    HW111324   2.284   5.605   1.603 -1.3860  1.9693  1.3489
 3526SOL    HW211325   2.209   5.590   1.473 -0.5755 -0.6498  1.1373
 3527SOL     OW11326   1.646   4.947   4.332 -0.2241 -0.0290  0.2807
 3527SOL    HW111327   1.702   5.020   4.358 -1.9849  1.0359  1.2913
 3527SOL    HW211328   1.636   4.957   4.237  0.0894  0.6317  0.3118
 3528SOL     OW11329   0.658   4.908   6.133 -0.9990  0.2326  0.4734
 3528SOL    HW111330   0.571   4.887   6.097 -0.2691 -0.9205 -0.7311
 3528SOL    HW211331   0.713   4.835   6.106  0.7262  1.6933 -0.1692
 3529SOL     OW11332   4.732   0.723   0.062 -0.3750 -0.6955  0.1874
 3529SOL    HW111333   4.698   0.677   0.139 -1.5028 -2.2360 -1.1436
 3529SOL    HW211334   4.681   0.804   0.058  0.1342 -0.3026  1.3940
 3530SOL     OW11335   3.358   4.395   4.585 -0.1007  0.9237 -0.2673
 3530SOL    HW111336   3.446   4.412   4.619  0.5023 -0.1952 -1.1974
 3530SOL    HW211337   3.364   4.310   4.543 -1.3253  1.3560 -1.4180
 3531SOL     OW11338   1.808   0.258   4.355 -1.1420 -0.4425 -0.6915
 3531SOL    HW111339   1.762   0.191   4.304 -2.3168 -1.7733  1.9270
 3531SOL    HW211340   1.856   0.309   4.290  0.9205 -4.5857 -2.7609
 3532SOL     OW11341   0.834   1.262   0.690 -0.0724 -0.5780 -0.0902
 3532SOL    HW111342   0.806   1.186   0.639  0.5033 -0.9383  0.1138
 3532SOL    HW211343   0.833   1.231   0.781  0.3347 -0.3971 -0.0228
 3533SOL     OW11344   3.082   3.041   4.726  0.4030 -0.3886  0.2314
 3533SOL    HW111345   2.988   3.023   4.716 -0.3005  2.0568  1.4985
 3533SOL    HW211346   3.119   3.026   4.640 -1.4451 -0.0954 -0.6598
 3534SOL     OW11347   5.438   4.516   4.839 -0.0651  0.3031 -0.1814
 3534SOL    HW111348   5.433   4.421   4.853  0.6657  0.2989  0.1253
 3534SOL    HW211349   5.371   4.534   4.773 -0.1303 -0.4444 -0.3352
 3535SOL     OW11350   2.680   0.692   5.511  0.0876 -0.0150 -0.4399
 3535SOL    HW111351   2.606   0.729   5.463  1.6330  0.0483 -2.9959
 3535SOL    HW211352   2.695   0.607   5.470  2.9616  1.0417 -1.9066
 3536SOL     OW11353   6.070   0.267   4.521  0.3629  0.4995  0.1412
 3536SOL    HW111354   6.098   0.233   4.436  0.1289  0.7766 -0.0506
 3536SOL    HW211355   5.979   0.291   4.508 -0.9488 -3.0647  1.5453
 3537SOL     OW11356   4.637   4.563   4.703  0.9065 -0.5908  0.2223
 3537SOL    HW111357   4.713   4.505   4.705  1.0120 -0.6445 -2.1719
 3537SOL    HW211358   4.629   4.589   4.611 -1.6283 -0.1044  0.5041
 3538SOL     OW11359   2.096   4.178   2.339  0.1707  0.4827  0.2929
 3538SOL    HW111360   2.076   4.191   2.431 -0.7504 -2.3906  0.5792
 3538SOL    HW211361   2.123   4.087   2.332  2.5203  1.2191 -1.9548
 3539SOL     OW11362   3.434   3.569   3.169 -0.5899 -0.6155  0.1005
 3539SOL    HW111363   3.374   3.549   3.098 -0.5802  0.9382 -0.3812
 3539SOL    HW211364   3.456   3.484   3.207 -0.1132 -1.5418 -2.1365
 3540SOL     OW11365   3.995   1.529   1.581 -0.5083  0.7002  0.0713
 3540SOL    HW111366   3.988   1.437   1.608  0.8628  0.4896 -0.1883
 3540SOL    HW211367   3.927   1.574   1.630 -0.1255 -0.1900  1.4656
 3541SOL     OW11368   1.596   3.686   4.184 -0.2354 -0.2410  0.1139
 3541SOL    HW111369   1.627   3.609   4.136  0.3888 -0.1385  0.3447
 3541SOL    HW211370   1.512   3.707   4.144  0.2162 -0.2329 -0.8480
 3542SOL     OW11371   1.581   5.828   3.509 -0.1738 -0.1124 -0.2457
 3542SOL    HW111372   1.520   5.859   3.576 -0.6636 -0.7587 -0.3860
 3542SOL    HW211373   1.654   5.889   3.514 -0.1585 -0.2052  0.9477
 3543SOL     OW11374   1.657   1.476   0.596 -0.0754 -0.3232  0.2367
 3543SOL    HW111375   1.736   1.424   0.609 -0.7893 -1.3770  0.4537
 3543SOL    HW211376   1.585   1.413   0.601 -0.9488  0.6417  0.2289
 3544SOL     OW11377   5.248   4.069   4.119  0.6127  0.3008 -0.0163
 3544SOL    HW111378   5.227   4.003   4.186 -0.2981  0.1764 -0.4073
 3544SOL    HW211379   5.343   4.070   4.116  0.6530 -0.8020  0.2112
 3545SOL     OW11380   0.965   4.634   2.526  0.0972  0.0883 -0.0173
 3545SOL    HW111381   0.972   4.546   2.488 -0.8168 -0.0522  0.1195
 3545SOL    HW211382   1.035   4.684   2.483  0.5466 -0.6644 -0.1933
 3546SOL     OW11383   0.280   2.717   5.520 -0.1790  0.5484  0.4323
 3546SOL    HW111384   0.325   2.681   5.596 -1.0766  0.6082  0.9981
 3546SOL    HW211385   0.325   2.800   5.502 -0.7600  1.1448  1.6686
 3547SOL     OW11386   3.596   2.646   5.402 -0.2442 -0.2124 -0.4463
 3547SOL    HW111387   3.620   2.717   5.342 -0.3780  1.0820  0.9912
 3547SOL    HW211388   3.679   2.621   5.443 -0.4358  0.2236  0.2166
 3548SOL     OW11389   0.524   2.356   0.769 -0.0900  0.1709  0.2487
 3548SOL    HW111390   0.603   2.316   0.733 -0.0782 -1.3285  1.8337
 3548SOL    HW211391   0.543   2.450   0.769  0.5226  0.1151 -2.0488
 3549SOL     OW11392   6.077   4.054   3.493 -0.0756 -0.3607  0.0579
 3549SOL    HW111393   6.067   4.059   3.398 -1.4733  0.2341  0.2153
 3549SOL    HW211394   6.095   4.144   3.520 -0.4808 -0.3918  0.4358
 3550SOL     OW11395   2.083   3.650   6.293  0.5789 -0.1767 -0.4755
 3550SOL    HW111396   2.163   3.597   6.290  1.5384  1.2793 -1.8510
 3550SOL    HW211397   2.070   3.679   6.203 -1.5010 -0.3274 -0.2675
 3551SOL     OW11398   0.172   6.188   5.431  0.1507  0.1890  0.2714
 3551SOL    HW111399   0.141   6.131   5.501 -0.1172  0.6772  0.5564
 3551SOL    HW211400   0.132   6.153   5.351 -1.8712  1.3028  0.7252
 3552SOL     OW11401   2.365   5.469   2.849 -0.4388 -0.1612  0.4184
 3552SOL    HW111402   2.346   5.390   2.901  1.4746  1.6641  4.2863
 3552SOL    HW211403   2.451   5.452   2.810  0.3952  0.2744  1.9997
 3553SOL     OW11404   4.466   2.700   3.314  0.1907  0.1675  0.4223
 3553SOL    HW111405   4.373   2.723   3.307  0.1352 -0.0135  0.5492
 3553SOL    HW211406   4.498   2.701   3.224 -0.0290 -0.1441  0.3378
 3554SOL     OW11407   1.225   6.087   2.623 -0.1733  0.2711 -0.0049
 3554SOL    HW111408   1.194   6.001   2.651  1.2312 -0.0217  0.7292
 3554SOL    HW211409   1.220   6.141   2.701 -0.3467  0.6557 -0.2790
 3555SOL     OW11410   3.111   1.363   3.139 -0.0563  0.1574  0.1885
 3555SOL    HW111411   3.202   1.393   3.132  0.5446 -1.0528  2.0931
 3555SOL    HW211412   3.118   1.268   3.148 -1.5626 -0.0102 -0.2098
 3556SOL     OW11413   0.239   5.269   0.348  0.0743 -0.5583  0.2185
 3556SOL    HW111414   0.321   5.285   0.302 -0.5523  1.6805 -0.2500
 3556SOL    HW211415   0.263   5.277   0.441  0.1307  2.0262  0.0631
 3557SOL     OW11416   2.479   3.956   2.782 -0.0915  0.7024  0.0764
 3557SOL    HW111417   2.493   3.928   2.873  0.7807  0.4563 -0.1309
 3557SOL    HW211418   2.384   3.958   2.773 -0.1922 -0.7841  0.5432
 3558SOL     OW11419   5.455   3.880   2.259  0.2266 -0.2947 -0.1632
 3558SOL    HW111420   5.505   3.843   2.331 -0.3688  1.0407  0.9762
 3558SOL    HW211421   5.383   3.927   2.301 -0.2761  0.3160 -1.6373
 3559SOL     OW11422   4.697   5.747   2.292 -0.3555  0.2702 -0.2430
 3559SOL    HW111423   4.625   5.691   2.264 -0.1957 -0.5647  0.9248
 3559SOL    HW211424   4.773   5.714   2.246 -0.5304  0.4993 -0.7002
 3560SOL     OW11425   6.177   1.807   1.324 -0.2014 -0.8154  0.2467
 3560SOL    HW111426   6.083   1.791   1.329 -0.3621 -0.2579 -0.6439
 3560SOL    HW211427   6.211   1.779   1.408 -1.6853  2.2847  2.0646
 3561SOL     OW11428   5.647   3.207   0.467 -0.4412  0.4707 -0.3305
 3561SOL    HW111429   5.679   3.287   0.426 -1.5641  1.4239  0.5603
 3561SOL    HW211430   5.680   3.211   0.557 -0.3219 -0.1726 -0.3437
 3562SOL     OW11431   1.951   5.417   2.814  0.0876  0.0138 -1.0680
 3562SOL    HW111432   1.985   5.464   2.891  1.3690  0.6760 -1.9898
 3562SOL    HW211433   1.997   5.333   2.816 -0.2322 -0.1555 -0.8518
 3563SOL     OW11434   0.819   4.049   1.060 -0.0215 -0.2863 -0.3278
 3563SOL    HW111435   0.760   4.052   1.135 -0.3580  1.7092 -0.6201
 3563SOL    HW211436   0.868   4.131   1.065  1.3263 -1.0078 -1.2087
 3564SOL     OW11437   5.480   4.606   3.819 -0.2306 -0.2242  0.4372
 3564SOL    HW111438   5.495   4.541   3.887  0.4844 -0.2294  0.2856
 3564SOL    HW211439   5.387   4.626   3.824  0.3042  2.3775  3.8101
 3565SOL     OW11440   4.105   5.110   0.966  0.0809 -0.3888  0.3299
 3565SOL    HW111441   4.155   5.049   0.912  0.7241  0.1269  0.3313
 3565SOL    HW211442   4.018   5.071   0.973  0.8804 -2.0670  1.5594
 3566SOL     OW11443   1.425   1.980   2.534 -0.1097  0.3436  0.1706
 3566SOL    HW111444   1.380   2.052   2.577  1.1662  1.0944  0.3030
 3566SOL    HW211445   1.472   1.935   2.605  0.1156  0.1541 -0.0961
 3567SOL     OW11446   1.486   5.880   4.435  0.2109  0.0574  0.1016
 3567SOL    HW111447   1.397   5.912   4.453  0.2414 -0.4294  1.2558
 3567SOL    HW211448   1.521   5.860   4.522  1.3656  0.0152 -0.3653
 3568SOL     OW11449   2.522   4.330   2.916  0.5052 -0.1398  0.1436
 3568SOL    HW111450   2.460   4.312   2.986  0.2736  0.1992  0.0276
 3568SOL    HW211451   2.491   4.412   2.876  1.0349  0.0447  0.0991
 3569SOL     OW11452   5.095   1.011   4.093 -0.5943  0.5582  0.5159
 3569SOL    HW111453   5.054   1.097   4.081 -1.6379  0.3040  1.9197
 3569SOL    HW211454   5.188   1.030   4.101 -0.5824  1.3378 -1.0616
 3570SOL     OW11455   1.695   1.056   0.846  0.1816 -0.0047  0.2189
 3570SOL    HW111456   1.730   1.037   0.759 -1.4778 -0.9669 -0.2957
 3570SOL    HW211457   1.751   1.006   0.905  2.0051  1.5063 -0.1273
 3571SOL     OW11458   6.076   0.526   3.612  0.2614 -0.7141 -0.0737
 3571SOL    HW111459   6.058   0.520   3.518  1.0450 -0.5590 -0.2356
 3571SOL    HW211460   6.052   0.440   3.646 -0.4403 -0.6324 -0.3399
 3572SOL     OW11461   3.488   1.890   1.076 -0.1398  0.1490 -0.4861
 3572SOL    HW111462   3.447   1.975   1.092  1.6296  0.7670  1.1237
 3572SOL    HW211463   3.532   1.900   0.991  2.6217  2.0231  1.0024
 3573SOL     OW11464   3.992   5.394   6.070 -0.2968 -0.2657 -0.0676
 3573SOL    HW111465   4.024   5.343   6.145 -0.7906 -0.0314  0.3107
 3573SOL    HW211466   3.923   5.341   6.032 -0.6777  0.0261  0.2071
 3574SOL     OW11467   4.987   1.705   0.712  0.5746  1.3079 -0.3890
 3574SOL    HW111468   5.005   1.641   0.780  2.1347 -1.4636 -3.1497
 3574SOL    HW211469   4.893   1.698   0.697  0.6945 -0.4439 -0.5970
 3575SOL     OW11470   1.943   3.476   1.187  0.4445 -0.1079  0.1888
 3575SOL    HW111471   1.921   3.535   1.115 -0.4124  1.3165  1.5320
 3575SOL    HW211472   2.014   3.520   1.233  1.6011 -1.4386 -0.2760
 3576SOL     OW11473   1.214   3.914   0.822  0.0186  0.2528  0.1999
 3576SOL    HW111474   1.133   3.863   0.822 -0.6562  1.2986  0.1807
 3576SOL    HW211475   1.186   4.003   0.802  1.0607  0.8200  1.1617
 3577SOL     OW11476   1.492   3.891   1.287 -0.0639  0.1043 -0.1085
 3577SOL    HW111477   1.534   3.970   1.252 -0.5444 -0.2564 -1.6001
 3577SOL    HW211478   1.398   3.911   1.284 -0.2018 -0.5926 -0.7250
 3578SOL     OW11479   1.149   3.038   2.622  0.1582  0.4330  0.3738
 3578SOL    HW111480   1.150   3.091   2.543 -1.3494  1.4120  0.9604
 3578SOL    HW211481   1.216   3.076   2.678 -0.7409  1.6243  0.6894
 3579SOL     OW11482   4.935   3.520   3.864 -0.1112  0.3624 -0.5201
 3579SOL    HW111483   4.941   3.585   3.935 -0.6994 -0.4789  0.3220
 3579SOL    HW211484   4.861   3.464   3.889  1.5845 -1.8436 -0.1998
 3580SOL     OW11485   2.825   0.535   1.690 -0.6203 -0.4688 -0.4727
 3580SOL    HW111486   2.914   0.501   1.699 -0.2550  0.7383  1.0125
 3580SOL    HW211487   2.768   0.466   1.723 -0.2526 -1.2502 -1.4399
 3581SOL     OW11488   4.777   3.003   2.922  0.1698  0.2364  0.2114
 3581SOL    HW111489   4.768   3.070   2.853 -0.7954 -1.2328 -1.1649
 3581SOL    HW211490   4.842   2.942   2.888 -0.6648 -0.7668  0.3662
 3582SOL     OW11491   6.133   0.569   4.640 -0.2712 -0.1317  0.1670
 3582SOL    HW111492   6.207   0.630   4.649 -1.5615  1.8980 -1.8512
 3582SOL    HW211493   6.094   0.565   4.727  0.0780  1.6801  0.4449
 3583SOL     OW11494   4.556   6.199   0.993 -0.8529 -0.0244  0.4338
 3583SOL    HW111495   4.537   6.202   1.087 -0.8456 -0.0367  0.4356
 3583SOL    HW211496   4.649   6.220   0.987 -0.6869 -0.7157  0.4820
 3584SOL     OW11497   2.944   2.940   2.810  0.2806 -0.2022  0.1573
 3584SOL    HW111498   2.986   3.009   2.758  0.2615 -0.7484 -0.6096
 3584SOL    HW211499   3.010   2.872   2.818  0.5844  0.2247  1.6211
 3585SOL     OW11500   3.983   4.911   3.949 -0.4881 -0.4974 -0.2738
 3585SOL    HW111501   3.982   4.858   4.028 -0.3164  1.6903  1.2665
 3585SOL    HW211502   3.935   4.858   3.884 -0.4167 -2.4426  1.1815
 3586SOL     OW11503   4.719   3.947   6.075  0.5244 -0.6769 -0.0183
 3586SOL    HW111504   4.741   4.000   5.998 -1.4964  3.5361  1.9258
 3586SOL    HW211505   4.798   3.948   6.129  1.5243 -2.5370 -1.3636
 3587SOL     OW11506   5.240   1.713   2.816  0.0738 -0.1467 -1.0716
 3587SOL    HW111507   5.331   1.710   2.848  0.2113  1.5754 -1.2224
 3587SOL    HW211508   5.233   1.638   2.757  0.7525 -1.5425  0.5295
 3588SOL     OW11509   2.897   2.785   1.566 -0.4322 -0.1883  0.2525
 3588SOL    HW111510   2.917   2.692   1.555 -0.0889 -0.1281  0.3774
 3588SOL    HW211511   2.980   2.830   1.552 -0.8296  0.2027 -1.0393
 3589SOL     OW11512   2.543   3.791   3.931  0.0129  0.0805  0.4959
 3589SOL    HW111513   2.558   3.878   3.967  0.6265  0.6206 -0.9667
 3589SOL    HW211514   2.566   3.800   3.838 -0.3698 -1.5216  0.2232
 3590SOL     OW11515   5.586   2.695   4.427  0.4531  0.3168  0.4405
 3590SOL    HW111516   5.677   2.678   4.404  0.8645  0.9511  1.5417
 3590SOL    HW211517   5.572   2.649   4.509 -1.2108 -2.4851 -1.2696
 3591SOL     OW11518   0.487   0.153   0.658  0.4443 -0.1725  0.9403
 3591SOL    HW111519   0.393   0.144   0.639  0.8211  2.1320 -3.3044
 3591SOL    HW211520   0.493   0.228   0.717 -0.3699  0.0788  0.7175
 3592SOL     OW11521   1.541   4.991   2.332  0.5780  0.6225 -0.0296
 3592SOL    HW111522   1.550   4.901   2.364  1.8687  1.9238  3.8134
 3592SOL    HW211523   1.631   5.020   2.315  0.3810  1.7733  0.7587
 3593SOL     OW11524   4.839   5.968   1.710  0.4130  0.6217 -0.3804
 3593SOL    HW111525   4.907   5.928   1.656 -0.0626  1.9711 -2.0431
 3593SOL    HW211526   4.808   5.896   1.765  2.7626 -0.1622  0.0643
 3594SOL     OW11527   3.804   2.593   4.121 -0.0658 -0.4239 -0.1671
 3594SOL    HW111528   3.895   2.595   4.093  0.0485 -1.1633  0.1417
 3594SOL    HW211529   3.767   2.675   4.088 -0.2534 -1.6958 -3.5134
 3595SOL     OW11530   5.119   0.305   4.662 -0.4860 -0.0967  0.2890
 3595SOL    HW111531   5.132   0.230   4.721 -2.1622 -0.8401 -0.2330
 3595SOL    HW211532   5.026   0.324   4.668 -0.7661 -0.3350 -2.2652
 3596SOL     OW11533   2.687   1.706   2.112 -0.1464 -0.0068  0.6803
 3596SOL    HW111534   2.657   1.790   2.144  0.9595 -0.0924  2.0401
 3596SOL    HW211535   2.638   1.641   2.162 -2.4896 -0.3018 -1.7437
 3597SOL     OW11536   0.413   0.185   6.096  0.7759 -0.1050 -0.6563
 3597SOL    HW111537   0.499   0.163   6.134  1.0644  0.2119 -1.1270
 3597SOL    HW211538   0.355   0.117   6.131  1.0087  0.2256  0.4396
 3598SOL     OW11539   4.401   2.968   0.741 -0.2841 -0.2058  0.1701
 3598SOL    HW111540   4.444   2.907   0.801 -0.5389 -0.9094 -0.3586
 3598SOL    HW211541   4.413   3.054   0.783  0.1255 -0.5996  0.8899
 3599SOL     OW11542   1.589   0.880   3.401  0.2134  0.4834  0.0960
 3599SOL    HW111543   1.517   0.938   3.427 -0.4279 -0.9206  1.6113
 3599SOL    HW211544   1.661   0.904   3.460 -0.2337 -0.5693  1.1235
 3600SOL     OW11545   4.690   4.605   1.512 -0.1199  0.0515  0.6291
 3600SOL    HW111546   4.634   4.677   1.539 -1.6034 -0.8731  0.1465
 3600SOL    HW211547   4.707   4.622   1.419 -2.0815 -1.1686 -0.0105
 3601SOL     OW11548   1.120   3.939   5.740  0.5411 -0.1484 -0.6063
 3601SOL    HW111549   1.140   3.954   5.833  2.1064 -1.8031 -0.6167
 3601SOL    HW211550   1.057   4.007   5.718  0.9830  0.9938  1.3796
 3602SOL     OW11551   5.122   1.471   0.372 -0.0664 -0.0367 -0.3481
 3602SOL    HW111552   5.093   1.556   0.404  0.0516 -0.5077  1.0895
 3602SOL    HW211553   5.167   1.432   0.447 -0.3982 -1.4921 -0.8829
 3603SOL     OW11554   4.469   5.073   1.484  0.3065  0.3313 -0.1445
 3603SOL    HW111555   4.388   5.023   1.489 -0.8326  2.0944 -0.0743
 3603SOL    HW211556   4.478   5.112   1.571  1.1992  0.2304 -0.1772
 3604SOL     OW11557   3.687   1.092   1.953  0.3597  0.4109  0.0258
 3604SOL    HW111558   3.605   1.136   1.976  0.3010 -0.1468  0.9110
 3604SOL    HW211559   3.661   1.027   1.886  0.4909  1.8500 -1.4875
 3605SOL     OW11560   5.629   6.050   3.244  0.0828  0.2981 -0.2307
 3605SOL    HW111561   5.652   6.142   3.251  0.6937  0.1262  0.1179
 3605SOL    HW211562   5.592   6.041   3.156 -0.4926  0.9784 -0.0710
 3606SOL     OW11563   1.948   0.474   4.261  0.0508  0.1429  0.0867
 3606SOL    HW111564   1.918   0.556   4.220 -0.1101  0.5554  1.0009
 3606SOL    HW211565   2.042   0.488   4.275 -0.3585  1.1440  2.3336
 3607SOL     OW11566   5.232   5.392   1.778 -0.3087 -0.1510  0.1354
 3607SOL    HW111567   5.165   5.326   1.794  1.3188 -1.6138  1.3644
 3607SOL    HW211568   5.300   5.373   1.843  1.7637  0.6017 -1.6721
 3608SOL     OW11569   2.104   5.592   2.628 -0.6182 -0.3755  1.2654
 3608SOL    HW111570   2.077   5.516   2.681 -0.7216 -0.0667  1.6636
 3608SOL    HW211571   2.137   5.655   2.693 -0.3715 -0.1509  0.9204
 3609SOL     OW11572   6.176   0.610   5.529 -0.5738  0.3318 -0.6293
 3609SOL    HW111573   6.207   0.672   5.463 -0.8225  0.6224 -0.4769
 3609SOL    HW211574   6.243   0.542   5.531 -0.5227  0.3626 -1.1233
 3610SOL     OW11575   3.310   1.545   0.597  0.4734 -0.0120 -0.4615
 3610SOL    HW111576   3.302   1.464   0.548  0.3964 -0.1104 -0.2868
 3610SOL    HW211577   3.229   1.592   0.579  0.9516  0.4912 -1.3935
 3611SOL     OW11578   4.072   0.651   4.681  0.3219 -0.0974 -0.7202
 3611SOL    HW111579   4.025   0.711   4.624 -0.1452 -0.1121 -0.3507
 3611SOL    HW211580   4.046   0.675   4.770 -2.0450 -2.5679 -0.6162
 3612SOL     OW11581   6.287   0.867   5.385  0.0557  0.1001  0.2690
 3612SOL    HW111582   6.223   0.880   5.314  0.0297  1.1792  0.4706
 3612SOL    HW211583   6.368   0.843   5.340 -0.2251 -0.2667 -0.0536
 3613SOL     OW11584   4.952   0.866   0.435 -0.2690  0.1782 -0.0931
 3613SOL    HW111585   4.900   0.927   0.382  0.3579 -1.0017 -2.1642
 3613SOL    HW211586   4.932   0.780   0.399  0.0898 -0.7123  1.7272
 3614SOL     OW11587   0.624   3.299   4.916 -0.9536 -0.2940 -0.6810
 3614SOL    HW111588   0.534   3.326   4.935 -0.2917  1.4556  0.2063
 3614SOL    HW211589   0.654   3.257   4.996 -0.1866  1.4697  0.0167
 3615SOL     OW11590   1.652   1.154   4.213 -0.9224  0.3123 -0.3825
 3615SOL    HW111591   1.585   1.148   4.281 -0.1432 -1.5168  0.2914
 3615SOL    HW211592   1.700   1.235   4.233 -1.0955  0.1137  0.8830
 3616SOL     OW11593   0.918   5.002   3.361 -0.4476 -0.0759  0.2153
 3616SOL    HW111594   0.846   5.013   3.299  0.3753  0.5638 -0.6673
 3616SOL    HW211595   0.959   4.919   3.337 -0.7702 -0.3409  0.5845
 3617SOL     OW11596   6.168   0.712   1.334 -0.3058  0.2018  0.4656
 3617SOL    HW111597   6.133   0.666   1.411 -0.1367 -0.2522  0.2733
 3617SOL    HW211598   6.092   0.726   1.278 -0.1571 -0.9826 -0.0550
 3618SOL     OW11599   5.113   4.991   4.850 -0.0837 -0.3646 -0.0287
 3618SOL    HW111600   5.115   5.053   4.923 -0.4469  0.8955 -1.0584
 3618SOL    HW211601   5.060   5.035   4.783 -2.2394 -2.6789 -0.0073
 3619SOL     OW11602   3.247   3.914   5.777 -0.2621  0.3021 -0.5454
 3619SOL    HW111603   3.268   4.007   5.764 -0.7336  0.1810 -2.4253
 3619SOL    HW211604   3.308   3.885   5.845  0.6618  1.7017 -0.7326
 3620SOL     OW11605   3.951   1.793   4.640 -0.2622 -0.4851  0.7205
 3620SOL    HW111606   4.036   1.796   4.596  0.3219  0.8059  1.8635
 3620SOL    HW211607   3.907   1.874   4.613 -0.9021 -0.8654  0.5959
 3621SOL     OW11608   0.193   2.426   1.313 -0.2484 -0.3153  0.3569
 3621SOL    HW111609   0.131   2.473   1.258 -0.6618 -0.9461  0.2794
 3621SOL    HW211610   0.194   2.475   1.396 -0.4428  0.0001  0.1706
 3622SOL     OW11611   0.852   1.081   0.922  0.3050  0.4327 -0.7155
 3622SOL    HW111612   0.879   0.997   0.884  0.1964  0.2516 -0.3967
 3622SOL    HW211613   0.775   1.060   0.975  0.6826  0.6107 -0.0855
 3623SOL     OW11614   5.895   1.539   4.286 -0.5451 -0.0727  0.3433
 3623SOL    HW111615   5.939   1.490   4.216 -1.7337  0.4953 -0.8414
 3623SOL    HW211616   5.876   1.474   4.353 -0.2307 -0.8252 -0.2884
 3624SOL     OW11617   1.455   4.235   2.665 -0.2750 -0.1290  0.1000
 3624SOL    HW111618   1.454   4.160   2.606 -0.1256  0.1996 -0.3284
 3624SOL    HW211619   1.496   4.305   2.614  0.8272 -0.1339  0.9539
 3625SOL     OW11620   3.033   0.645   3.529  0.0529 -0.0985 -0.5902
 3625SOL    HW111621   3.040   0.586   3.603  0.9423 -0.7755 -1.1847
 3625SOL    HW211622   2.977   0.716   3.559 -2.8584 -2.2733 -0.5272
 3626SOL     OW11623   4.613   3.283   1.761 -0.0360  0.2389 -0.5556
 3626SOL    HW111624   4.641   3.375   1.754 -0.9938  0.9439  2.9472
 3626SOL    HW211625   4.691   3.233   1.738  1.6846  2.0377  0.9911
 3627SOL     OW11626   1.597   3.536   0.669 -0.0415  0.1064 -0.1681
 3627SOL    HW111627   1.559   3.460   0.624 -0.0696 -0.0588  0.1355
 3627SOL    HW211628   1.568   3.528   0.760 -0.9130  1.0472 -0.3428
 3628SOL     OW11629   0.415   4.098   1.382  0.0964  0.1248  0.0432
 3628SOL    HW111630   0.429   4.018   1.433 -0.2306 -0.3501 -0.6071
 3628SOL    HW211631   0.320   4.108   1.379  0.1291  1.7037  1.9019
 3629SOL     OW11632   4.833   2.641   3.226  0.0074  0.3987 -0.1434
 3629SOL    HW111633   4.845   2.560   3.176  0.3471  1.0396 -1.1226
 3629SOL    HW211634   4.806   2.611   3.313  0.3377 -0.7729 -0.4232
 3630SOL     OW11635   1.407   1.090   3.425 -0.2740  0.2805  0.0108
 3630SOL    HW111636   1.393   1.053   3.338  0.0754  0.0169  0.0617
 3630SOL    HW211637   1.498   1.121   3.423  1.1263 -3.1792  1.4762
 3631SOL     OW11638   1.152   5.433   5.691 -0.1651  0.0951 -0.4771
 3631SOL    HW111639   1.230   5.378   5.694 -0.2321  0.0324  1.4335
 3631SOL    HW211640   1.167   5.491   5.616  0.5383 -1.5557 -1.6858
 3632SOL     OW11641   2.483   4.539   5.473  0.4235 -0.0491  0.1379
 3632SOL    HW111642   2.540   4.574   5.542  0.6600  0.6735 -0.4157
 3632SOL    HW211643   2.540   4.528   5.397 -0.1942  0.8031 -0.4640
 3633SOL     OW11644   2.700   1.895   3.079 -0.0529 -0.5708 -0.3263
 3633SOL    HW111645   2.773   1.834   3.072  0.3590 -0.0681 -0.4497
 3633SOL    HW211646   2.625   1.846   3.047 -0.1162 -1.6828  1.4066
 3634SOL     OW11647   1.850   3.854   5.861 -0.4524 -0.2721  0.2444
 3634SOL    HW111648   1.812   3.877   5.776  0.4111  1.0155  0.1753
 3634SOL    HW211649   1.807   3.912   5.923 -0.2244 -0.3777  0.5017
 3635SOL     OW11650   5.250   5.198   3.082 -0.3518 -0.0962 -0.2797
 3635SOL    HW111651   5.323   5.144   3.114 -0.3717  0.9255  1.6416
 3635SOL    HW211652   5.224   5.250   3.158 -1.6991  1.1097 -1.5125
 3636SOL     OW11653   6.057   1.478   4.862 -0.2222 -0.3838  0.0462
 3636SOL    HW111654   6.093   1.563   4.837 -1.4218  0.3235  0.5996
 3636SOL    HW211655   6.133   1.424   4.883  0.5282  0.9886  1.0084
 3637SOL     OW11656   1.014   0.726   0.600 -0.1021  0.0446 -0.2976
 3637SOL    HW111657   1.088   0.690   0.552 -0.1572  0.6510 -0.8449
 3637SOL    HW211658   0.939   0.712   0.543 -0.9676 -3.0970  1.3874
 3638SOL     OW11659   0.081   2.043   1.544  0.1819  0.2381  0.1802
 3638SOL    HW111660   0.084   1.988   1.466  1.2613  0.5032  0.0124
 3638SOL    HW211661   0.109   1.986   1.616  2.5016  0.8024 -0.1791
 3639SOL     OW11662   1.568   1.617   4.698  0.1454 -0.6298  0.7935
 3639SOL    HW111663   1.644   1.561   4.683  0.4458  0.0272 -0.2962
 3639SOL    HW211664   1.601   1.706   4.683 -1.0469 -0.3921 -0.7624
 3640SOL     OW11665   0.020   2.462   0.550  0.0825  0.1101 -0.3481
 3640SOL    HW111666  -0.003   2.468   0.642 -1.4070  0.5150 -0.7177
 3640SOL    HW211667  -0.001   2.548   0.514  0.4623 -0.0983 -1.1071
 3641SOL     OW11668   1.186   2.407   3.735 -0.3873  0.2898 -0.0185
 3641SOL    HW111669   1.216   2.317   3.747  0.6574  0.6830  0.5034
 3641SOL    HW211670   1.143   2.407   3.650  1.9462 -0.1310 -1.2661
 3642SOL     OW11671   0.974   3.862   1.222  0.0899  0.0137 -0.3183
 3642SOL    HW111672   0.920   3.845   1.145 -0.2861 -0.4450  0.0440
 3642SOL    HW211673   0.969   3.957   1.234 -0.9052 -0.0486 -0.1064
 3643SOL     OW11674   0.299   0.751   5.551  0.2132 -0.2026  0.4162
 3643SOL    HW111675   0.375   0.703   5.583 -0.1587 -0.6708  0.6027
 3643SOL    HW211676   0.296   0.731   5.457  1.2535  1.1042  0.0763
 3644SOL     OW11677   0.255   4.724   5.841 -0.1739 -0.5224 -0.0280
 3644SOL    HW111678   0.191   4.763   5.781 -0.8505 -0.5009  0.6878
 3644SOL    HW211679   0.291   4.649   5.793 -0.7046 -0.5080 -0.4540
 3645SOL     OW11680   5.269   5.571   5.980 -0.0538  0.1326  0.2850
 3645SOL    HW111681   5.242   5.657   6.011 -2.3285  0.0129 -1.1162
 3645SOL    HW211682   5.191   5.536   5.937  0.1328 -3.4457  2.4353
 3646SOL     OW11683   3.146   3.111   2.657  0.0630  0.5048 -0.1180
 3646SOL    HW111684   3.227   3.128   2.705  0.2759 -1.4742  0.3219
 3646SOL    HW211685   3.171   3.048   2.590 -0.9707  0.4252 -0.4383
 3647SOL     OW11686   3.379   2.324   5.890  0.2381  0.0461  0.0160
 3647SOL    HW111687   3.426   2.350   5.811  0.9712  0.0473  0.4411
 3647SOL    HW211688   3.335   2.242   5.866 -0.0445  0.3637 -0.5693
 3648SOL     OW11689   6.207   2.485   0.879  0.0382  0.3205  0.2821
 3648SOL    HW111690   6.297   2.482   0.913 -0.1142 -1.4965  0.6608
 3648SOL    HW211691   6.153   2.503   0.955  0.1510  3.6871 -0.2844
 3649SOL     OW11692   3.576   5.356   1.616 -0.0704  0.3628 -0.7128
 3649SOL    HW111693   3.643   5.376   1.551  0.0622 -0.9574 -1.0170
 3649SOL    HW211694   3.622   5.355   1.700  0.0720  0.4977 -0.7893
 3650SOL     OW11695   1.693   2.028   4.383 -0.3425  0.4566  0.0610
 3650SOL    HW111696   1.620   2.075   4.422  0.5792 -0.1088  2.6730
 3650SOL    HW211697   1.653   1.965   4.324 -1.8304  1.3300  0.0994
 3651SOL     OW11698   2.129   2.874   5.919 -0.0958 -0.1455  0.2721
 3651SOL    HW111699   2.090   2.850   5.835  0.1529 -0.3542  0.2174
 3651SOL    HW211700   2.130   2.793   5.969  0.7087 -0.2486  0.1015
 3652SOL     OW11701   0.411   0.311   5.080  0.8555 -0.3861 -0.0614
 3652SOL    HW111702   0.392   0.226   5.121  0.1924  0.7827  2.2288
 3652SOL    HW211703   0.463   0.357   5.146 -0.9968  1.9426 -0.1276
 3653SOL     OW11704   4.027   5.948   0.277 -0.2092  0.6643  0.4576
 3653SOL    HW111705   3.957   5.999   0.236 -0.2798 -1.1276 -1.7878
 3653SOL    HW211706   4.086   5.926   0.206  0.9016 -0.6778  1.7365
 3654SOL     OW11707   0.696   4.832   5.544 -0.5735 -0.6521  0.1631
 3654SOL    HW111708   0.647   4.913   5.560  0.9596  0.4937 -0.7022
 3654SOL    HW211709   0.766   4.857   5.484  0.3341 -2.4965  0.3682
 3655SOL     OW11710   0.847   5.721   5.513 -0.1757  0.0346  0.4089
 3655SOL    HW111711   0.938   5.690   5.519  0.1505  0.2825 -2.1750
 3655SOL    HW211712   0.854   5.816   5.526 -0.2169 -0.0691  1.2259
 3656SOL     OW11713   5.132   5.622   2.332  0.9118 -0.6288  0.2551
 3656SOL    HW111714   5.216   5.581   2.313  0.6580 -1.1891  0.3429
 3656SOL    HW211715   5.115   5.601   2.424  1.0938  0.2254  0.4920
 3657SOL     OW11716   5.189   3.397   0.661  0.2788  0.0752 -0.4873
 3657SOL    HW111717   5.181   3.359   0.573 -1.2320 -1.3393  0.2209
 3657SOL    HW211718   5.252   3.341   0.706  1.2189  0.9281 -0.7030
 3658SOL     OW11719   3.837   5.541   1.837 -0.0620  0.7376 -0.3023
 3658SOL    HW111720   3.887   5.571   1.761 -1.2490 -2.2937 -2.4821
 3658SOL    HW211721   3.745   5.555   1.812 -0.4768  0.7329  1.1056
 3659SOL     OW11722   4.246   1.326   2.586 -0.4283 -0.0841  0.6859
 3659SOL    HW111723   4.288   1.367   2.661 -0.2245  1.0994 -0.0510
 3659SOL    HW211724   4.189   1.258   2.624  0.1449  0.0705  1.8499
 3660SOL     OW11725   5.454   1.658   4.536 -0.4112  0.6685  0.5710
 3660SOL    HW111726   5.368   1.630   4.570 -1.8371  4.2416  0.3016
 3660SOL    HW211727   5.440   1.748   4.507  2.9869  0.7038 -1.4161
 3661SOL     OW11728   3.562   4.598   2.164  0.2849 -0.0062  0.0488
 3661SOL    HW111729   3.524   4.513   2.188  2.0552 -0.7036  0.5840
 3661SOL    HW211730   3.610   4.626   2.242 -0.0738  1.3933 -0.2025
 3662SOL     OW11731   2.478   4.945   5.011  0.1604 -0.0708  0.0479
 3662SOL    HW111732   2.531   5.001   4.954  0.5465  0.0089  0.4798
 3662SOL    HW211733   2.540   4.908   5.074 -0.1853 -0.5319  0.1257
 3663SOL     OW11734   6.196   1.993   3.699 -0.0223  0.2601 -0.0331
 3663SOL    HW111735   6.130   2.015   3.633  0.5025  0.8246 -0.3851
 3663SOL    HW211736   6.236   1.913   3.666 -0.4044  0.0211  0.0841
 3664SOL     OW11737   5.856   0.343   2.192  0.1522  0.8182  0.3284
 3664SOL    HW111738   5.823   0.390   2.269 -0.0354 -0.0273  0.7790
 3664SOL    HW211739   5.934   0.298   2.223 -0.1333  0.1742  0.1290
 3665SOL     OW11740   1.765   5.585   2.199  0.0752 -0.0916  0.3341
 3665SOL    HW111741   1.676   5.618   2.214  0.0439 -0.1929  0.3750
 3665SOL    HW211742   1.791   5.623   2.115  0.2121  0.3958  0.5915
 3666SOL     OW11743   3.855   1.537   1.232  0.1947  0.7621 -0.0253
 3666SOL    HW111744   3.787   1.500   1.288  1.1803 -0.3688  0.4936
 3666SOL    HW211745   3.813   1.550   1.147 -0.2950 -1.3835 -0.1656
 3667SOL     OW11746   0.579   4.464   2.969 -0.0261 -0.9958 -0.2735
 3667SOL    HW111747   0.497   4.502   2.938  0.4200  1.5059  1.3253
 3667SOL    HW211748   0.559   4.431   3.056  0.3572 -1.6540 -0.4263
 3668SOL     OW11749   1.723   1.947   3.028 -0.6814 -0.3129  0.6154
 3668SOL    HW111750   1.679   1.976   2.948  2.2438 -0.9804 -1.3884
 3668SOL    HW211751   1.736   2.027   3.079 -0.0962  0.6356 -0.9387
 3669SOL     OW11752   3.819   5.771   2.099  0.4822  0.3743  0.4109
 3669SOL    HW111753   3.750   5.731   2.154 -0.1253  0.8108 -0.0212
 3669SOL    HW211754   3.814   5.864   2.119 -2.1604  1.1447 -2.8735
 3670SOL     OW11755   3.988   5.781   3.294  0.0350 -0.2700 -0.4888
 3670SOL    HW111756   3.959   5.696   3.327 -0.4463 -0.3056 -0.9773
 3670SOL    HW211757   3.907   5.825   3.267  0.0196  1.1609  1.5768
 3671SOL     OW11758   2.869   1.428   4.893 -0.1253 -0.1318 -0.0999
 3671SOL    HW111759   2.941   1.416   4.956  0.2589 -0.5129 -0.5974
 3671SOL    HW211760   2.812   1.352   4.908 -0.2852  0.0251  0.1037
 3672SOL     OW11761   4.064   4.727   1.091 -0.5484  0.6966  0.7009
 3672SOL    HW111762   4.147   4.716   1.044 -0.7406  0.7807  0.3300
 3672SOL    HW211763   3.997   4.713   1.024 -0.8554 -0.3142  1.1996
 3673SOL     OW11764   0.601   3.016   3.401  0.3106  0.2742  0.1521
 3673SOL    HW111765   0.578   3.109   3.403 -0.3694  0.1406 -0.8934
 3673SOL    HW211766   0.661   3.005   3.475 -1.6420  1.0169  1.9787
 3674SOL     OW11767   4.315   0.406   0.473 -0.0199  0.3062  0.1345
 3674SOL    HW111768   4.230   0.450   0.480 -0.2183 -0.1107  0.3263
 3674SOL    HW211769   4.329   0.366   0.559  0.4536  0.5189  0.1637
 3675SOL     OW11770   0.355   2.474   5.416  0.3652  0.1560 -0.2026
 3675SOL    HW111771   0.344   2.569   5.416  0.1013  0.1295 -0.6803
 3675SOL    HW211772   0.349   2.449   5.508  0.3335  0.5890 -0.0856
 3676SOL     OW11773   0.873   4.090   3.368 -0.5369 -0.4864 -0.8590
 3676SOL    HW111774   0.941   4.132   3.420  1.4790 -1.5937 -2.4583
 3676SOL    HW211775   0.871   4.140   3.286 -1.1051 -0.9304 -1.1208
 3677SOL     OW11776   6.118   0.460   1.080  0.7357  0.0303 -0.1510
 3677SOL    HW111777   6.107   0.550   1.113 -1.4403 -0.4608  0.6710
 3677SOL    HW211778   6.061   0.456   1.003 -0.3519 -1.0245  0.6783
 3678SOL     OW11779   2.147   4.548   6.261  0.0127 -0.7436 -0.0539
 3678SOL    HW111780   2.061   4.579   6.234 -0.8234  0.5441  3.5562
 3678SOL    HW211781   2.129   4.484   6.329  1.8203  0.7292  1.9392
 3679SOL     OW11782   3.470   5.754   0.573  0.3580 -0.1580  0.1917
 3679SOL    HW111783   3.417   5.817   0.523 -0.0111  0.2565  1.0908
 3679SOL    HW211784   3.558   5.762   0.536  0.5999  1.7542  1.0551
 3680SOL     OW11785   5.983   0.112   1.737  0.4224  0.2460 -0.1808
 3680SOL    HW111786   5.942   0.070   1.813  0.9416  1.1595  0.6282
 3680SOL    HW211787   5.910   0.129   1.677 -0.0872  0.0533  0.3688
 3681SOL     OW11788   5.858   4.264   2.662 -0.5479  0.2515  0.1660
 3681SOL    HW111789   5.776   4.291   2.621  0.5575  0.9591 -1.7226
 3681SOL    HW211790   5.912   4.343   2.659 -0.4856  0.4421  3.3719
 3682SOL     OW11791   0.826   3.001   4.253 -0.3174  0.2592  0.2832
 3682SOL    HW111792   0.854   3.089   4.227  0.0419  0.2006  0.4695
 3682SOL    HW211793   0.744   3.016   4.300  0.9385  0.7681  2.4448
 3683SOL     OW11794   5.121   2.165   3.883 -0.3587  0.3651 -0.1645
 3683SOL    HW111795   5.189   2.231   3.868 -1.0270  1.0337 -0.3190
 3683SOL    HW211796   5.138   2.133   3.972  0.7771 -0.2317 -0.5844
 3684SOL     OW11797   3.642   1.906   0.746  0.1486  0.7167 -0.1006
 3684SOL    HW111798   3.588   1.973   0.704  1.1855  0.4126 -2.0448
 3684SOL    HW211799   3.732   1.939   0.740  0.4449  0.2105  1.0667
 3685SOL     OW11800   2.183   4.468   1.153 -0.0275  0.6483  0.8708
 3685SOL    HW111801   2.141   4.390   1.116  2.2997  0.7349 -2.3438
 3685SOL    HW211802   2.222   4.438   1.234  0.9173 -1.6329 -0.3508
 3686SOL     OW11803   5.837   3.435   0.377 -0.0730  0.7292 -0.2395
 3686SOL    HW111804   5.931   3.418   0.378 -0.0201  0.9143 -1.0650
 3686SOL    HW211805   5.816   3.462   0.466  0.2290 -1.4975  0.5780
 3687SOL     OW11806   2.184   5.591   3.392  0.1352  0.1460  0.1280
 3687SOL    HW111807   2.119   5.659   3.370  0.3637  0.5098  0.5727
 3687SOL    HW211808   2.250   5.598   3.323  0.5325  0.8725  0.5742
 3688SOL     OW11809   4.252   1.100   0.092  0.5888  0.2386  0.0655
 3688SOL    HW111810   4.165   1.098   0.052  0.7892  0.2884 -0.3894
 3688SOL    HW211811   4.258   1.185   0.134  0.4515  0.2694  0.0222
 3689SOL     OW11812   1.332   4.673   2.465  0.3290 -0.1368  0.2566
 3689SOL    HW111813   1.418   4.637   2.440  0.2383  0.0087 -0.2695
 3689SOL    HW211814   1.270   4.628   2.408 -0.2136 -1.8711  2.1018
 3690SOL     OW11815   4.703   3.049   0.596  0.5294 -0.2723 -0.0377
 3690SOL    HW111816   4.649   3.101   0.656 -0.1831  0.8561 -1.6100
 3690SOL    HW211817   4.739   3.113   0.535  1.3432 -1.3844 -0.7469
 3691SOL     OW11818   4.955   4.857   1.405  0.1793  0.1951 -0.0513
 3691SOL    HW111819   4.879   4.910   1.428  0.5119  0.6742 -0.0444
 3691SOL    HW211820   5.006   4.913   1.346 -0.1236 -0.6029 -1.0919
 3692SOL     OW11821   1.958   2.232   2.623 -0.1814  0.3022  0.2136
 3692SOL    HW111822   2.002   2.155   2.660  0.0992  1.2218  1.8809
 3692SOL    HW211823   1.969   2.222   2.528  0.9920 -1.0330  0.4532
 3693SOL     OW11824   3.278   4.484   1.118  0.2541  0.1513  0.3935
 3693SOL    HW111825   3.341   4.502   1.048  0.8822  1.6489  1.2902
 3693SOL    HW211826   3.310   4.536   1.192  0.7391 -2.8002  2.4498
 3694SOL     OW11827   0.176   4.916   2.022 -0.4318  0.1185 -0.0434
 3694SOL    HW111828   0.212   4.834   1.988 -0.3492  0.4545 -0.7818
 3694SOL    HW211829   0.247   4.956   2.072 -0.4880 -0.2789  0.3575
 3695SOL     OW11830   4.291   3.704   2.939  0.0395  0.1460  0.0331
 3695SOL    HW111831   4.202   3.698   2.906 -0.5909  1.6812  1.3661
 3695SOL    HW211832   4.306   3.797   2.953  1.3716 -0.1985  1.0937
 3696SOL     OW11833   4.656   1.722   4.050  0.1513 -0.6109  0.4796
 3696SOL    HW111834   4.743   1.695   4.081  2.2620  1.6252 -2.8127
 3696SOL    HW211835   4.662   1.817   4.043 -2.8545 -0.3273  0.7156
 3697SOL     OW11836   5.216   4.547   2.342 -0.4622  0.7828  0.4434
 3697SOL    HW111837   5.141   4.492   2.320 -1.1973  2.5742 -2.0249
 3697SOL    HW211838   5.291   4.488   2.337 -1.1955 -0.0932 -2.1641
 3698SOL     OW11839   3.712   4.373   1.035 -0.3710  0.2971  0.3246
 3698SOL    HW111840   3.657   4.361   0.958  0.5141 -0.9344 -0.1452
 3698SOL    HW211841   3.715   4.468   1.048  1.7931  0.8195 -2.9071
 3699SOL     OW11842   1.324   3.250   6.118  0.0107 -0.1139  0.2652
 3699SOL    HW111843   1.379   3.264   6.196 -0.5444  2.3017  0.3022
 3699SOL    HW211844   1.314   3.155   6.113 -0.2290 -0.3713  3.3777
 3700SOL     OW11845   0.091   2.173   3.699 -0.0082  0.5371  0.3421
 3700SOL    HW111846   0.019   2.111   3.711  0.4818 -0.1566 -0.2035
 3700SOL    HW211847   0.147   2.159   3.775 -1.1972  2.1735  1.5926
 3701SOL     OW11848   5.242   5.152   2.643 -0.2407 -0.8109  0.2396
 3701SOL    HW111849   5.209   5.075   2.598  0.7267 -0.5880 -0.9195
 3701SOL    HW211850   5.286   5.118   2.721  3.3723 -1.9248 -2.0337
 3702SOL     OW11851   5.140   2.131   1.282 -0.4046  0.4645 -0.1617
 3702SOL    HW111852   5.154   2.052   1.230  1.3081 -0.3373  1.3805
 3702SOL    HW211853   5.109   2.099   1.366 -1.9289  1.6382 -0.2391
 3703SOL     OW11854   3.948   5.677   2.384  0.1578  0.7413 -0.3980
 3703SOL    HW111855   3.937   5.772   2.389 -0.5968  0.6472 -0.0641
 3703SOL    HW211856   4.042   5.663   2.391  0.2172  1.4239  0.3245
 3704SOL     OW11857   3.898   4.175   0.279  0.9386 -0.1183 -0.5269
 3704SOL    HW111858   3.908   4.138   0.367  1.9888 -0.6173 -0.8455
 3704SOL    HW211859   3.828   4.122   0.240 -1.3673  1.7142  0.8161
 3705SOL     OW11860   1.468   4.900   5.042 -0.3464 -0.3795  0.3522
 3705SOL    HW111861   1.561   4.876   5.033 -0.2209 -0.6711  2.1093
 3705SOL    HW211862   1.430   4.877   4.957  1.7439  2.6846 -1.6061
 3706SOL     OW11863   5.309   2.701   3.261  0.2362 -0.5617  0.3578
 3706SOL    HW111864   5.329   2.753   3.339  1.9028  4.3001 -2.8253
 3706SOL    HW211865   5.395   2.673   3.229 -0.3564 -1.8250 -0.2131
 3707SOL     OW11866   5.180   0.302   5.852 -0.0724 -0.4216 -0.0656
 3707SOL    HW111867   5.156   0.368   5.917 -2.0338  1.1453 -2.2265
 3707SOL    HW211868   5.261   0.335   5.813 -1.4723  1.2762 -1.7073
 3708SOL     OW11869   3.909   0.040   2.120  0.1554  0.0208 -0.3377
 3708SOL    HW111870   3.945   0.087   2.045  0.9980  0.2444  0.1982
 3708SOL    HW211871   3.980  -0.019   2.148  0.2852  0.7648  0.9881
 3709SOL     OW11872   4.049   5.999   4.869  0.0770  0.3890  0.1146
 3709SOL    HW111873   4.035   6.068   4.934 -0.7715 -0.2528  0.6168
 3709SOL    HW211874   4.075   6.047   4.790  1.3200  1.1675  0.9543
 3710SOL     OW11875   0.128   3.793   4.527 -0.1221 -0.4339 -0.5360
 3710SOL    HW111876   0.108   3.737   4.602  0.8360  1.1993  0.9992
 3710SOL    HW211877   0.046   3.795   4.477 -1.7384  0.6977  1.9795
 3711SOL     OW11878   3.151   1.342   5.532 -0.1212 -0.0514  0.4458
 3711SOL    HW111879   3.105   1.420   5.563 -1.2040  0.1412 -1.5214
 3711SOL    HW211880   3.105   1.269   5.574 -0.3285  0.2663  0.7804
 3712SOL     OW11881   4.584   0.670   1.429  0.3432 -0.2660 -0.8176
 3712SOL    HW111882   4.631   0.728   1.489  1.8061 -0.4740 -1.7259
 3712SOL    HW211883   4.638   0.668   1.350 -1.4616 -0.1096 -2.1113
 3713SOL     OW11884   5.430   5.063   0.455  0.2858 -0.9798 -0.0354
 3713SOL    HW111885   5.512   5.070   0.504 -0.3636 -1.4663  1.1542
 3713SOL    HW211886   5.373   5.009   0.510 -0.6268 -1.1844 -1.1326
 3714SOL     OW11887   3.835   2.318   5.673  0.2470 -0.2581 -0.5876
 3714SOL    HW111888   3.875   2.303   5.587  0.0289  1.4500 -1.0435
 3714SOL    HW211889   3.766   2.253   5.679 -0.1471 -0.0154 -2.0189
 3715SOL     OW11890   6.031   2.114   4.556  0.6331 -0.2162 -0.0446
 3715SOL    HW111891   6.087   2.153   4.623 -0.5118 -0.4297  1.0886
 3715SOL    HW211892   6.088   2.100   4.481  2.0018 -0.1281  0.9534
 3716SOL     OW11893   6.063   3.982   6.189 -0.2398 -0.3127  0.6410
 3716SOL    HW111894   6.082   3.957   6.279 -0.1782 -0.4959  0.5789
 3716SOL    HW211895   6.076   3.901   6.139  3.8653  0.5975 -0.1708
 3717SOL     OW11896   2.301   0.628   6.202  0.3990 -0.2382 -0.7443
 3717SOL    HW111897   2.355   0.659   6.275 -0.1057 -1.6970  0.3094
 3717SOL    HW211898   2.361   0.579   6.146 -0.0149 -3.5087  1.4134
 3718SOL     OW11899   0.856   0.847   4.083 -0.9061 -0.6317  0.0221
 3718SOL    HW111900   0.878   0.800   4.163 -0.2634 -0.2439  0.0756
 3718SOL    HW211901   0.893   0.934   4.094 -1.0350 -0.4884 -0.5903
 3719SOL     OW11902   1.266   2.347   4.491  0.3338 -0.0474 -0.1781
 3719SOL    HW111903   1.255   2.350   4.586 -0.0365  1.6120 -0.2450
 3719SOL    HW211904   1.215   2.271   4.464  0.9773 -0.9385  0.9991
 3720SOL     OW11905   6.267   5.277   0.408  0.0017 -0.2941 -0.1818
 3720SOL    HW111906   6.353   5.250   0.375 -0.4753 -1.0842 -0.7844
 3720SOL    HW211907   6.205   5.218   0.367 -0.7264 -0.5860  1.2732
 3721SOL     OW11908   4.366   4.465   1.337 -0.2819 -0.4531  0.3838
 3721SOL    HW111909   4.441   4.498   1.288 -0.2735  0.5990  1.0725
 3721SOL    HW211910   4.324   4.403   1.277 -0.4903  1.0498 -1.1266
 3722SOL     OW11911   2.589   5.077   2.604  0.1395 -0.4277  0.2132
 3722SOL    HW111912   2.537   5.156   2.614 -0.6349 -1.0713  1.5955
 3722SOL    HW211913   2.661   5.087   2.667 -0.6391 -1.3045  1.2981
 3723SOL     OW11914   5.990   0.581   4.874  0.2519  0.0849  0.4753
 3723SOL    HW111915   6.048   0.580   4.950 -1.4629  0.7444  1.8611
 3723SOL    HW211916   5.921   0.517   4.894 -0.2604  0.3016 -0.4922
 3724SOL     OW11917   3.294   4.196   2.135  0.0532  0.3413  0.1334
 3724SOL    HW111918   3.320   4.195   2.043  0.0894  0.9311  0.1330
 3724SOL    HW211919   3.228   4.265   2.141 -3.4203 -2.6692 -0.3495
 3725SOL     OW11920   2.917   5.159   6.043 -0.0292  0.5420  0.1561
 3725SOL    HW111921   2.986   5.186   5.983  1.0686  0.0167  1.1383
 3725SOL    HW211922   2.935   5.207   6.124  0.8721 -1.6402  1.3281
 3726SOL     OW11923   2.331   4.466   1.423  0.1906  0.0603  0.2474
 3726SOL    HW111924   2.396   4.401   1.448  0.9912  0.1759 -1.4154
 3726SOL    HW211925   2.381   4.546   1.409  0.1025 -0.3165 -3.0440
 3727SOL     OW11926   3.235   1.013   1.124  0.1781  0.0600  0.3341
 3727SOL    HW111927   3.272   0.925   1.125 -1.6697 -0.7589 -0.2988
 3727SOL    HW211928   3.296   1.063   1.069  0.3523 -1.2470 -0.7141
 3728SOL     OW11929   5.180   5.580   4.603  0.5655  0.2029 -0.1546
 3728SOL    HW111930   5.161   5.518   4.532  0.0503  0.1659  0.0116
 3728SOL    HW211931   5.144   5.538   4.681  0.4784  0.5807  0.0092
 3729SOL     OW11932   2.549   2.364   3.505  0.6293  0.5019  0.1687
 3729SOL    HW111933   2.519   2.393   3.592 -1.0370  2.5048 -0.9796
 3729SOL    HW211934   2.633   2.408   3.493  1.0478 -0.0719  0.8716
 3730SOL     OW11935   0.827   4.730   5.982  0.1598  0.7188  0.5070
 3730SOL    HW111936   0.880   4.776   5.917  1.2607  1.4039  1.8532
 3730SOL    HW211937   0.888   4.709   6.053 -1.1036  0.3973  1.5342
 3731SOL     OW11938   5.335   4.240   2.459 -0.3942  0.3351  0.1536
 3731SOL    HW111939   5.413   4.188   2.479 -0.8418  0.2149  1.7579
 3731SOL    HW211940   5.355   4.283   2.376  1.2532  0.0677  0.3762
 3732SOL     OW11941   3.163   1.626   6.135 -0.8535  0.2900  0.1161
 3732SOL    HW111942   3.229   1.556   6.135  1.0640  2.0035  1.3561
 3732SOL    HW211943   3.183   1.677   6.057 -0.5204  0.9684  0.6396
 3733SOL     OW11944   1.998   1.291   5.657 -0.7687 -0.5229 -0.1103
 3733SOL    HW111945   1.966   1.278   5.746 -1.8408  0.5763 -0.3081
 3733SOL    HW211946   2.047   1.373   5.661 -1.3131 -0.1622 -0.6448
 3734SOL     OW11947   4.304   2.782   2.707 -0.1164  0.7153 -0.5100
 3734SOL    HW111948   4.268   2.866   2.737 -0.7738  0.3822 -0.3506
 3734SOL    HW211949   4.390   2.805   2.672 -0.5206  1.5442 -1.0000
 3735SOL     OW11950   5.310   6.129   3.699 -0.1766  0.2920 -0.0361
 3735SOL    HW111951   5.382   6.118   3.761 -1.3960  1.2101  1.6143
 3735SOL    HW211952   5.352   6.131   3.613  1.8522  1.5852  0.9225
 3736SOL     OW11953   5.928   2.694   2.890 -0.2002  0.1932  0.2238
 3736SOL    HW111954   5.994   2.689   2.821 -0.5115 -1.2188 -0.0071
 3736SOL    HW211955   5.862   2.754   2.855 -0.4448 -0.6415 -0.8022
 3737SOL     OW11956   1.140   3.207   0.921  0.4183 -0.2660  0.7401
 3737SOL    HW111957   1.162   3.138   0.984  0.8835 -0.3182  0.5254
 3737SOL    HW211958   1.163   3.288   0.967  1.2916 -0.3291  0.4415
 3738SOL     OW11959   4.042   6.094   2.145 -0.1316  0.1916 -0.5588
 3738SOL    HW111960   4.016   6.042   2.221 -1.5614  0.7953 -0.5892
 3738SOL    HW211961   4.136   6.081   2.138  0.0568  0.1548  1.3418
 3739SOL     OW11962   5.934   5.969   5.168  0.0742  0.0911 -0.2330
 3739SOL    HW111963   5.905   5.990   5.257  0.3065 -0.1124 -0.1100
 3739SOL    HW211964   5.853   5.972   5.115 -0.3189 -1.2942  0.2552
 3740SOL     OW11965   0.992   5.296   3.900 -1.2314 -0.5924 -0.2892
 3740SOL    HW111966   0.898   5.279   3.906 -1.2651 -1.1441 -2.0172
 3740SOL    HW211967   1.005   5.330   3.812  0.0656  0.4465  0.2611
 3741SOL     OW11968   5.176   3.596   3.636  0.2130  0.0709 -0.2257
 3741SOL    HW111969   5.127   3.546   3.570 -2.2330  0.1827  1.3956
 3741SOL    HW211970   5.218   3.529   3.690 -1.1624 -0.2306  0.5336
 3742SOL     OW11971   1.344   0.628   4.841 -0.0971  0.5267 -0.5522
 3742SOL    HW111972   1.319   0.701   4.784 -0.6075  0.5062 -0.3570
 3742SOL    HW211973   1.414   0.583   4.793 -0.4862  0.5434 -1.1414
 3743SOL     OW11974   1.706   3.857   4.006  0.0654  0.2543 -0.3084
 3743SOL    HW111975   1.739   3.918   4.073 -1.6296  1.4327 -0.4933
 3743SOL    HW211976   1.688   3.776   4.054 -0.8293  0.9820  0.6138
 3744SOL     OW11977   6.283   3.046   3.790 -0.3592  0.2675 -0.2985
 3744SOL    HW111978   6.349   3.025   3.856 -0.1051 -2.9466 -1.4034
 3744SOL    HW211979   6.319   3.122   3.743  1.9982 -0.6673 -0.1096
 3745SOL     OW11980   3.405   5.223   0.306 -0.0743  0.3054 -0.0544
 3745SOL    HW111981   3.388   5.274   0.227 -0.6497  0.6905  0.3065
 3745SOL    HW211982   3.415   5.289   0.375 -0.2443 -0.0478  0.3120
 3746SOL     OW11983   2.000   3.702   5.680 -0.5740 -0.2881  0.0428
 3746SOL    HW111984   1.916   3.673   5.646  0.8036 -3.0455 -1.3458
 3746SOL    HW211985   1.978   3.759   5.753 -3.6276  1.3593 -1.9525
 3747SOL     OW11986   2.501   3.631   5.477 -0.2340  0.5319  0.0584
 3747SOL    HW111987   2.582   3.593   5.511 -0.3203  1.4331  1.3168
 3747SOL    HW211988   2.526   3.719   5.450 -0.1590 -0.1424 -2.3318
 3748SOL     OW11989   5.115   3.154   1.683  0.0086  0.1390  0.5882
 3748SOL    HW111990   5.130   3.064   1.654 -1.7644 -0.4333  1.3160
 3748SOL    HW211991   5.134   3.152   1.777 -0.3559  0.4386  0.6707
 3749SOL     OW11992   0.963   3.039   5.141 -0.2744 -0.4295 -0.3551
 3749SOL    HW111993   0.959   2.976   5.069  0.4253 -0.5227 -0.3140
 3749SOL    HW211994   1.020   2.998   5.205 -1.3506 -0.6119  0.5215
 3750SOL     OW11995   3.008   5.264   2.784 -0.0434  0.1316  0.1005
 3750SOL    HW111996   3.089   5.314   2.771  1.2687 -2.2935 -2.0133
 3750SOL    HW211997   3.038   5.178   2.815 -1.8626 -0.6592 -0.2426
 3751SOL     OW11998   0.760   3.026   4.804 -0.1497  0.3266 -0.6722
 3751SOL    HW111999   0.706   3.098   4.836 -2.6255 -0.9722 -1.6149
 3751SOL    HW212000   0.817   3.065   4.739  1.1247  2.0115  1.3452
 3752SOL     OW12001   1.418   2.921   5.529  0.3939 -0.8306 -0.4544
 3752SOL    HW112002   1.436   2.964   5.612 -1.7655 -0.2205 -0.2392
 3752SOL    HW212003   1.430   2.989   5.463  2.5202 -1.4178 -0.7564
 3753SOL     OW12004   1.793   5.106   4.706  0.1300  0.2472 -0.1407
 3753SOL    HW112005   1.700   5.129   4.700 -0.4119 -1.3234  1.3227
 3753SOL    HW212006   1.793   5.011   4.721  1.9220  0.3820  1.0454
 3754SOL     OW12007   2.760   3.131   1.044 -0.0674  0.2345 -0.0700
 3754SOL    HW112008   2.848   3.107   1.072  0.0668  0.8041  0.0127
 3754SOL    HW212009   2.773   3.179   0.962 -0.4194 -0.9973 -0.8693
 3755SOL     OW12010   4.561   5.688   5.916  0.2219  0.7116 -0.2100
 3755SOL    HW112011   4.542   5.691   6.009  1.3583  2.8733  0.0238
 3755SOL    HW212012   4.578   5.596   5.897 -2.9562 -0.2706  1.0219
 3756SOL     OW12013   3.894   3.560   0.040  0.1282 -0.5903 -0.0856
 3756SOL    HW112014   3.945   3.617   0.097  1.0624  0.7285 -2.1108
 3756SOL    HW212015   3.956   3.532  -0.028 -0.4625 -3.5672  0.4526
 3757SOL     OW12016   4.442   3.390   1.964  0.0320  0.9041 -0.1856
 3757SOL    HW112017   4.470   3.361   1.877 -1.5422  1.9539 -1.0929
 3757SOL    HW212018   4.510   3.453   1.990  1.2712 -0.4570  0.0078
 3758SOL     OW12019   4.936   1.924   4.272  0.0109 -0.7940 -0.3460
 3758SOL    HW112020   4.988   1.898   4.196 -0.8677 -0.5981 -1.0324
 3758SOL    HW212021   4.906   2.013   4.251  2.6477  0.7246  1.7815
 3759SOL     OW12022   4.038   3.208   2.678 -0.1453 -0.0300  0.2359
 3759SOL    HW112023   4.042   3.264   2.600  2.1357  0.7730  0.8527
 3759SOL    HW212024   3.988   3.259   2.742 -0.3426  0.1557 -0.0640
 3760SOL     OW12025   0.071   5.299   3.493  0.1553 -0.5033 -0.4439
 3760SOL    HW112026   0.087   5.391   3.470 -3.7482  0.3939 -0.2992
 3760SOL    HW212027   0.058   5.255   3.408 -0.0596 -0.4340 -0.4474
 3761SOL     OW12028   3.527   3.146   4.598  0.5275  0.7675  0.4380
 3761SOL    HW112029   3.566   3.220   4.645  2.5932  0.3696 -0.5257
 3761SOL    HW212030   3.591   3.075   4.609 -0.5020 -0.3014 -0.2594
 3762SOL     OW12031   1.342   3.343   5.663  0.5909 -0.4449  0.5755
 3762SOL    HW112032   1.427   3.311   5.634 -0.6673 -1.5611 -2.2611
 3762SOL    HW212033   1.300   3.267   5.703  0.7755  0.0298  1.7146
 3763SOL     OW12034   3.527   1.914   3.581  0.3707  0.4642 -0.3945
 3763SOL    HW112035   3.450   1.967   3.603  0.9858  1.2387 -0.0464
 3763SOL    HW212036   3.502   1.825   3.603  0.0811  0.8879  1.0701
 3764SOL     OW12037   6.275   5.560   1.028 -0.6386  0.2540 -0.3201
 3764SOL    HW112038   6.269   5.603   0.942 -0.7605  1.6730  0.3741
 3764SOL    HW212039   6.190   5.518   1.040 -1.2125  1.4205 -0.2046
 3765SOL     OW12040   1.389   1.462   3.911 -0.4801 -0.1430 -0.5477
 3765SOL    HW112041   1.321   1.446   3.977  0.3670  0.8462  0.6143
 3765SOL    HW212042   1.439   1.381   3.907 -0.5939 -0.2404 -0.0446
 3766SOL     OW12043   2.757   2.541   0.628  0.1277 -0.3468 -0.2498
 3766SOL    HW112044   2.689   2.584   0.576  0.9208 -0.2090 -1.1980
 3766SOL    HW212045   2.839   2.577   0.595  0.6579  0.0302  1.3660
 3767SOL     OW12046   4.393   0.396   1.162  0.9514 -0.2719 -0.1295
 3767SOL    HW112047   4.354   0.484   1.167 -0.5604 -0.9500  0.8899
 3767SOL    HW212048   4.326   0.343   1.118  1.0746 -1.2811  0.8707
 3768SOL     OW12049   0.594   3.319   3.472 -0.6968  0.2641  0.5867
 3768SOL    HW112050   0.548   3.388   3.424 -0.3149  0.8906  1.1217
 3768SOL    HW212051   0.681   3.355   3.489 -0.4449 -0.4097  0.7404
 3769SOL     OW12052   5.774   4.495   1.975 -0.5868  0.1114  0.0862
 3769SOL    HW112053   5.758   4.577   1.929  0.8300 -0.3003 -1.2381
 3769SOL    HW212054   5.750   4.427   1.912 -0.4004 -0.4838  0.6490
 3770SOL     OW12055   1.588   5.965   5.842 -0.3655 -0.2282  0.5077
 3770SOL    HW112056   1.533   5.937   5.915  0.5222  0.1020  1.3358
 3770SOL    HW212057   1.636   6.041   5.877 -1.2968  1.1314 -1.0309
 3771SOL     OW12058   1.952   2.589   1.024  0.5617 -0.3320  0.6338
 3771SOL    HW112059   1.916   2.537   1.097  0.9881 -1.5282  0.0175
 3771SOL    HW212060   2.004   2.526   0.974  1.3581  0.7884  0.0407
 3772SOL     OW12061   6.078   0.083   2.791  0.2279 -0.3245  0.0466
 3772SOL    HW112062   6.048  -0.005   2.769  0.0849 -0.5216  1.0040
 3772SOL    HW212063   6.019   0.113   2.860  0.0731  0.6548 -0.4909
 3773SOL     OW12064   4.114   0.046   0.123  0.2189  0.3248 -0.3570
 3773SOL    HW112065   4.167  -0.029   0.151 -0.2469 -0.0250 -0.4041
 3773SOL    HW212066   4.174   0.121   0.128  0.1150  0.3264  1.7645
 3774SOL     OW12067   4.157   5.387   0.180 -0.3064 -0.2130 -0.1287
 3774SOL    HW112068   4.160   5.478   0.151  0.7899  0.2521  1.3366
 3774SOL    HW212069   4.177   5.337   0.101  1.3151  0.9331 -0.5052
 3775SOL     OW12070   4.694   4.932   1.477  0.1665 -0.2886 -0.5087
 3775SOL    HW112071   4.605   4.966   1.467 -0.0025 -0.4985  0.1781
 3775SOL    HW212072   4.712   4.943   1.571  1.6870  1.7667 -0.9747
 3776SOL     OW12073   4.115   3.817   4.191 -0.3215  0.1023  0.5069
 3776SOL    HW112074   4.174   3.752   4.228  0.2932  0.4514  0.1570
 3776SOL    HW212075   4.027   3.781   4.204 -0.2452  0.6900  3.3252
 3777SOL     OW12076   5.473   3.825   1.584  0.0508 -0.1303  0.2893
 3777SOL    HW112077   5.446   3.844   1.494 -2.0052  0.8812  1.0533
 3777SOL    HW212078   5.494   3.732   1.583 -0.0986 -0.1839 -1.1927
 3778SOL     OW12079   2.814   0.382   5.812  0.0383 -0.5242 -0.1409
 3778SOL    HW112080   2.813   0.314   5.880  2.6686 -0.2013  0.3138
 3778SOL    HW212081   2.822   0.464   5.861  0.6677 -0.1911 -0.7854
 3779SOL     OW12082   0.474   1.432   0.974  0.1561  0.0064 -0.3827
 3779SOL    HW112083   0.480   1.362   0.909  1.5568 -0.9117  0.6783
 3779SOL    HW212084   0.479   1.513   0.923 -0.1117 -0.6673 -1.5132
 3780SOL     OW12085   0.097   4.888   4.193 -0.0325  0.4112 -0.3561
 3780SOL    HW112086   0.034   4.940   4.142  1.0689  0.4804 -1.6928
 3780SOL    HW212087   0.044   4.849   4.263 -1.0087  2.8754  0.3870
 3781SOL     OW12088   4.197   5.304   2.438  0.4654  0.0417  0.4060
 3781SOL    HW112089   4.292   5.310   2.431  0.3573  1.1842 -0.3221
 3781SOL    HW212090   4.181   5.222   2.485  1.7941 -0.2926  0.2932
 3782SOL     OW12091   4.407   6.240   2.364  0.1535 -0.0853 -0.0126
 3782SOL    HW112092   4.357   6.209   2.288 -0.6752  1.6486 -0.2263
 3782SOL    HW212093   4.487   6.187   2.364 -0.4583 -1.0638 -1.2606
 3783SOL     OW12094   4.886   2.580   0.411  0.0344 -0.6724  0.2145
 3783SOL    HW112095   4.973   2.618   0.419  0.6050 -1.9324  0.3283
 3783SOL    HW212096   4.831   2.651   0.381  1.3216 -0.1016 -0.8982
 3784SOL     OW12097   5.572   5.902   0.758 -0.5357 -0.4140  0.7011
 3784SOL    HW112098   5.623   5.825   0.783 -0.7127 -0.5173  0.7414
 3784SOL    HW212099   5.504   5.868   0.700  0.8962  0.0312 -1.3474
 3785SOL     OW12100   4.342   3.442   5.944 -0.1438 -0.2524 -0.2658
 3785SOL    HW112101   4.306   3.531   5.941 -0.3799 -0.3252  0.3013
 3785SOL    HW212102   4.418   3.448   6.002  1.3321  0.0900 -2.1632
 3786SOL     OW12103   5.236   0.297   1.921  0.5079 -0.1759 -0.2983
 3786SOL    HW112104   5.178   0.242   1.974  1.6541  0.1010  1.3279
 3786SOL    HW212105   5.245   0.249   1.839  0.3868 -1.7613  0.5587
 3787SOL     OW12106   2.648   3.177   1.295 -0.0793  0.3676  0.3400
 3787SOL    HW112107   2.576   3.237   1.276 -0.4633 -0.0706  0.3963
 3787SOL    HW212108   2.672   3.139   1.210 -1.5223 -1.2810  0.6059
 3788SOL     OW12109   1.881   5.581   2.430  0.4808  0.3770 -0.3942
 3788SOL    HW112110   1.957   5.527   2.408  0.7218  0.9331 -0.9701
 3788SOL    HW212111   1.828   5.582   2.350  1.0977  1.9731 -0.8217
 3789SOL     OW12112   0.567   3.688   4.441 -0.7293 -0.0504  0.3484
 3789SOL    HW112113   0.533   3.739   4.367  0.1635  1.8185  1.1652
 3789SOL    HW212114   0.601   3.754   4.501  0.3634 -1.6435  1.5299
 3790SOL     OW12115   5.916   3.944   5.159 -0.4217 -0.4189  0.0075
 3790SOL    HW112116   5.996   3.985   5.190  0.5269 -1.5151 -0.9059
 3790SOL    HW212117   5.866   3.925   5.238 -0.4978  1.6468  0.5042
 3791SOL     OW12118   2.591   2.727   3.259 -0.0977  0.8242 -0.4778
 3791SOL    HW112119   2.523   2.701   3.197 -0.6784 -2.2066  1.1868
 3791SOL    HW212120   2.664   2.667   3.241  0.2218  0.7695  0.8814
 3792SOL     OW12121   4.608   4.561   1.161 -0.6090 -0.2423 -0.4048
 3792SOL    HW112122   4.562   4.544   1.079 -0.3919  0.6658 -0.7309
 3792SOL    HW212123   4.690   4.513   1.153 -1.5492 -2.0614  0.2750
 3793SOL     OW12124   1.908   4.870   1.662  0.4725 -0.2449 -0.2012
 3793SOL    HW112125   1.972   4.798   1.658 -1.1040 -1.6983 -0.1990
 3793SOL    HW212126   1.895   4.896   1.571  0.8357 -0.1342 -0.2239
 3794SOL     OW12127   4.185   0.142   2.547 -0.1016 -0.1388 -0.8574
 3794SOL    HW112128   4.228   0.181   2.623 -0.3277 -0.2692 -0.6628
 3794SOL    HW212129   4.257   0.121   2.487  0.2935 -1.9654  0.1789
 3795SOL     OW12130   3.027   2.763   4.143  0.0143  0.4585 -0.1866
 3795SOL    HW112131   3.060   2.695   4.084 -2.5486 -0.9381 -0.1461
 3795SOL    HW212132   2.976   2.821   4.086  1.6728  2.0817 -0.1137
 3796SOL     OW12133   1.240   4.747   5.657  0.1747 -0.2734 -0.0111
 3796SOL    HW112134   1.187   4.697   5.719  0.0736 -1.3849 -0.9554
 3796SOL    HW212135   1.269   4.682   5.592  1.4829  0.5801 -0.3303
 3797SOL     OW12136   5.183   3.062   1.126  0.3703 -0.6981 -0.3537
 3797SOL    HW112137   5.113   3.051   1.190 -0.3528 -0.1149 -1.0179
 3797SOL    HW212138   5.173   3.153   1.096  0.6061 -1.0013 -1.3824
 3798SOL     OW12139   6.166   1.636   2.735  0.0285 -0.3109 -0.3915
 3798SOL    HW112140   6.178   1.620   2.829  3.0044  0.7319 -0.4864
 3798SOL    HW212141   6.236   1.586   2.693 -1.1698 -0.6493 -2.0907
 3799SOL     OW12142   2.043   5.500   6.287 -0.2565 -0.7359  0.3581
 3799SOL    HW112143   2.137   5.513   6.300 -0.0985 -0.3028 -1.0351
 3799SOL    HW212144   2.006   5.587   6.303 -0.4029 -0.8662  0.7302
 3800SOL     OW12145   3.704   1.843   0.179 -0.0016 -0.5743 -0.3779
 3800SOL    HW112146   3.736   1.844   0.269 -3.0224 -0.8997  0.8315
 3800SOL    HW212147   3.757   1.777   0.135  0.7189 -1.3521  1.5470
 3801SOL     OW12148   1.254   1.584   0.054 -0.4746 -0.4811  0.5250
 3801SOL    HW112149   1.278   1.498   0.089 -1.0584 -0.2641  1.5234
 3801SOL    HW212150   1.332   1.613   0.007 -0.2101 -1.4810  0.3125
 3802SOL     OW12151   4.355   4.337   0.377 -0.1349 -0.0907  0.3694
 3802SOL    HW112152   4.294   4.411   0.375 -1.1425 -0.8314  2.1411
 3802SOL    HW212153   4.316   4.273   0.318 -0.3023  0.0041  0.3768
 3803SOL     OW12154   5.100   0.705   4.510 -0.0553 -0.6696  0.1101
 3803SOL    HW112155   5.101   0.780   4.570  2.3852  0.6648 -1.4062
 3803SOL    HW212156   5.017   0.712   4.464  1.2488  3.1078 -2.1566
 3804SOL     OW12157   2.656   1.219   4.930  0.3618 -0.0801 -0.0899
 3804SOL    HW112158   2.634   1.307   4.962  0.4690  0.4572 -1.4485
 3804SOL    HW212159   2.573   1.186   4.894 -0.0256 -1.1107  1.6348
 3805SOL     OW12160   4.749   0.627   1.223 -0.3067  0.9173  0.2849
 3805SOL    HW112161   4.816   0.616   1.156 -1.8201  0.3930 -1.2088
 3805SOL    HW212162   4.706   0.541   1.230  0.3313  0.7040  2.5600
 3806SOL     OW12163   1.397   4.928   6.236  0.4211  0.4466 -0.5989
 3806SOL    HW112164   1.398   5.023   6.224 -0.3621  0.3244 -1.7666
 3806SOL    HW212165   1.358   4.916   6.323  0.0503  1.1817 -0.6548
 3807SOL     OW12166   5.136   4.159   5.183 -0.1080 -0.0308  0.0465
 3807SOL    HW112167   5.217   4.125   5.221  1.7615  0.5004 -3.0462
 3807SOL    HW212168   5.073   4.088   5.192  1.7554 -1.8666 -0.4544
 3808SOL     OW12169   1.936   4.595   4.070  0.1671  0.2033 -0.1547
 3808SOL    HW112170   2.021   4.616   4.109  0.2498 -0.8666  0.2671
 3808SOL    HW212171   1.957   4.561   3.983  0.2953 -1.4436  0.4941
 3809SOL     OW12172   3.781   0.238   1.822  0.2866 -0.4269  0.2050
 3809SOL    HW112173   3.689   0.261   1.835  0.1377 -0.5091 -0.6274
 3809SOL    HW212174   3.784   0.143   1.833  0.4821 -0.3077  1.3235
 3810SOL     OW12175   3.370   0.914   5.175 -0.3247  0.3386 -0.1710
 3810SOL    HW112176   3.317   0.985   5.210 -0.0492  0.9944 -1.0755
 3810SOL    HW212177   3.317   0.835   5.188  0.0337  0.4215  2.3599
 3811SOL     OW12178   1.208   5.538   3.685 -0.2432  0.3109 -0.1495
 3811SOL    HW112179   1.188   5.615   3.632 -2.9514 -0.0649  0.1519
 3811SOL    HW212180   1.282   5.564   3.739 -1.1330  2.7610  0.0199
 3812SOL     OW12181   1.206   5.106   1.111  0.5185  0.0542 -0.6999
 3812SOL    HW112182   1.164   5.166   1.172  1.6121  0.4387 -0.2969
 3812SOL    HW212183   1.294   5.093   1.147  0.2403 -2.0025 -0.6398
 3813SOL     OW12184   1.946   5.954   2.109  0.7931  0.2432  0.3818
 3813SOL    HW112185   1.997   5.912   2.179  0.4655  1.4182  1.3596
 3813SOL    HW212186   1.870   5.897   2.097  2.3200 -1.6387 -1.2188
 3814SOL     OW12187   5.283   2.272   4.261 -0.1582  0.4693  0.1126
 3814SOL    HW112188   5.309   2.180   4.264 -3.7536 -0.6525  0.4105
 3814SOL    HW212189   5.360   2.316   4.224  1.3587 -2.7267 -0.9581
 3815SOL     OW12190   3.980   3.907   1.957  0.0225 -0.1447  0.6075
 3815SOL    HW112191   3.902   3.959   1.977 -0.5985 -0.7897 -0.0816
 3815SOL    HW212192   4.014   3.881   2.043 -1.5347 -1.3129  0.9200
 3816SOL     OW12193   1.875   2.075   5.127 -0.3713  0.0778 -0.6845
 3816SOL    HW112194   1.870   2.160   5.169  1.5274  0.2777 -0.7878
 3816SOL    HW212195   1.820   2.018   5.181 -1.0926  1.1957 -0.2096
 3817SOL     OW12196   5.382   2.061   2.057 -0.0455  0.5691  0.5033
 3817SOL    HW112197   5.404   2.027   1.970 -3.8387  0.3078 -0.5362
 3817SOL    HW212198   5.329   1.993   2.097  1.3093  0.8516  2.9547
 3818SOL     OW12199   2.297   3.674   5.642  0.3429  0.1177 -0.1850
 3818SOL    HW112200   2.369   3.668   5.579 -0.1620  0.7220 -0.8202
 3818SOL    HW212201   2.301   3.591   5.689  2.6941  0.8880  1.1537
 3819SOL     OW12202   3.936   5.422   2.530 -0.3248 -0.2370 -0.6627
 3819SOL    HW112203   3.943   5.499   2.474 -3.7362 -1.3613 -3.0468
 3819SOL    HW212204   4.014   5.370   2.510 -0.0733  0.7017 -2.2963
 3820SOL     OW12205   4.545   1.340   2.052 -0.0436 -0.5459  0.1561
 3820SOL    HW112206   4.469   1.308   2.101 -1.5872 -0.8286 -2.2855
 3820SOL    HW212207   4.519   1.335   1.960  3.0777 -0.9973 -0.8311
 3821SOL     OW12208   4.003   6.230   1.216  0.3000 -0.0068  0.1174
 3821SOL    HW112209   4.084   6.220   1.265  0.1258 -0.2375  0.3575
 3821SOL    HW212210   3.977   6.141   1.192 -1.5031 -0.2811  2.6846
 3822SOL     OW12211   4.966   0.172   6.115  0.0789 -0.2449  0.3849
 3822SOL    HW112212   4.945   0.214   6.199  0.3268 -0.1048  0.3773
 3822SOL    HW212213   5.061   0.160   6.117  0.1908  0.4538 -0.1950
 3823SOL     OW12214   3.117   0.365   5.765  0.1129 -0.3071  0.5481
 3823SOL    HW112215   3.163   0.282   5.771 -0.3224 -0.5255  0.9190
 3823SOL    HW212216   3.065   0.370   5.845  1.3031  1.0317  1.3024
 3824SOL     OW12217   3.390   5.948   5.971  0.3541  0.0303 -0.6276
 3824SOL    HW112218   3.376   6.035   6.009  4.7542  0.3205  0.8901
 3824SOL    HW212219   3.400   5.964   5.877 -0.9505  0.7783 -0.6677
 3825SOL     OW12220   1.031   1.197   4.370 -0.0591  0.3957  0.3216
 3825SOL    HW112221   0.967   1.126   4.384 -0.9416  1.1911  0.4262
 3825SOL    HW212222   1.019   1.255   4.445  0.6547  0.6630  0.2344
 3826SOL     OW12223   4.725   3.139   5.444 -0.1088 -1.1871  0.0836
 3826SOL    HW112224   4.663   3.212   5.445  1.4175  0.1984 -0.7850
 3826SOL    HW212225   4.698   3.082   5.516 -1.4605  0.1460  0.6691
 3827SOL     OW12226   0.983   2.203   0.465  0.6858 -0.7418  0.1404
 3827SOL    HW112227   0.973   2.128   0.406  0.1063  0.0522 -0.8200
 3827SOL    HW212228   0.920   2.267   0.432  2.2821  0.7938 -0.0863
 3828SOL     OW12229   1.206   1.714   1.385 -0.2668  0.7217 -0.1835
 3828SOL    HW112230   1.173   1.728   1.296  1.8554  1.1671 -0.9564
 3828SOL    HW212231   1.260   1.635   1.378  0.7486  1.3368  0.4544
 3829SOL     OW12232   2.279   6.214   1.855 -0.2447  0.7482  0.2076
 3829SOL    HW112233   2.194   6.217   1.899 -0.1541  0.5715  0.3970
 3829SOL    HW212234   2.277   6.133   1.805 -0.3851  0.9964 -0.1956
 3830SOL     OW12235   3.248   1.122   3.125  0.0284 -0.8207 -0.6264
 3830SOL    HW112236   3.265   1.047   3.182  1.8117  0.1075  0.1223
 3830SOL    HW212237   3.288   1.098   3.042  1.6796 -0.2704 -0.0359
 3831SOL     OW12238   0.593   2.650   0.716  0.4438 -0.6675 -0.0359
 3831SOL    HW112239   0.674   2.599   0.724  0.6420 -0.5398 -1.0946
 3831SOL    HW212240   0.621   2.740   0.733  0.3973 -0.7041  0.2403
 3832SOL     OW12241   3.549   1.608   3.525 -0.6242 -0.0817 -0.4369
 3832SOL    HW112242   3.453   1.605   3.523 -0.5920 -1.0247 -0.9255
 3832SOL    HW212243   3.576   1.541   3.463  0.3713 -1.1471  1.1042
 3833SOL     OW12244   5.571   3.413   6.211  0.0192  0.2198 -0.2445
 3833SOL    HW112245   5.656   3.430   6.252  0.7187  1.8403 -2.1568
 3833SOL    HW212246   5.507   3.448   6.272  0.7528 -0.4461  0.9381
 3834SOL     OW12247   2.927   0.380   0.609 -0.4684 -0.2041 -0.4757
 3834SOL    HW112248   2.849   0.326   0.619 -0.3090 -0.6431 -1.5099
 3834SOL    HW212249   2.990   0.324   0.564  1.4825 -0.8508  2.6842
 3835SOL     OW12250   4.958   3.034   2.296 -0.2991 -0.1844  0.3317
 3835SOL    HW112251   4.928   3.085   2.221  0.5389 -2.0878 -1.3926
 3835SOL    HW212252   5.003   3.098   2.351 -2.4909  1.6178  0.1954
 3836SOL     OW12253   2.461   6.065   5.729 -0.4137  0.5040  0.3129
 3836SOL    HW112254   2.412   6.143   5.753 -2.0845 -0.5809  0.6111
 3836SOL    HW212255   2.398   6.011   5.681  0.7722 -0.5455 -0.1117
 3837SOL     OW12256   3.449   4.245   3.488 -0.3415  0.5397  0.2615
 3837SOL    HW112257   3.382   4.177   3.493  1.2731 -1.2258 -0.4991
 3837SOL    HW212258   3.460   4.275   3.578 -1.3796  0.0815  0.5564
 3838SOL     OW12259   2.685   1.737   5.680  0.6515 -0.1469 -0.2369
 3838SOL    HW112260   2.672   1.781   5.595  0.6566  0.1204 -0.0992
 3838SOL    HW212261   2.758   1.784   5.720  0.1459  0.2437  0.2585
 3839SOL     OW12262   3.539   1.579   4.864 -0.0123  0.3167 -0.2459
 3839SOL    HW112263   3.444   1.579   4.864 -0.0214 -0.3581 -0.6594
 3839SOL    HW212264   3.563   1.537   4.781  0.6044 -1.7853  0.9073
 3840SOL     OW12265   4.582   4.407   3.709  0.3485 -0.1164  0.6834
 3840SOL    HW112266   4.664   4.422   3.663 -0.1814 -0.1605 -0.2875
 3840SOL    HW212267   4.531   4.487   3.694 -0.1914 -0.5074  0.4102
 3841SOL     OW12268   4.963   4.646   3.956 -0.0018 -0.4255 -0.0386
 3841SOL    HW112269   5.046   4.635   3.910  0.1185  0.6920 -0.1114
 3841SOL    HW212270   4.901   4.674   3.888 -0.2344 -0.4268  0.1716
 3842SOL     OW12271   5.055   4.269   4.769  0.2494  0.1645  0.5867
 3842SOL    HW112272   5.064   4.272   4.673 -1.1290 -1.4768  0.3621
 3842SOL    HW212273   5.120   4.206   4.798  1.3422  1.3839  0.8713
 3843SOL     OW12274   0.948   3.067   5.553  0.4712  0.1717 -0.3726
 3843SOL    HW112275   0.922   3.156   5.530  1.0289 -0.0394 -1.9670
 3843SOL    HW212276   1.043   3.065   5.538  0.5685 -0.5048  0.3002
 3844SOL     OW12277   5.347   4.177   2.935 -0.5167  0.3414  0.0170
 3844SOL    HW112278   5.412   4.228   2.886 -1.1390  0.1987 -0.9795
 3844SOL    HW212279   5.358   4.087   2.902 -0.8470  0.2161  0.2475
 3845SOL     OW12280   2.095   5.453   2.059 -0.5976  0.6141  0.1524
 3845SOL    HW112281   2.015   5.415   2.023 -0.7095 -0.3911  1.3733
 3845SOL    HW212282   2.159   5.383   2.053 -0.4752  0.6016  1.3634
 3846SOL     OW12283   2.884   1.092   3.914  0.1683 -0.0054 -0.1790
 3846SOL    HW112284   2.905   1.154   3.984 -0.2441  0.1617 -0.1975
 3846SOL    HW212285   2.804   1.048   3.945 -0.0607  0.1257 -0.5782
 3847SOL     OW12286   2.819   2.267   0.945  0.4535  0.4999 -0.2115
 3847SOL    HW112287   2.789   2.178   0.961 -2.0219  1.3524  0.3084
 3847SOL    HW212288   2.858   2.264   0.857  1.2292 -1.2219  0.1476
 3848SOL     OW12289   0.369   1.103   3.302 -0.1233 -0.0432  0.0568
 3848SOL    HW112290   0.341   1.194   3.308  0.6868  0.1397  1.3454
 3848SOL    HW212291   0.340   1.063   3.384 -2.0669 -1.4489 -1.2273
 3849SOL     OW12292   0.485   2.467   6.277  0.5940 -0.1376 -0.2477
 3849SOL    HW112293   0.457   2.405   6.344 -0.0795 -1.6272 -1.8509
 3849SOL    HW212294   0.482   2.418   6.195 -1.0393  2.2661 -1.7761
 3850SOL     OW12295   2.197   3.357   4.312  0.1140  0.1687  0.4485
 3850SOL    HW112296   2.124   3.325   4.365  0.1640 -1.4448 -0.3763
 3850SOL    HW212297   2.266   3.377   4.375 -0.5061  0.2104  1.1290
 3851SOL     OW12298   3.752   3.304   6.185  0.4275 -0.2190 -0.0522
 3851SOL    HW112299   3.786   3.349   6.107  0.2707  0.2370  0.1416
 3851SOL    HW212300   3.732   3.374   6.247  0.7375 -0.5940  0.4790
 3852SOL     OW12301   1.166   5.132   5.008 -0.2041  0.4974 -0.0231
 3852SOL    HW112302   1.196   5.074   5.078 -0.0820  0.2359 -0.2885
 3852SOL    HW212303   1.246   5.169   4.972  0.0005 -1.5667 -1.9190
 3853SOL     OW12304   4.590   1.612   5.659  0.3298 -0.1884  0.3323
 3853SOL    HW112305   4.646   1.690   5.658  0.2616 -0.1364  0.6249
 3853SOL    HW212306   4.634   1.551   5.599  0.9602 -0.3249  0.9223
 3854SOL     OW12307   4.327   4.331   5.891  0.2210  0.3321 -0.1819
 3854SOL    HW112308   4.331   4.237   5.872 -1.4782  0.5722 -2.0352
 3854SOL    HW212309   4.382   4.371   5.824  0.3667  0.7241  0.1712
 3855SOL     OW12310   1.360   1.664   4.851  0.4275  0.4178 -0.3533
 3855SOL    HW112311   1.412   1.693   4.926 -1.3158  0.2402  0.9713
 3855SOL    HW212312   1.426   1.641   4.785  1.9826  2.9395  0.1685
 3856SOL     OW12313   5.227   4.285   4.309  0.5088  0.1068  0.4153
 3856SOL    HW112314   5.224   4.245   4.396 -0.5519 -0.0420  0.3192
 3856SOL    HW212315   5.206   4.213   4.249  0.8731  0.2898  0.0639
 3857SOL     OW12316   3.424   4.061   4.171 -0.5599  0.5337  0.3042
 3857SOL    HW112317   3.507   4.069   4.123 -1.3976  1.3816 -1.0618
 3857SOL    HW212318   3.356   4.072   4.104 -1.8138 -1.4280  1.1803
 3858SOL     OW12319   0.163   5.745   2.353  0.3088 -1.0555  0.1019
 3858SOL    HW112320   0.110   5.716   2.278  1.2395  1.8074 -1.8288
 3858SOL    HW212321   0.100   5.781   2.415 -0.3017 -1.4269 -0.2911
 3859SOL     OW12322   0.365   6.000   0.623 -0.1750  0.3351 -0.0367
 3859SOL    HW112323   0.459   5.979   0.623 -0.4786 -1.4441  2.4440
 3859SOL    HW212324   0.323   5.922   0.587 -0.7593  1.1982 -1.3155
 3860SOL     OW12325   3.082   3.382   6.213  0.2853  0.3370 -0.2427
 3860SOL    HW112326   3.056   3.461   6.261  2.4990  1.1946 -0.3299
 3860SOL    HW212327   3.048   3.310   6.266 -0.7572  1.3073  0.4690
 3861SOL     OW12328   3.581   5.070   5.382  0.4715  0.3540  0.8127
 3861SOL    HW112329   3.528   5.050   5.459  2.0471 -0.1502  1.8159
 3861SOL    HW212330   3.667   5.091   5.418  1.4722 -0.7214 -0.8629
 3862SOL     OW12331   0.531   3.040   1.904 -0.0936  0.0275 -0.0775
 3862SOL    HW112332   0.499   3.125   1.874  0.6664 -0.0425 -1.1146
 3862SOL    HW212333   0.556   2.994   1.824  1.4797 -0.3717  0.6140
 3863SOL     OW12334   5.449   4.940   1.999 -0.1751  0.3714 -0.4590
 3863SOL    HW112335   5.381   4.879   2.025  2.0080 -1.7561  0.7072
 3863SOL    HW212336   5.503   4.892   1.936  0.6169  1.7293 -0.8770
 3864SOL     OW12337   3.882   1.079   4.641 -0.2969  0.0265  0.5739
 3864SOL    HW112338   3.924   1.094   4.726  0.4748 -2.4112  0.7108
 3864SOL    HW212339   3.950   1.038   4.587 -1.0301  0.7300 -0.9543
 3865SOL     OW12340   3.476   1.983   2.666 -0.0816 -0.0852  0.1726
 3865SOL    HW112341   3.502   2.074   2.648  1.5741 -0.4108  0.7639
 3865SOL    HW212342   3.385   1.978   2.637  0.7016  0.9320 -2.7604
 3866SOL     OW12343   2.200   1.334   4.982 -0.4405  0.2783 -0.3771
 3866SOL    HW112344   2.149   1.324   4.902  0.4288  1.1499 -1.0579
 3866SOL    HW212345   2.268   1.398   4.960  0.8657 -0.7405  0.5385
 3867SOL     OW12346   4.576   1.479   2.379 -0.5262 -0.0382  0.5554
 3867SOL    HW112347   4.666   1.509   2.369 -1.3479  2.2213 -0.9639
 3867SOL    HW212348   4.577   1.423   2.457  1.9963  0.6138  1.0648
 3868SOL     OW12349   1.784   3.047   3.574 -0.1753 -0.5917  1.0512
 3868SOL    HW112350   1.853   3.109   3.600 -0.6490 -0.2478  1.5207
 3868SOL    HW212351   1.820   3.001   3.498 -0.2495  1.0537 -0.0308
 3869SOL     OW12352   3.532   1.057   1.270  0.5145 -0.1267  0.0709
 3869SOL    HW112353   3.525   0.961   1.274 -0.2654 -0.1640 -1.4563
 3869SOL    HW212354   3.528   1.085   1.361 -0.6848 -1.4602  0.4670
 3870SOL     OW12355   5.425   0.432   1.421  0.0550 -0.2692 -0.4347
 3870SOL    HW112356   5.352   0.377   1.394 -0.4356  0.2835 -0.2462
 3870SOL    HW212357   5.503   0.387   1.387 -0.2248 -1.7212  0.7433
 3871SOL     OW12358   0.659   1.649   0.378 -0.6345 -0.0235 -0.3192
 3871SOL    HW112359   0.683   1.584   0.444  0.6971  1.2168  0.4841
 3871SOL    HW212360   0.569   1.674   0.401 -1.3788 -1.9134 -0.9736
 3872SOL     OW12361   6.194   3.521   2.047 -0.2901  0.2969 -0.1617
 3872SOL    HW112362   6.203   3.497   2.139 -1.1000 -0.7270 -0.3289
 3872SOL    HW212363   6.121   3.584   2.046 -1.4099 -0.9462 -0.2632
 3873SOL     OW12364   0.211   5.456   2.983 -0.0619  0.0014 -0.3446
 3873SOL    HW112365   0.141   5.437   2.921 -0.2899 -2.4609  0.5536
 3873SOL    HW212366   0.285   5.405   2.953  0.4739  0.3815  0.2953
 3874SOL     OW12367   5.239   3.252   2.335 -0.1261 -0.0277 -0.2881
 3874SOL    HW112368   5.311   3.243   2.273 -0.0703 -0.6754 -0.1359
 3874SOL    HW212369   5.170   3.298   2.287 -0.5401 -1.5759 -1.2190
 3875SOL     OW12370   1.023   4.602   0.424  0.2399  0.0531  0.7308
 3875SOL    HW112371   1.085   4.532   0.446 -0.6036 -1.2682 -0.8269
 3875SOL    HW212372   1.078   4.678   0.405  1.2971 -0.6838  0.7560
 3876SOL     OW12373   1.000   5.760   2.976  0.1594  0.1714 -0.4743
 3876SOL    HW112374   0.966   5.790   3.061  1.4747 -1.6396  0.7753
 3876SOL    HW212375   1.065   5.826   2.952  0.1100  0.4597  0.1609
 3877SOL     OW12376   3.375   4.277   1.298 -0.0678  0.0795  0.0322
 3877SOL    HW112377   3.281   4.295   1.302  0.2474  1.9044  0.0631
 3877SOL    HW212378   3.414   4.335   1.363  1.2053  0.2508 -0.8381
 3878SOL     OW12379   5.682   2.751   5.257 -0.0102 -0.1956  0.2980
 3878SOL    HW112380   5.613   2.799   5.303 -0.5964  0.8308 -1.5197
 3878SOL    HW212381   5.715   2.814   5.192  1.7849 -1.0852  0.2859
 3879SOL     OW12382   2.086   1.259   2.133  0.0382  0.1199 -0.2564
 3879SOL    HW112383   2.121   1.173   2.154 -1.2528 -0.6534 -1.1498
 3879SOL    HW212384   2.036   1.284   2.211 -0.8987 -0.6669 -0.5859
 3880SOL     OW12385   4.270   2.220   5.699 -0.0234  0.1716  0.1430
 3880SOL    HW112386   4.295   2.135   5.734 -1.2671 -0.1741  0.2297
 3880SOL    HW212387   4.317   2.227   5.615 -0.3710 -0.8503 -0.1427
 3881SOL     OW12388   5.377   4.999   1.675 -0.0579 -0.0537 -0.0013
 3881SOL    HW112389   5.375   5.082   1.628 -0.2842  0.1177  0.3127
 3881SOL    HW212390   5.421   4.939   1.615  1.2121  0.5907  0.2464
 3882SOL     OW12391   4.580   0.804   3.813  0.1015  0.4037  0.0678
 3882SOL    HW112392   4.627   0.859   3.751 -0.0101 -1.3532 -1.7128
 3882SOL    HW212393   4.541   0.865   3.875 -1.4736  2.5291 -2.7438
 3883SOL     OW12394   5.992   3.177   1.755  0.3139 -0.6133 -0.1017
 3883SOL    HW112395   5.991   3.218   1.842  0.5246 -1.9716  0.5673
 3883SOL    HW212396   5.977   3.084   1.772 -0.5099 -0.7933 -1.6039
 3884SOL     OW12397   0.955   4.927   5.836 -0.0548  0.0088  0.4252
 3884SOL    HW112398   1.017   4.994   5.809 -0.6698  0.3936 -0.0525
 3884SOL    HW212399   0.874   4.975   5.855 -0.5971 -0.6154 -0.2286
 3885SOL     OW12400   6.234   5.852   5.748  0.1644 -0.0911  0.0967
 3885SOL    HW112401   6.219   5.783   5.682 -0.5958  0.7023 -0.5886
 3885SOL    HW212402   6.148   5.863   5.790 -0.0944  1.4209 -0.7850
 3886SOL     OW12403   2.100   2.833   5.120 -0.5848  0.1512 -0.0621
 3886SOL    HW112404   2.136   2.747   5.140  0.0056  0.2003 -0.8904
 3886SOL    HW212405   2.176   2.892   5.118 -1.0059  0.7480  0.7287
 3887SOL     OW12406   2.942   4.716   2.391  0.0821  0.8522 -0.5140
 3887SOL    HW112407   2.905   4.638   2.350  0.6383 -0.8237  1.9160
 3887SOL    HW212408   2.871   4.751   2.444  0.2188  1.2154 -0.5682
 3888SOL     OW12409   0.186   1.225   2.643 -0.2563 -0.1026  0.0712
 3888SOL    HW112410   0.277   1.252   2.652 -0.9543  2.1991  0.7040
 3888SOL    HW212411   0.186   1.133   2.672  1.6576  0.2006  1.2296
 3889SOL     OW12412   3.960   2.411   1.606 -0.1469 -0.4165 -0.6057
 3889SOL    HW112413   3.961   2.433   1.513 -0.0762 -0.8225 -0.7023
 3889SOL    HW212414   4.001   2.325   1.611  0.3559 -0.1560 -0.1316
 3890SOL     OW12415   1.409   2.319   5.339  0.2951  0.3804  0.3335
 3890SOL    HW112416   1.333   2.376   5.330  0.2292  0.1664 -0.5350
 3890SOL    HW212417   1.412   2.298   5.433 -0.9746  0.0362  0.3199
 3891SOL     OW12418   3.726   1.918   4.483  0.0702 -0.5056 -0.2281
 3891SOL    HW112419   3.758   1.871   4.406 -0.5638  0.5773 -1.1819
 3891SOL    HW212420   3.728   2.010   4.458  0.1910 -0.0986  1.1864
 3892SOL     OW12421   4.867   5.368   0.358 -0.1550 -0.5333  0.1563
 3892SOL    HW112422   4.879   5.275   0.342 -1.2517 -0.6775  0.1088
 3892SOL    HW212423   4.819   5.400   0.281 -3.0170 -0.6795  1.7345
 3893SOL     OW12424   3.135   6.076   4.382  0.3777  0.3839 -0.0866
 3893SOL    HW112425   3.181   6.156   4.409  0.6968  1.0969 -2.5153
 3893SOL    HW212426   3.059   6.107   4.334  0.9882 -0.6987 -1.8621
 3894SOL     OW12427   5.808   3.497   1.926  0.3879 -0.2665  0.5253
 3894SOL    HW112428   5.773   3.576   1.967 -0.3578  0.0306 -0.6261
 3894SOL    HW212429   5.880   3.528   1.871 -0.3307 -0.2854 -0.4427
 3895SOL     OW12430   0.142   3.197   3.564 -0.0231  0.0437  0.5112
 3895SOL    HW112431   0.212   3.244   3.608  0.9690  2.6862 -3.4215
 3895SOL    HW212432   0.187   3.134   3.508 -0.9482 -0.1933  0.0193
 3896SOL     OW12433   1.787   2.668   2.444 -0.6447  0.3997  0.2410
 3896SOL    HW112434   1.838   2.588   2.456 -2.2745 -0.3945  2.5529
 3896SOL    HW212435   1.696   2.639   2.449 -1.3242  2.1739 -0.8115
 3897SOL     OW12436   5.930   4.108   3.926  0.2145  0.2309 -0.2531
 3897SOL    HW112437   5.925   4.203   3.917 -0.4133  0.1880 -0.3960
 3897SOL    HW212438   6.023   4.088   3.912  0.2965  0.7898 -0.5646
 3898SOL     OW12439   3.701   6.098   5.653 -0.2477  0.1073  0.6921
 3898SOL    HW112440   3.780   6.047   5.637 -0.8431 -0.5677 -0.1872
 3898SOL    HW212441   3.695   6.105   5.748  0.2202 -0.8837  0.8062
 3899SOL     OW12442   1.855   2.339   5.229  0.2034 -0.4263  0.2852
 3899SOL    HW112443   1.852   2.387   5.146 -0.8051 -0.6742  0.1618
 3899SOL    HW212444   1.764   2.338   5.259  0.2352 -2.0293  0.4116
 3900SOL     OW12445   0.139   4.472   2.174 -0.1278  0.2915 -0.0068
 3900SOL    HW112446   0.141   4.405   2.243  2.7329  0.6450  0.3901
 3900SOL    HW212447   0.098   4.548   2.215 -1.3411 -0.4720  0.2522
 3901SOL     OW12448   2.237   1.090   2.602 -0.1462  0.3534 -0.3440
 3901SOL    HW112449   2.144   1.083   2.621  0.1114 -1.5061  0.3559
 3901SOL    HW212450   2.262   1.005   2.567  1.1842  1.0088 -1.1094
 3902SOL     OW12451   0.855   1.263   5.144 -0.5682 -0.3373 -0.5141
 3902SOL    HW112452   0.938   1.302   5.114 -0.4113 -0.6954 -0.5570
 3902SOL    HW212453   0.844   1.187   5.087  0.2507 -1.6233  0.9744
 3903SOL     OW12454   4.089   5.749   5.745  0.5528  0.0993 -0.2607
 3903SOL    HW112455   4.183   5.764   5.752  0.5316  0.1671 -0.1078
 3903SOL    HW212456   4.065   5.706   5.828  0.9060 -2.3293 -1.3274
 3904SOL     OW12457   1.587   3.517   1.682  0.6548 -0.0993 -0.1307
 3904SOL    HW112458   1.628   3.464   1.614  2.5746  1.5059 -0.2907
 3904SOL    HW212459   1.529   3.577   1.635 -1.1122 -1.6061  0.0136
 3905SOL     OW12460   4.989   4.509   1.726 -0.0066 -0.2000  0.4526
 3905SOL    HW112461   5.054   4.471   1.785  0.2521 -1.1705 -0.4300
 3905SOL    HW212462   5.019   4.599   1.712  1.7176 -0.8941 -0.6686
 3906SOL     OW12463   3.388   1.031   5.475 -0.4859  0.1860  0.5521
 3906SOL    HW112464   3.309   1.032   5.421 -0.8426  2.6680  1.0274
 3906SOL    HW212465   3.397   1.121   5.507  3.4689  0.5054 -0.8532
 3907SOL     OW12466   3.020   3.977   5.417  0.0747 -0.4999 -0.8988
 3907SOL    HW112467   3.023   4.059   5.466  0.1190 -0.0432 -1.6488
 3907SOL    HW212468   3.109   3.967   5.382  0.0210 -0.7780 -0.9605
 3908SOL     OW12469   4.886   2.295   4.683 -0.1234  0.0172  0.0449
 3908SOL    HW112470   4.916   2.267   4.769 -1.8913 -1.2388  0.3129
 3908SOL    HW212471   4.793   2.273   4.682 -0.6675  2.0475 -1.3714
 3909SOL     OW12472   5.864   2.550   5.767  0.4498  0.2489 -0.5327
 3909SOL    HW112473   5.956   2.555   5.789  0.6783  2.4749 -1.6948
 3909SOL    HW212474   5.860   2.569   5.673 -1.0696 -1.3468 -0.8430
 3910SOL     OW12475   1.631   0.521   6.069  0.8087  0.0394  0.1348
 3910SOL    HW112476   1.696   0.489   6.131  1.0006  2.0675  1.0883
 3910SOL    HW212477   1.550   0.475   6.092  1.8134 -2.4902 -1.0435
 3911SOL     OW12478   0.375   1.440   0.218  0.0925  0.7795 -0.3621
 3911SOL    HW112479   0.345   1.398   0.137  0.5002 -0.3163  0.0261
 3911SOL    HW212480   0.415   1.368   0.268 -0.5037  1.3549  0.9861
 3912SOL     OW12481   3.228   6.024   1.258  0.6212  0.3094  0.0053
 3912SOL    HW112482   3.313   6.030   1.214  0.3440 -1.7013 -0.9106
 3912SOL    HW212483   3.163   6.028   1.188  0.0276  0.1712  0.5352
 3913SOL     OW12484   0.468   3.637   2.321  0.5996 -0.1648  1.2677
 3913SOL    HW112485   0.434   3.571   2.381  0.6908 -0.4879  0.9697
 3913SOL    HW212486   0.433   3.612   2.235 -0.8558  1.2026  1.4136
 3914SOL     OW12487   2.651   6.235   3.520  0.0501 -0.2098 -0.4123
 3914SOL    HW112488   2.610   6.247   3.606  0.4639 -2.2437  0.1382
 3914SOL    HW212489   2.740   6.205   3.541  0.2732 -0.3643 -1.5487
 3915SOL     OW12490   2.089   3.325   4.843  0.6963 -0.0712  0.6075
 3915SOL    HW112491   2.175   3.359   4.867  0.8779 -0.5967  0.7073
 3915SOL    HW212492   2.060   3.277   4.921 -0.8685  2.3129  1.6232
 3916SOL     OW12493   0.587   5.221   1.061 -0.2142  0.4846  0.0034
 3916SOL    HW112494   0.499   5.212   1.024  0.1496 -1.7076 -0.4484
 3916SOL    HW212495   0.572   5.248   1.151 -1.3422  0.5006 -0.1660
 3917SOL     OW12496   4.850   3.985   3.068 -0.3677  0.1263 -0.1475
 3917SOL    HW112497   4.910   3.918   3.036 -0.8397  0.3996 -1.6678
 3917SOL    HW212498   4.816   3.950   3.151 -0.4576 -1.4178 -0.8151
 3918SOL     OW12499   0.676   5.054   2.856 -0.2728  0.1662 -0.8301
 3918SOL    HW112500   0.633   5.111   2.792 -0.6160 -1.7837 -2.4452
 3918SOL    HW212501   0.626   4.972   2.852  0.6522 -0.5238  0.8552
 3919SOL     OW12502   3.981   3.664   6.025  0.1869  0.3622 -0.2121
 3919SOL    HW112503   4.046   3.616   6.076 -1.0014 -0.6257  0.4342
 3919SOL    HW212504   4.028   3.695   5.948  1.5110  0.0472  0.4381
 3920SOL     OW12505   3.841   3.331   3.076  0.0757 -0.1659  0.5837
 3920SOL    HW112506   3.921   3.281   3.084 -0.8804 -1.7259  0.8178
 3920SOL    HW212507   3.820   3.358   3.165 -0.6386 -1.4047  0.8161
 3921SOL     OW12508   4.012   0.670   0.253 -0.0739 -0.4351 -0.4124
 3921SOL    HW112509   4.063   0.742   0.215 -1.5092  0.3238 -0.9647
 3921SOL    HW212510   4.008   0.690   0.347 -0.3247  0.1147 -0.5391
 3922SOL     OW12511   1.748   6.157   1.545 -0.3260 -0.1199  0.2819
 3922SOL    HW112512   1.704   6.168   1.460  0.8042 -1.1188 -0.4787
 3922SOL    HW212513   1.680   6.126   1.604 -1.0315  0.0917 -0.4066
 3923SOL     OW12514   0.481   1.340   2.772 -0.1742 -0.3606  0.3899
 3923SOL    HW112515   0.482   1.250   2.804 -3.0014 -0.4572  0.5123
 3923SOL    HW212516   0.530   1.389   2.837  1.5559 -1.8062  0.2332
 3924SOL     OW12517   0.121   2.585   2.657  0.0641  0.1060  0.1629
 3924SOL    HW112518   0.215   2.572   2.672  0.3315  0.9517 -0.6834
 3924SOL    HW212519   0.110   2.571   2.563 -0.6372  0.1478  0.2390
 3925SOL     OW12520   4.241   4.175   2.727 -0.0911 -0.2069  0.1521
 3925SOL    HW112521   4.217   4.239   2.794  0.2112 -0.8741  0.9312
 3925SOL    HW212522   4.336   4.164   2.737 -0.1095 -0.6291 -0.0942
 3926SOL     OW12523   0.042   0.978   1.085 -0.5442 -0.1050 -0.2492
 3926SOL    HW112524   0.006   0.927   1.013  0.4058 -1.7665  0.4088
 3926SOL    HW212525   0.114   0.925   1.118  2.0800  2.6899 -1.0280
 3927SOL     OW12526   0.975   2.885   4.913 -0.7331 -0.6094  0.1651
 3927SOL    HW112527   1.034   2.881   4.838  0.7052  0.2168  1.2116
 3927SOL    HW212528   0.896   2.928   4.879 -0.1364 -0.3262 -0.8848
 3928SOL     OW12529   6.124   2.574   5.851 -0.6425 -0.3426  0.3380
 3928SOL    HW112530   6.161   2.635   5.914 -0.5802 -1.8293  1.8059
 3928SOL    HW212531   6.164   2.599   5.767  1.5069 -0.1175  1.3661
 3929SOL     OW12532   5.773   0.963   4.352 -0.0758 -0.3750 -0.2859
 3929SOL    HW112533   5.805   1.028   4.414 -0.1555 -1.8107  1.3373
 3929SOL    HW212534   5.845   0.900   4.345 -0.2901 -0.5194 -1.2350
 3930SOL     OW12535   5.111   5.452   0.400  0.1749 -0.2177  0.1151
 3930SOL    HW112536   5.020   5.424   0.391  0.4219 -0.5278 -2.0378
 3930SOL    HW212537   5.143   5.407   0.478 -1.0759 -1.3764 -0.0097
 3931SOL     OW12538   5.903   0.663   2.567  0.4457  0.2223 -0.5855
 3931SOL    HW112539   5.956   0.650   2.645  2.2618  0.1090 -1.7876
 3931SOL    HW212540   5.856   0.745   2.583 -0.3041 -0.5057  1.1786
 3932SOL     OW12541   0.465   4.574   6.200  0.0495 -0.0853 -0.2857
 3932SOL    HW112542   0.553   4.610   6.211  0.4195 -1.3882  1.5464
 3932SOL    HW212543   0.462   4.547   6.108  1.2348  0.7614 -0.5996
 3933SOL     OW12544   3.940   6.242   3.050  0.1571  0.5415  0.4387
 3933SOL    HW112545   3.989   6.218   3.129  0.1193  0.7673  0.5302
 3933SOL    HW212546   3.966   6.176   2.985 -0.6589 -0.3241  0.9575
 3934SOL     OW12547   0.582   6.116   6.049  0.2373 -0.2731  0.1541
 3934SOL    HW112548   0.497   6.153   6.025  0.5390  0.9228  0.7962
 3934SOL    HW212549   0.576   6.024   6.027 -1.8112 -0.5673  1.6441
 3935SOL     OW12550   0.973   5.361   0.306 -0.2260 -0.3834  0.1807
 3935SOL    HW112551   0.974   5.366   0.210 -0.0564  0.3348  0.2126
 3935SOL    HW212552   0.953   5.450   0.334 -0.3840 -0.6160  0.8155
 3936SOL     OW12553   1.249   4.716   2.750 -0.1720 -0.5281  0.0726
 3936SOL    HW112554   1.280   4.701   2.661 -1.7432  0.8581 -0.7630
 3936SOL    HW212555   1.156   4.738   2.740 -0.3611 -0.2219  2.0384
 3937SOL     OW12556   4.259   1.480   2.348 -0.0486 -0.5264  0.1444
 3937SOL    HW112557   4.245   1.449   2.438 -0.9513 -0.6435 -0.0283
 3937SOL    HW212558   4.347   1.518   2.349  0.3358 -1.3943  0.8385
 3938SOL     OW12559   1.166   3.410   3.507 -0.2361  0.3952 -0.2373
 3938SOL    HW112560   1.111   3.440   3.580 -0.4476  1.4422 -0.8055
 3938SOL    HW212561   1.122   3.444   3.429  0.8934  0.7329 -0.7446
 3939SOL     OW12562   2.495   0.461   2.522 -0.1121 -0.1540  0.3281
 3939SOL    HW112563   2.514   0.399   2.593 -1.3536 -2.3191 -1.1171
 3939SOL    HW212564   2.540   0.425   2.446 -2.9583 -0.8518 -1.1721
 3940SOL     OW12565   0.157   4.118   3.956 -0.1430  0.4118  0.3613
 3940SOL    HW112566   0.195   4.031   3.949 -1.7400 -0.3051  0.0530
 3940SOL    HW212567   0.215   4.166   4.014  2.2251 -0.0122 -1.5203
 3941SOL     OW12568   3.549   0.040   3.201 -0.0017 -0.3104 -0.3265
 3941SOL    HW112569   3.588  -0.025   3.259 -2.0330 -1.8487 -0.5866
 3941SOL    HW212570   3.483   0.084   3.255 -1.1965 -1.0548 -1.1423
 3942SOL     OW12571   1.487   1.070   0.225 -0.2111 -0.1317 -0.7844
 3942SOL    HW112572   1.441   1.020   0.157 -0.9019 -0.4211 -0.1078
 3942SOL    HW212573   1.457   1.033   0.307  1.4464 -0.5139 -0.3100
 3943SOL     OW12574   2.991   0.827   1.512  0.1975 -0.1507 -0.2446
 3943SOL    HW112575   2.914   0.784   1.474  0.0461 -1.6145  1.5820
 3943SOL    HW212576   2.954   0.894   1.570  0.3763  0.3894 -0.7361
 3944SOL     OW12577   0.694   4.079   2.595 -0.3726 -0.2166  0.0698
 3944SOL    HW112578   0.656   4.010   2.649  0.5443  0.6921  1.9769
 3944SOL    HW212579   0.691   4.157   2.651  1.8955  0.4595 -0.6661
 3945SOL     OW12580   2.241   4.992   1.861  0.1063  0.6974 -0.3776
 3945SOL    HW112581   2.263   5.085   1.872 -0.0049  0.5484  1.3710
 3945SOL    HW212582   2.196   4.988   1.776  1.2163  2.0201 -1.0683
 3946SOL     OW12583   1.013   0.276   5.491 -0.2908 -0.1512 -0.2541
 3946SOL    HW112584   0.977   0.188   5.484 -0.3563 -0.0639 -1.1337
 3946SOL    HW212585   1.039   0.299   5.401  0.4185  0.4305  0.0831
 3947SOL     OW12586   5.910   2.106   2.605 -0.0391  0.9838  0.1289
 3947SOL    HW112587   5.992   2.129   2.562 -0.1124  0.3502 -0.3629
 3947SOL    HW212588   5.848   2.173   2.576  0.2598  1.3734  0.3808
 3948SOL     OW12589   2.083   2.743   4.750 -0.1011  0.0416 -0.3063
 3948SOL    HW112590   2.101   2.731   4.657  0.7262  0.5299 -0.2138
 3948SOL    HW212591   2.007   2.802   4.752 -1.1945 -1.2930 -0.6807
 3949SOL     OW12592   5.650   2.240   2.828  0.3997 -0.2648 -0.3769
 3949SOL    HW112593   5.636   2.266   2.919 -1.4611  0.4238 -0.8178
 3949SOL    HW212594   5.710   2.165   2.833 -2.0274 -2.2295  1.6438
 3950SOL     OW12595   4.202   4.979   1.531 -0.1583 -0.3354 -0.1828
 3950SOL    HW112596   4.213   4.900   1.584  0.9314  0.2625  0.4999
 3950SOL    HW212597   4.162   4.947   1.450  2.1416 -1.9296 -0.8001
 3951SOL     OW12598   4.203   5.749   3.962  0.2801  0.3439  0.1009
 3951SOL    HW112599   4.252   5.677   3.922 -0.2196  0.0931 -0.0722
 3951SOL    HW212600   4.269   5.801   4.008  0.8404  0.4937 -0.8356
 3952SOL     OW12601   5.899   3.667   5.053 -0.4044 -0.8283 -0.2037
 3952SOL    HW112602   5.869   3.671   4.962  1.7388  1.2354 -0.9056
 3952SOL    HW212603   5.907   3.759   5.080 -0.7787 -1.3841  2.0345
 3953SOL     OW12604   1.002   5.890   1.548  0.3807 -0.0710 -0.6249
 3953SOL    HW112605   1.049   5.809   1.565 -0.1435 -0.0587  1.1638
 3953SOL    HW212606   1.066   5.947   1.504  0.6818 -1.4836 -2.0957
 3954SOL     OW12607   4.797   4.411   5.601 -0.0082 -0.0569  0.0551
 3954SOL    HW112608   4.775   4.455   5.683  1.4373  1.4826 -0.3273
 3954SOL    HW212609   4.765   4.469   5.533  1.3106  0.0966 -0.4618
 3955SOL     OW12610   5.552   4.868   4.647 -0.2062 -0.6602 -0.3861
 3955SOL    HW112611   5.574   4.831   4.732 -2.4324 -0.6312  0.2669
 3955SOL    HW212612   5.622   4.838   4.589  1.2337 -0.8952  1.3673
 3956SOL     OW12613   3.478   4.952   5.946 -0.0642  0.3378  0.4330
 3956SOL    HW112614   3.486   4.948   6.042 -0.1252  2.6693  0.5835
 3956SOL    HW212615   3.442   5.038   5.928  2.5944  1.1481 -1.8190
 3957SOL     OW12616   0.341   4.926   3.234 -0.0459  1.3961 -0.5711
 3957SOL    HW112617   0.430   4.893   3.247 -0.9840 -0.9709  0.4673
 3957SOL    HW212618   0.312   4.953   3.321 -0.9735  0.3241 -0.5245
 3958SOL     OW12619   4.656   5.644   1.455 -0.0706 -0.2093  0.5581
 3958SOL    HW112620   4.665   5.716   1.393  0.4585 -0.3835  0.4254
 3958SOL    HW212621   4.562   5.630   1.461 -0.1408 -0.0891 -0.0987
 3959SOL     OW12622   3.550   5.650   0.813  0.3610  0.2887  0.2798
 3959SOL    HW112623   3.473   5.647   0.869 -0.1981 -2.6123 -0.4603
 3959SOL    HW212624   3.517   5.680   0.728 -0.0140 -1.0225 -0.0570
 3960SOL     OW12625   5.366   2.717   5.098  0.0484 -0.5777  0.3829
 3960SOL    HW112626   5.459   2.734   5.081 -0.2604 -0.3470 -1.2559
 3960SOL    HW212627   5.326   2.804   5.093 -0.5354 -0.9115 -0.9651
 3961SOL     OW12628   1.838   4.936   0.973 -0.2404  0.1256 -0.2783
 3961SOL    HW112629   1.930   4.914   0.957 -0.2020  0.2018 -0.1627
 3961SOL    HW212630   1.834   5.031   0.962 -0.5337 -0.0026 -1.4098
 3962SOL     OW12631   4.481   2.940   5.142  0.8905 -0.3856  0.5275
 3962SOL    HW112632   4.472   2.963   5.235 -0.4972 -0.6550  0.4758
 3962SOL    HW212633   4.519   2.852   5.142 -0.2169 -0.8743  0.8747
 3963SOL     OW12634   5.951   0.993   0.774  0.3125 -0.1505 -0.1434
 3963SOL    HW112635   5.962   1.084   0.802 -2.4980 -0.3063  1.9362
 3963SOL    HW212636   5.947   0.998   0.678  1.5054  1.6895 -0.1504
 3964SOL     OW12637   5.733   1.937   0.003 -0.5772  0.8813  0.0371
 3964SOL    HW112638   5.664   1.901   0.060 -1.0221  2.0779  0.2925
 3964SOL    HW212639   5.802   1.963   0.063 -0.6623  1.3167 -0.0535
 3965SOL     OW12640   4.548   5.315   3.928 -0.4618 -0.3511 -0.0459
 3965SOL    HW112641   4.533   5.373   3.854 -0.0950  0.0594  0.1994
 3965SOL    HW212642   4.567   5.230   3.887  1.1677  0.1890 -0.4835
 3966SOL     OW12643   5.655   1.556   5.075  0.3052 -0.0012 -0.4013
 3966SOL    HW112644   5.716   1.630   5.079  0.3573 -0.0896  1.5222
 3966SOL    HW212645   5.600   1.574   4.999  0.7991  1.6397 -0.4079
 3967SOL     OW12646   3.981   5.285   0.755 -0.3506 -0.1511 -0.1249
 3967SOL    HW112647   4.012   5.225   0.822  0.4823 -0.8366 -1.1070
 3967SOL    HW212648   4.060   5.320   0.714 -0.8450 -0.0766 -1.0466
 3968SOL     OW12649   1.384   3.044   4.962  0.7138  0.0857 -0.0572
 3968SOL    HW112650   1.458   3.002   4.917 -1.6390 -2.8954 -1.4520
 3968SOL    HW212651   1.365   2.986   5.035 -0.0767  0.9920  0.4709
 3969SOL     OW12652   0.667   4.119   4.862 -0.4992  0.1487  0.2089
 3969SOL    HW112653   0.585   4.070   4.863 -0.3709 -0.0665  0.3127
 3969SOL    HW212654   0.735   4.052   4.867 -0.3408  0.3802  1.8587
 3970SOL     OW12655   1.899   4.191   5.437  0.2895  0.1708 -0.6718
 3970SOL    HW112656   1.948   4.253   5.492 -0.4387  1.0753 -1.0157
 3970SOL    HW212657   1.807   4.217   5.448 -0.0588 -1.0032 -0.6462
 3971SOL     OW12658   0.354   6.058   3.861 -0.5429  0.5140 -0.8035
 3971SOL    HW112659   0.357   6.129   3.796  0.7228  2.0778  0.8403
 3971SOL    HW212660   0.332   6.103   3.943  0.3825 -0.9840  0.3077
 3972SOL     OW12661   5.162   5.369   4.125  0.5957 -0.7586 -0.5921
 3972SOL    HW112662   5.256   5.370   4.142  0.6475 -0.8346 -0.8653
 3972SOL    HW212663   5.150   5.427   4.050  0.3967 -0.5882 -0.4302
 3973SOL     OW12664   4.139   3.662   1.619 -0.5026  0.1633 -0.1429
 3973SOL    HW112665   4.149   3.574   1.656 -0.4788 -0.0712 -0.6945
 3973SOL    HW212666   4.172   3.654   1.530 -2.8460  0.0750 -1.0927
 3974SOL     OW12667   2.022   5.081   5.935 -0.5620 -0.3480  0.2264
 3974SOL    HW112668   2.116   5.101   5.935 -0.0658 -2.4139  1.2579
 3974SOL    HW212669   1.979   5.166   5.933  1.3441  0.7159  1.5793
 3975SOL     OW12670   5.182   2.793   2.458 -0.0816  0.2575 -0.1268
 3975SOL    HW112671   5.107   2.735   2.465  0.0795 -0.1872 -1.6366
 3975SOL    HW212672   5.244   2.762   2.524 -1.1713  0.5762  1.0678
 3976SOL     OW12673   1.460   0.591   1.567  0.6953 -0.5965  0.6755
 3976SOL    HW112674   1.504   0.533   1.629 -1.7886 -2.0279  1.2448
 3976SOL    HW212675   1.480   0.554   1.481  1.8796 -0.2444  0.7784
 3977SOL     OW12676   3.973   3.570   4.810 -0.4414 -0.3522  0.4694
 3977SOL    HW112677   4.036   3.538   4.875 -0.2479 -0.6641  0.1298
 3977SOL    HW212678   3.955   3.495   4.755  0.0963  0.1358 -0.3971
 3978SOL     OW12679   5.838   1.415   4.537  0.1665 -0.0450 -0.0043
 3978SOL    HW112680   5.934   1.413   4.547  0.1315 -3.1590  0.6589
 3978SOL    HW212681   5.806   1.445   4.622  0.5481 -2.9180  1.2748
 3979SOL     OW12682   2.104   2.170   3.440 -0.2939 -0.1477  0.2868
 3979SOL    HW112683   2.021   2.193   3.481 -0.3411  0.4790 -0.1345
 3979SOL    HW212684   2.134   2.252   3.401  0.2142 -0.5140 -0.1016
 3980SOL     OW12685   4.121   1.440   4.616  0.2321  0.2880 -0.3114
 3980SOL    HW112686   4.149   1.416   4.527  0.0230  0.8627 -0.5408
 3980SOL    HW212687   4.033   1.475   4.604  0.4738  1.0285  0.0228
 3981SOL     OW12688   4.021   3.809   5.753  0.2639  0.5107 -0.0601
 3981SOL    HW112689   4.080   3.849   5.690 -0.1966 -0.0338 -0.8499
 3981SOL    HW212690   3.948   3.775   5.701 -0.0358 -0.1116  0.7320
 3982SOL     OW12691   5.933   4.222   5.818  0.2831 -0.5542 -0.1327
 3982SOL    HW112692   5.971   4.214   5.905  0.8336  0.0535 -0.3101
 3982SOL    HW212693   5.881   4.302   5.821 -1.6177 -1.7410  0.3244
 3983SOL     OW12694   3.211   4.591   0.056 -0.4528 -0.1265  0.3300
 3983SOL    HW112695   3.202   4.499   0.080  0.1655  0.1936  1.8667
 3983SOL    HW212696   3.306   4.606   0.054 -0.5363  0.3441 -0.4797
 3984SOL     OW12697   0.751   1.521   2.491  0.8232 -0.4059 -0.3008
 3984SOL    HW112698   0.777   1.512   2.583  2.7125  1.2549 -0.6142
 3984SOL    HW212699   0.705   1.604   2.486 -0.4318 -1.1021 -0.6449
 3985SOL     OW12700   1.141   6.216   1.137  0.0117 -0.3142 -0.2263
 3985SOL    HW112701   1.116   6.164   1.060  1.1068 -2.5218  0.8268
 3985SOL    HW212702   1.236   6.221   1.132 -0.0409  1.1435  0.0241
 3986SOL     OW12703   2.589   0.419   5.666 -0.2809  0.1371 -0.0286
 3986SOL    HW112704   2.678   0.412   5.700 -0.3517  2.0643  0.6641
 3986SOL    HW212705   2.561   0.328   5.653  2.2341 -0.5239 -1.5173
 3987SOL     OW12706   2.572   2.435   0.798  0.1554 -0.1945 -0.5042
 3987SOL    HW112707   2.637   2.439   0.727  1.0189 -0.4360  0.2469
 3987SOL    HW212708   2.606   2.496   0.864 -0.0219 -0.8224  0.1820
 3988SOL     OW12709   2.008   4.843   2.332 -0.4259  0.1403  0.4055
 3988SOL    HW112710   2.102   4.860   2.333 -0.6259  1.2910  0.5956
 3988SOL    HW212711   1.968   4.927   2.309 -1.3859 -0.4862 -0.2877
 3989SOL     OW12712   3.187   2.593   3.579  0.5279 -0.1457  0.0330
 3989SOL    HW112713   3.135   2.606   3.500 -0.5862  0.5982  0.8516
 3989SOL    HW212714   3.124   2.561   3.644  0.9726  1.2099  1.1806
 3990SOL     OW12715   5.068   4.315   1.271  0.6159  0.3893 -0.4677
 3990SOL    HW112716   5.151   4.278   1.240  0.7745 -0.4138  0.8321
 3990SOL    HW212717   5.081   4.329   1.365 -0.5828  0.6374 -0.3214
 3991SOL     OW12718   4.427   2.463   0.432  0.1563  0.2616  0.7177
 3991SOL    HW112719   4.387   2.385   0.472  1.3298  0.2383  1.9194
 3991SOL    HW212720   4.492   2.428   0.371  1.4973  0.2479  2.0977
 3992SOL     OW12721   5.045   5.481   4.813  0.2726 -0.6509  0.0039
 3992SOL    HW112722   4.952   5.503   4.811  0.6716  1.1168 -0.8271
 3992SOL    HW212723   5.071   5.495   4.904  0.0262  0.3043 -0.0601
 3993SOL     OW12724   5.670   3.139   5.852 -0.2557 -0.0078 -0.5027
 3993SOL    HW112725   5.725   3.132   5.930 -1.1033  0.6395  0.1774
 3993SOL    HW212726   5.582   3.154   5.886 -0.5080  1.2027 -1.6014
 3994SOL     OW12727   3.793   3.937   4.443  0.3895  0.9467 -0.1695
 3994SOL    HW112728   3.857   3.871   4.472  0.2950  0.2617 -1.4308
 3994SOL    HW212729   3.761   3.976   4.524 -1.4497 -2.3343  0.8952
 3995SOL     OW12730   5.544   4.350   2.827 -0.0640  0.3976  0.4618
 3995SOL    HW112731   5.555   4.360   2.733  0.8727 -1.1656  0.3793
 3995SOL    HW212732   5.633   4.342   2.862 -0.2939  2.6045  1.7160
 3996SOL     OW12733   5.077   3.338   2.143 -0.4104 -0.1263 -0.2121
 3996SOL    HW112734   5.049   3.427   2.124 -0.9097 -0.1654  0.3313
 3996SOL    HW212735   5.004   3.282   2.116 -0.4490 -0.3050  0.2478
 3997SOL     OW12736   1.643   4.354   1.545 -0.0115  0.2074  0.1820
 3997SOL    HW112737   1.650   4.258   1.546  1.2805  0.2956  0.5334
 3997SOL    HW212738   1.556   4.371   1.582  0.6511 -0.7822  2.4086
 3998SOL     OW12739   5.785   0.265   1.079 -0.5069  0.3020 -0.5912
 3998SOL    HW112740   5.825   0.308   1.155  0.6018 -0.7410 -0.5578
 3998SOL    HW212741   5.704   0.315   1.063 -1.1557  0.0984  1.7119
 3999SOL     OW12742   1.295   4.338   3.691  0.1997 -0.5295  0.3845
 3999SOL    HW112743   1.240   4.415   3.707 -0.3905 -0.7969 -0.3026
 3999SOL    HW212744   1.376   4.374   3.656  0.4574 -0.1331  1.3499
 4000SOL     OW12745   4.009   2.983   2.465 -0.1380 -0.1736 -0.0297
 4000SOL    HW112746   4.028   2.894   2.495 -0.5512  0.0338  0.8806
 4000SOL    HW212747   4.018   3.037   2.544 -1.3156  0.3788 -0.2551
 4001SOL     OW12748   1.653   2.161   4.682 -0.2657  0.5393  0.2329
 4001SOL    HW112749   1.620   2.216   4.611 -1.4224  2.2352  1.9751
 4001SOL    HW212750   1.748   2.167   4.674 -0.3723  0.8864 -1.0176
 4002SOL     OW12751   1.025   2.317   1.115  0.1641  0.0457 -0.5585
 4002SOL    HW112752   1.099   2.320   1.176 -0.7469 -1.5268  0.7056
 4002SOL    HW212753   1.040   2.237   1.064  0.5983  1.0299 -2.0451
 4003SOL     OW12754   5.778   3.899   6.212 -0.3513  0.3380  0.5730
 4003SOL    HW112755   5.863   3.872   6.178 -0.5992  0.7318 -0.3637
 4003SOL    HW212756   5.798   3.961   6.282  0.2098 -1.6361  2.2501
 4004SOL     OW12757   3.880   2.605   5.453  0.3913 -0.7512 -0.1556
 4004SOL    HW112758   3.930   2.648   5.383  0.2127  0.8331  0.6367
 4004SOL    HW212759   3.909   2.514   5.451  1.7537 -0.3366 -1.0737
 4005SOL     OW12760   2.658   3.361   3.555 -0.1506 -0.0720 -0.2610
 4005SOL    HW112761   2.674   3.395   3.643 -1.1555 -0.4811  0.0896
 4005SOL    HW212762   2.709   3.280   3.551  1.1736  0.7455 -0.6323
 4006SOL     OW12763   1.390   1.002   1.250  0.6512 -0.9001 -0.7249
 4006SOL    HW112764   1.473   0.965   1.221  0.9760 -0.7211 -0.0389
 4006SOL    HW212765   1.404   1.023   1.343  0.5144  0.9613 -1.0821
 4007SOL     OW12766   2.432   2.223   0.077  0.8677 -0.3823  0.6120
 4007SOL    HW112767   2.396   2.247   0.162  1.8955 -0.9085  1.2117
 4007SOL    HW212768   2.521   2.191   0.096  1.3710  0.1426 -0.7259
 4008SOL     OW12769   1.260   3.475   0.210 -0.2749 -0.1365 -0.1198
 4008SOL    HW112770   1.268   3.387   0.173  0.0996  0.0759 -0.5622
 4008SOL    HW212771   1.349   3.497   0.236 -0.6597 -0.6207  1.7427
 4009SOL     OW12772   2.028   0.608   5.044 -0.0692 -0.0095 -0.3583
 4009SOL    HW112773   2.107   0.593   4.991 -0.7552  1.0023 -1.7219
 4009SOL    HW212774   2.049   0.685   5.097  0.6014 -0.9971  0.8878
 4010SOL     OW12775   2.747   1.370   2.470 -0.2408 -0.0128  0.5537
 4010SOL    HW112776   2.804   1.294   2.475 -0.5039 -0.2033  0.6698
 4010SOL    HW212777   2.658   1.335   2.478 -0.6470 -0.1164 -2.9611
 4011SOL     OW12778   0.555   5.915   3.993 -0.5642 -0.1587  0.0285
 4011SOL    HW112779   0.479   5.941   3.941 -0.0719 -0.5367 -0.9058
 4011SOL    HW212780   0.595   5.997   4.020 -1.6201  0.0611  1.0502
 4012SOL     OW12781   5.204   1.752   2.431  0.1090 -0.0920 -0.0035
 4012SOL    HW112782   5.184   1.686   2.497 -0.1420  0.7383  0.7795
 4012SOL    HW212783   5.254   1.706   2.364 -1.0061 -1.3130 -0.0247
 4013SOL     OW12784   2.437   5.008   0.575  0.1054  0.2807 -0.0144
 4013SOL    HW112785   2.350   4.989   0.612  0.4043 -0.3307  0.3982
 4013SOL    HW212786   2.452   5.100   0.594  0.0340  0.1059  0.9536
 4014SOL     OW12787   0.660   5.721   4.898  0.3925  0.5071  0.2391
 4014SOL    HW112788   0.656   5.813   4.875  1.6654  1.7214  4.0331
 4014SOL    HW212789   0.752   5.705   4.920  0.4338 -2.0410 -1.2954
 4015SOL     OW12790   5.752   2.283   2.487  0.0267 -0.6011  0.6955
 4015SOL    HW112791   5.701   2.346   2.436 -0.5107 -1.5578  0.0252
 4015SOL    HW212792   5.804   2.337   2.547  0.6268  0.5561 -0.8085
 4016SOL     OW12793   0.463   5.296   1.607 -0.0532 -0.5247 -0.0860
 4016SOL    HW112794   0.416   5.227   1.654 -2.6144  0.7617 -0.6025
 4016SOL    HW212795   0.556   5.272   1.615 -0.7480 -3.1022  1.1364
 4017SOL     OW12796   4.156   4.497   4.160 -0.0849  0.1271  0.5843
 4017SOL    HW112797   4.191   4.409   4.164  0.6850  0.4268  0.4906
 4017SOL    HW212798   4.177   4.536   4.245  2.3696  1.2437 -0.4234
 4018SOL     OW12799   2.794   1.334   3.750 -0.4236 -0.3343 -0.0501
 4018SOL    HW112800   2.865   1.270   3.743 -0.7164 -0.5899 -0.8316
 4018SOL    HW212801   2.762   1.326   3.840  2.0052  1.3849  1.0843
 4019SOL     OW12802   2.108   2.632   3.816  0.1238  0.2309 -0.2701
 4019SOL    HW112803   2.121   2.713   3.865  0.0013 -0.2699  0.6184
 4019SOL    HW212804   2.168   2.569   3.858 -0.4802 -0.3845 -0.3098
 4020SOL     OW12805   5.267   3.436   5.551  0.0567  0.4678  0.1883
 4020SOL    HW112806   5.206   3.370   5.584  0.4902 -0.3253 -0.5597
 4020SOL    HW212807   5.344   3.386   5.526  1.2699  1.5238  1.6736
 4021SOL     OW12808   2.667   4.177   4.086  0.1085 -0.2538  0.3120
 4021SOL    HW112809   2.613   4.163   4.164 -0.9128 -1.2864 -0.5330
 4021SOL    HW212810   2.744   4.223   4.118 -1.0844  0.9195  1.6360
 4022SOL     OW12811   1.388   6.170   1.343  0.7215 -0.3275 -0.1756
 4022SOL    HW112812   1.470   6.143   1.303  0.4384  0.5508 -1.4061
 4022SOL    HW212813   1.410   6.253   1.387  0.5670 -0.2542 -0.2364
 4023SOL     OW12814   0.423   1.402   1.236 -0.2214 -0.7465  0.3437
 4023SOL    HW112815   0.437   1.438   1.148 -2.2812  0.2560  0.3606
 4023SOL    HW212816   0.351   1.340   1.225 -0.3908 -0.7347  1.3007
 4024SOL     OW12817   3.358   5.489   1.359  0.6115 -0.1494  0.6882
 4024SOL    HW112818   3.404   5.460   1.438  0.9089 -0.5373  0.3756
 4024SOL    HW212819   3.392   5.433   1.289 -0.4461 -0.5569  0.4752
 4025SOL     OW12820   3.836   0.186   4.299  0.2116  0.2307  0.0317
 4025SOL    HW112821   3.875   0.274   4.295  0.5212  0.0790 -0.3375
 4025SOL    HW212822   3.831   0.158   4.208 -0.2184  0.0046  0.1209
 4026SOL     OW12823   0.417   5.718   3.545  0.2770 -0.0064 -0.1641
 4026SOL    HW112824   0.500   5.759   3.567  1.0122 -0.6931 -1.5736
 4026SOL    HW212825   0.351   5.784   3.570  1.3465  1.4727 -1.0549
 4027SOL     OW12826   2.907   4.319   5.035 -0.0946  0.6444 -0.5134
 4027SOL    HW112827   2.887   4.259   5.106 -1.6632  1.0209 -0.5924
 4027SOL    HW212828   2.951   4.265   4.969  0.5104  0.0948  0.3277
 4028SOL     OW12829   2.660   1.857   6.142 -0.2060  0.4011 -0.6517
 4028SOL    HW112830   2.565   1.842   6.138  0.1150 -1.5999 -1.4885
 4028SOL    HW212831   2.697   1.772   6.166  1.3921  1.2021 -0.1384
 4029SOL     OW12832   3.920   0.958   4.229 -0.0165  0.4573  0.0130
 4029SOL    HW112833   3.976   1.012   4.173  0.4362  0.3208  0.3316
 4029SOL    HW212834   3.833   0.997   4.220  0.1229  0.6593 -0.5011
 4030SOL     OW12835   1.162   6.264   6.083 -0.4171  0.4995 -0.1799
 4030SOL    HW112836   1.069   6.280   6.069 -0.3652 -0.2057 -1.4980
 4030SOL    HW212837   1.185   6.197   6.019  0.8466  0.1328  0.6123
 4031SOL     OW12838   6.070   5.182   5.014  0.2075 -0.3926 -0.1135
 4031SOL    HW112839   6.029   5.225   4.938  0.7137 -1.1218 -0.8194
 4031SOL    HW212840   6.153   5.228   5.024  0.0049 -0.0891  0.2066
 4032SOL     OW12841   2.937   4.165   2.938 -0.8607 -0.0682  0.7356
 4032SOL    HW112842   2.872   4.233   2.952  0.0785  0.7703  1.1084
 4032SOL    HW212843   3.009   4.188   2.996 -0.2020 -0.9513  0.2944
 4033SOL     OW12844   3.150   3.877   5.059 -0.0122 -0.5033  0.5656
 4033SOL    HW112845   3.189   3.902   5.142  0.1431  0.5708  0.1802
 4033SOL    HW212846   3.177   3.786   5.047  0.6709 -0.4071  1.2855
 4034SOL     OW12847   5.979   0.386   1.802 -0.2693 -0.0437 -0.2964
 4034SOL    HW112848   5.883   0.393   1.802 -0.2806  0.4153  1.6124
 4034SOL    HW212849   5.997   0.297   1.831 -0.1102 -0.0725 -0.4816
 4035SOL     OW12850   2.534   0.256   0.041 -0.3629 -0.4760  0.0007
 4035SOL    HW112851   2.580   0.289  -0.036  0.8855  0.8460  1.2582
 4035SOL    HW212852   2.441   0.272   0.022 -0.2335 -1.7381 -1.9038
 4036SOL     OW12853   2.119   0.784   6.077 -0.4628  0.5429 -0.0768
 4036SOL    HW112854   2.174   0.719   6.121 -1.1750 -0.3370 -0.4451
 4036SOL    HW212855   2.176   0.824   6.012  0.2044  0.8549  0.6779
 4037SOL     OW12856   1.869   3.558   0.704 -0.0513  0.1857  0.0911
 4037SOL    HW112857   1.774   3.562   0.691  0.0065 -0.5637 -0.6738
 4037SOL    HW212858   1.905   3.580   0.618  0.4419 -0.5205  0.1077
 4038SOL     OW12859   3.690   4.447   6.260 -0.3449  0.1451  0.6241
 4038SOL    HW112860   3.757   4.388   6.293 -0.4811  0.1038  0.8253
 4038SOL    HW212861   3.698   4.442   6.165 -0.7681 -0.6710  0.6220
 4039SOL     OW12862   0.984   4.115   6.091  1.0375  0.4005 -0.1316
 4039SOL    HW112863   0.915   4.074   6.038  1.2494 -0.6447  0.3926
 4039SOL    HW212864   1.022   4.181   6.033  1.0726 -0.5184 -1.1919
 4040SOL     OW12865   1.040   1.460   5.109 -0.1425  0.0778  0.1003
 4040SOL    HW112866   0.958   1.506   5.130  0.6218  1.2824  0.5295
 4040SOL    HW212867   1.108   1.512   5.152  0.8356 -1.0349 -0.0630
 4041SOL     OW12868   2.749   5.726   6.013  0.2509  0.0249 -0.5068
 4041SOL    HW112869   2.818   5.700   6.075 -0.1893 -0.8311 -0.3664
 4041SOL    HW212870   2.754   5.661   5.943  1.4196  1.5357 -1.9474
 4042SOL     OW12871   0.167   0.289   1.062 -0.1598 -0.1910 -0.0097
 4042SOL    HW112872   0.109   0.240   1.004  0.5984  0.2564 -1.1673
 4042SOL    HW212873   0.246   0.236   1.069 -0.8927 -1.1089  2.0774
 4043SOL     OW12874   1.941   0.240   0.527  0.0951 -0.2050 -0.2539
 4043SOL    HW112875   2.009   0.211   0.587 -0.6957  1.8016  1.7517
 4043SOL    HW212876   1.987   0.299   0.467  0.0858  1.9523  1.7111
 4044SOL     OW12877   6.067   1.417   5.295 -0.5143 -0.4050  0.1406
 4044SOL    HW112878   5.990   1.378   5.336 -0.7055 -1.5452 -1.2219
 4044SOL    HW212879   6.039   1.505   5.269 -1.2418 -0.6543  0.0419
 4045SOL     OW12880   4.920   4.052   0.205 -0.5068  0.6582  0.1443
 4045SOL    HW112881   4.935   4.143   0.231 -3.0533  0.9573  0.8266
 4045SOL    HW212882   4.964   4.044   0.120 -0.3952  2.5778 -0.0273
 4046SOL     OW12883   2.685   5.298   6.036 -0.0491  0.2540 -0.2628
 4046SOL    HW112884   2.632   5.233   6.083 -1.4330  0.7659 -1.0378
 4046SOL    HW212885   2.774   5.263   6.036 -0.8341 -1.8559 -1.0295
 4047SOL     OW12886   3.503   5.345   3.042 -0.0990 -0.0183  0.2640
 4047SOL    HW112887   3.592   5.354   3.008 -0.4004  1.0653 -0.2982
 4047SOL    HW212888   3.472   5.261   3.006  1.0979 -1.0129  1.4753
 4048SOL     OW12889   1.419   1.652   1.121  0.4816 -0.1836 -0.6534
 4048SOL    HW112890   1.328   1.623   1.116  0.2445  0.4023  0.0823
 4048SOL    HW212891   1.417   1.743   1.091  0.8031 -0.1276 -0.5057
 4049SOL     OW12892   5.664   3.033   2.514 -0.3411  0.4883  0.2803
 4049SOL    HW112893   5.589   3.090   2.501  0.0993  0.9095 -0.4831
 4049SOL    HW212894   5.629   2.957   2.562 -1.3304  0.4692 -0.4455
 4050SOL     OW12895   2.004   4.515   3.153 -0.7171 -0.4297 -0.0701
 4050SOL    HW112896   1.949   4.510   3.075  0.0020 -0.8824 -0.5653
 4050SOL    HW212897   2.006   4.425   3.186 -2.2023  0.0065  1.3375
 4051SOL     OW12898   2.490   6.302   0.205 -0.0787  0.3276 -0.1400
 4051SOL    HW112899   2.547   6.252   0.263 -1.9009 -3.5511 -1.3543
 4051SOL    HW212900   2.411   6.318   0.257 -0.7735 -1.0507 -0.7202
 4052SOL     OW12901   1.726   5.447   4.403 -0.6972  0.5220  0.3094
 4052SOL    HW112902   1.761   5.511   4.466  0.2839  1.6807 -1.3373
 4052SOL    HW212903   1.677   5.501   4.340 -3.1718 -0.7881  1.0013
 4053SOL     OW12904   1.900   3.635   0.964 -0.0026  0.3929  0.4472
 4053SOL    HW112905   1.908   3.591   0.879  1.9612  2.1978 -0.3991
 4053SOL    HW212906   1.825   3.694   0.953  0.6494  1.1064 -0.3023
 4054SOL     OW12907   3.597   0.436   1.539 -0.2498  0.0001 -0.4659
 4054SOL    HW112908   3.598   0.423   1.634  0.5021  0.5408 -0.3859
 4054SOL    HW212909   3.601   0.347   1.503  0.0710 -0.1899  0.0173
 4055SOL     OW12910   4.122   1.046   1.319 -0.2159  0.1772 -0.1692
 4055SOL    HW112911   4.096   0.954   1.311 -1.1149  0.5807 -2.5572
 4055SOL    HW212912   4.040   1.095   1.317  0.2954  1.0863  0.4205
 4056SOL     OW12913   3.992   1.341   0.305 -0.0637  0.3209 -0.0102
 4056SOL    HW112914   3.936   1.418   0.303 -1.0310 -0.3617 -2.4626
 4056SOL    HW212915   3.932   1.267   0.299  0.9670 -0.4756 -1.0935
 4057SOL     OW12916   1.596   2.450   3.176  0.1455 -0.1712 -0.5483
 4057SOL    HW112917   1.506   2.439   3.146 -0.4111 -1.7669  1.5312
 4057SOL    HW212918   1.588   2.478   3.267  1.7778  0.6398 -0.6087
 4058SOL     OW12919   4.439   3.072   4.916  0.1272 -0.1735  0.9106
 4058SOL    HW112920   4.469   3.034   4.999 -0.7977  0.5990  1.6171
 4058SOL    HW212921   4.344   3.066   4.920  0.0660  0.1128  0.0105
 4059SOL     OW12922   0.084   3.450   4.255  0.1196  0.3246 -0.4702
 4059SOL    HW112923   0.017   3.513   4.231 -0.5153 -0.4763 -0.8215
 4059SOL    HW212924   0.111   3.410   4.172  0.0399 -0.3307 -0.1883
 4060SOL     OW12925   3.011   4.312   6.057 -0.3021  0.0562 -0.0719
 4060SOL    HW112926   3.083   4.305   5.995  0.7197  0.4575  1.0348
 4060SOL    HW212927   2.932   4.301   6.004  0.5397  0.4174 -1.4301
 4061SOL     OW12928   1.607   3.670   3.813 -0.4515  0.7387 -0.1116
 4061SOL    HW112929   1.546   3.735   3.849 -1.2191 -0.0360  0.0287
 4061SOL    HW212930   1.589   3.669   3.719 -1.2150 -0.0321  0.0281
 4062SOL     OW12931   6.277   2.740   0.484 -0.4811 -0.1856  0.2378
 4062SOL    HW112932   6.299   2.771   0.572  0.3266  0.7653 -0.2754
 4062SOL    HW212933   6.216   2.806   0.450 -0.3561 -0.2493 -0.1169
 4063SOL     OW12934   3.760   0.069   5.116  0.0689  0.1868 -0.3615
 4063SOL    HW112935   3.672   0.091   5.147  0.0774 -0.3861  0.0982
 4063SOL    HW212936   3.755   0.077   5.021 -0.9244 -1.2771 -0.4790
 4064SOL     OW12937   2.763   4.561   4.882 -0.5341 -0.4217 -0.2706
 4064SOL    HW112938   2.814   4.481   4.889  0.7418  0.2759 -1.2149
 4064SOL    HW212939   2.672   4.531   4.878 -0.4973 -1.5951  3.6567
 4065SOL     OW12940   4.565   6.284   5.767 -0.4159 -0.2171  0.2508
 4065SOL    HW112941   4.577   6.346   5.839 -0.1858 -1.0662  0.9680
 4065SOL    HW212942   4.484   6.238   5.788 -1.1942  0.6078 -0.8722
 4066SOL     OW12943   3.778   3.957   4.174  0.9692  0.1168  0.4522
 4066SOL    HW112944   3.815   3.932   4.259 -0.7900  0.9892  1.5540
 4066SOL    HW212945   3.690   3.917   4.174  0.6237  0.8432 -0.5778
 4067SOL     OW12946   2.930   4.834   5.576  0.3782 -0.8418 -0.5568
 4067SOL    HW112947   2.948   4.810   5.485  2.3899  1.6039 -0.9128
 4067SOL    HW212948   3.011   4.816   5.623 -0.3232 -1.1665  0.5729
 4068SOL     OW12949   5.553   0.523   4.743 -0.6499 -0.1051 -0.2713
 4068SOL    HW112950   5.459   0.517   4.729 -0.9278 -0.4705  1.5458
 4068SOL    HW212951   5.565   0.604   4.792  0.0386  0.1267 -0.8056
 4069SOL     OW12952   5.960   1.452   6.147  0.0556  0.3222  0.1461
 4069SOL    HW112953   5.901   1.404   6.089  0.0429  0.4740  0.0324
 4069SOL    HW212954   5.938   1.544   6.131  0.7338  0.4043 -0.3331
 4070SOL     OW12955   5.737   5.894   4.509  0.6554 -0.1749  0.0284
 4070SOL    HW112956   5.745   5.834   4.435  1.6898 -0.2151  0.1510
 4070SOL    HW212957   5.763   5.979   4.473 -1.8351  0.4530 -0.4193
 4071SOL     OW12958   3.444   0.858   2.041 -0.3539  0.0686  0.3416
 4071SOL    HW112959   3.428   0.805   1.962 -1.1102  0.1663  0.4278
 4071SOL    HW212960   3.439   0.795   2.113 -2.9029  0.4737  0.6059
 4072SOL     OW12961   4.154   2.953   6.175 -0.2598 -0.0896 -0.3836
 4072SOL    HW112962   4.070   2.988   6.147  0.2673  0.6271 -1.1132
 4072SOL    HW212963   4.132   2.878   6.230 -1.3543 -0.7810 -1.7150
 4073SOL     OW12964   3.458   2.810   5.176 -0.4160  0.5022  0.7882
 4073SOL    HW112965   3.482   2.890   5.222  2.5817 -0.7437  1.6490
 4073SOL    HW212966   3.397   2.765   5.235 -1.3086  1.6295  0.7525
 4074SOL     OW12967   3.996   2.701   1.677  0.2202 -0.0345  0.1772
 4074SOL    HW112968   3.926   2.747   1.724 -0.4011  0.1284 -0.8802
 4074SOL    HW212969   3.952   2.625   1.637  0.8057 -0.3508  0.1209
 4075SOL     OW12970   2.440   4.099   0.575  0.3178  0.3173 -0.2364
 4075SOL    HW112971   2.501   4.026   0.591  1.4724  0.7864 -2.1669
 4075SOL    HW212972   2.497   4.172   0.550 -0.9863  1.1687 -0.7712
 4076SOL     OW12973   4.534   0.723   4.947  0.0193  0.1419 -0.4844
 4076SOL    HW112974   4.493   0.766   5.022 -0.8933 -0.2990 -0.7277
 4076SOL    HW212975   4.598   0.788   4.915 -0.3225  0.7431  0.0250
 4077SOL     OW12976   0.943   2.605   6.259  0.1581  0.0782  0.0779
 4077SOL    HW112977   0.975   2.688   6.294 -1.3807  0.2809  1.1027
 4077SOL    HW212978   0.853   2.624   6.232 -0.7037 -1.5631  1.6359
 4078SOL     OW12979   0.488   0.850   4.235 -0.0635  0.5806 -0.0947
 4078SOL    HW112980   0.541   0.856   4.155 -0.8812  1.9687 -0.5713
 4078SOL    HW212981   0.458   0.759   4.237 -0.6295  0.6819 -1.8103
 4079SOL     OW12982   2.317   4.055   6.260 -0.0538  0.2902  0.1092
 4079SOL    HW112983   2.357   3.991   6.200 -1.0734  0.7961 -1.1534
 4079SOL    HW212984   2.382   4.125   6.268  0.0122  0.3078 -0.5594
 4080SOL     OW12985   5.661   2.223   5.033  0.0988  0.0739 -0.5921
 4080SOL    HW112986   5.751   2.238   5.059  0.1349 -1.2695  0.1359
 4080SOL    HW212987   5.662   2.137   4.991 -0.8150  0.1009 -0.6974
 4081SOL     OW12988   5.657   3.916   3.124 -0.3944 -0.0503 -0.1456
 4081SOL    HW112989   5.734   3.898   3.177 -0.0184 -0.9622 -0.9947
 4081SOL    HW212990   5.601   3.970   3.182 -0.2209 -1.4069  1.3591
 4082SOL     OW12991   5.343   1.560   3.216  0.0425 -0.0503  0.0726
 4082SOL    HW112992   5.278   1.609   3.166 -1.2104 -0.4341  1.2466
 4082SOL    HW212993   5.361   1.615   3.292  0.1713 -0.4818  0.3565
 4083SOL     OW12994   4.763   4.323   6.112 -0.4744  0.1060 -0.0493
 4083SOL    HW112995   4.690   4.362   6.160 -0.7398  0.7879 -0.9661
 4083SOL    HW212996   4.721   4.268   6.046 -0.1086 -1.3000  0.8507
 4084SOL     OW12997   3.607   2.200   6.244 -0.5749  0.0732 -0.4602
 4084SOL    HW112998   3.648   2.213   6.158 -1.9411  0.4794 -1.0813
 4084SOL    HW212999   3.680   2.183   6.303  0.5494  1.3928 -1.3952
 4085SOL     OW13000   2.164   1.822   4.091  0.5476 -0.3593 -0.6309
 4085SOL    HW113001   2.259   1.823   4.085  0.5685 -1.3404 -0.6251
 4085SOL    HW213002   2.143   1.737   4.131 -0.2760  0.2897  0.3778
 4086SOL     OW13003   4.782   2.949   5.271 -0.3086 -0.1408 -0.0844
 4086SOL    HW113004   4.760   3.014   5.338 -0.3670 -1.5672  1.3180
 4086SOL    HW213005   4.725   2.875   5.289 -0.3117 -0.5834 -1.7212
 4087SOL     OW13006   1.101   4.429   3.362 -0.2677  0.2535 -0.2107
 4087SOL    HW113007   1.109   4.353   3.419 -1.3655 -1.3766 -2.0888
 4087SOL    HW213008   1.191   4.452   3.339  0.1182  0.1458  1.1298
 4088SOL     OW13009   0.719   3.224   5.164  0.2159 -0.2547 -0.4687
 4088SOL    HW113010   0.761   3.309   5.156  1.5490 -0.9529 -1.1313
 4088SOL    HW213011   0.791   3.161   5.170 -0.7401 -1.3046  0.5297
 4089SOL     OW13012   3.399   0.405   0.626 -0.1720  0.3516 -0.8619
 4089SOL    HW113013   3.307   0.380   0.626 -0.1482  0.1465  0.8956
 4089SOL    HW213014   3.432   0.375   0.541 -1.1949 -1.6177 -0.6234
 4090SOL     OW13015   1.727   6.230   0.641 -0.4198  0.1070  0.1510
 4090SOL    HW113016   1.789   6.286   0.688 -0.9711  0.4636  0.4688
 4090SOL    HW213017   1.781   6.162   0.602  0.3065  1.0023 -0.4595
 4091SOL     OW13018   4.844   3.165   4.060 -0.2469 -0.0521 -0.4754
 4091SOL    HW113019   4.788   3.206   3.994  0.6795  0.3707 -1.0154
 4091SOL    HW213020   4.904   3.110   4.010  1.7479  1.7790 -0.2008
 4092SOL     OW13021   0.737   0.858   2.310 -0.0048 -0.0786  0.4429
 4092SOL    HW113022   0.797   0.809   2.253 -0.7041 -0.3842 -0.0506
 4092SOL    HW213023   0.651   0.850   2.267  0.1783  3.4502 -0.8979
 4093SOL     OW13024   0.951   4.135   5.655 -0.2590  0.1916 -0.3193
 4093SOL    HW113025   0.868   4.163   5.616 -0.5952 -1.2528 -0.7351
 4093SOL    HW213026   1.017   4.154   5.587 -0.1180  1.9109  0.2514
 4094SOL     OW13027   0.756   5.782   3.360  0.1881 -0.9191  0.1208
 4094SOL    HW113028   0.815   5.845   3.317  0.4152 -0.7747  0.6424
 4094SOL    HW213029   0.679   5.779   3.302 -0.3187  0.6892  0.6477
 4095SOL     OW13030   3.890   4.678   2.169 -0.0872  0.5295 -0.1509
 4095SOL    HW113031   3.964   4.699   2.227  1.4199  2.8961 -2.6883
 4095SOL    HW213032   3.813   4.711   2.215  0.7971  0.6425  1.3024
 4096SOL     OW13033   3.784   0.831   0.198 -0.0329  0.3345  0.5311
 4096SOL    HW113034   3.725   0.793   0.264 -0.1410 -0.9327 -0.2753
 4096SOL    HW213035   3.859   0.772   0.195  0.9358  1.5021  0.9622
 4097SOL     OW13036   3.852   6.292   3.627  0.0161 -0.1465  0.3839
 4097SOL    HW113037   3.831   6.200   3.641 -1.1295 -0.1270 -0.9235
 4097SOL    HW213038   3.900   6.319   3.706 -0.6792 -1.5390  1.3150
 4098SOL     OW13039   2.781   1.594   4.665  0.0365  0.0957 -0.1777
 4098SOL    HW113040   2.804   1.544   4.743 -0.0654  2.9640  1.8686
 4098SOL    HW213041   2.693   1.564   4.642  0.7266 -1.9966 -0.2921
 4099SOL     OW13042   6.025   4.398   4.421  0.5065 -0.1480 -0.4222
 4099SOL    HW113043   6.103   4.435   4.462  0.4447 -2.2944  1.9399
 4099SOL    HW213044   6.046   4.305   4.408 -1.7050 -0.8889  0.6320
 4100SOL     OW13045   0.175   0.643   5.784  0.1867  0.3364 -0.1826
 4100SOL    HW113046   0.219   0.655   5.699  0.9394 -0.8437  0.0217
 4100SOL    HW213047   0.179   0.549   5.800  0.7049  0.6197  1.5117
 4101SOL     OW13048   4.412   5.190   4.507 -0.0431 -0.2267 -0.3229
 4101SOL    HW113049   4.471   5.213   4.579 -1.0208  0.3379  0.3298
 4101SOL    HW213050   4.450   5.232   4.430  0.3455  0.2328  0.1135
 4102SOL     OW13051   2.717   1.124   4.331 -0.4814 -0.3254  0.3910
 4102SOL    HW113052   2.759   1.100   4.413 -1.8603  1.0409  1.5663
 4102SOL    HW213053   2.783   1.172   4.283 -0.0590  0.0308  1.3061
 4103SOL     OW13054   2.937   5.776   3.467 -0.7182  0.2000  0.1696
 4103SOL    HW113055   3.022   5.811   3.442 -0.7793  0.9640  0.9753
 4103SOL    HW213056   2.911   5.720   3.394 -0.0458  0.8677 -0.5978
 4104SOL     OW13057   1.302   0.744   6.183  0.1203  0.2328 -0.6095
 4104SOL    HW113058   1.264   0.657   6.170  0.9466 -0.0585 -1.1667
 4104SOL    HW213059   1.390   0.738   6.146  0.7564  0.8601  0.7365
 4105SOL     OW13060   6.242   2.894   5.886 -0.3017 -0.2257  0.3081
 4105SOL    HW113061   6.264   2.845   5.807 -0.1774  0.4556 -0.0863
 4105SOL    HW213062   6.164   2.945   5.862  0.0723  0.4264  0.4317
 4106SOL     OW13063   0.239   0.141   1.521  0.2207  0.3354  0.0730
 4106SOL    HW113064   0.167   0.104   1.572  0.9940  0.2474  1.1473
 4106SOL    HW213065   0.202   0.157   1.434 -0.7960 -0.6610  0.3055
 4107SOL     OW13066   5.533   0.213   6.095 -0.2040  0.2053 -0.3195
 4107SOL    HW113067   5.496   0.148   6.155  1.0614  1.8936  2.4968
 4107SOL    HW213068   5.554   0.163   6.016  0.8127 -2.8825  1.7078
 4108SOL     OW13069   4.589   5.563   3.762 -0.4173  0.0473 -0.4544
 4108SOL    HW113070   4.684   5.556   3.754 -0.5177 -0.9342 -1.0149
 4108SOL    HW213071   4.559   5.584   3.673 -0.7598 -0.1758 -0.3918
 4109SOL     OW13072   0.328   3.784   4.992  0.1260 -0.4130  0.1738
 4109SOL    HW113073   0.405   3.794   4.936  0.0981 -1.4984 -0.0765
 4109SOL    HW213074   0.254   3.804   4.935  0.1441 -0.7164  0.0441
 4110SOL     OW13075   1.981   0.401   6.024 -0.2081 -0.6201 -0.5467
 4110SOL    HW113076   2.011   0.317   6.061  1.2043 -0.7710 -1.9587
 4110SOL    HW213077   2.055   0.460   6.035 -1.0864  0.3957  0.1532
 4111SOL     OW13078   1.793   0.263   5.583 -0.2653 -0.3384 -0.3812
 4111SOL    HW113079   1.866   0.239   5.642  0.2027  1.1731 -0.2904
 4111SOL    HW213080   1.835   0.275   5.498 -0.5816 -0.4528 -0.5511
 4112SOL     OW13081   2.443   6.012   2.499 -0.6396 -0.0898  0.1046
 4112SOL    HW113082   2.422   6.099   2.531  2.9753  1.1391 -0.5211
 4112SOL    HW213083   2.405   6.009   2.412 -0.2263  1.1441 -0.1361
 4113SOL     OW13084   3.130   3.358   3.695 -0.1425  0.1291  0.3132
 4113SOL    HW113085   3.133   3.442   3.650  0.5332  0.9197  1.7755
 4113SOL    HW213086   3.191   3.367   3.768 -0.9411 -1.2208  1.1930
 4114SOL     OW13087   4.664   0.979   1.259  0.0043 -0.1984 -0.0854
 4114SOL    HW113088   4.628   0.895   1.229  0.8267 -0.3245 -0.7643
 4114SOL    HW213089   4.587   1.029   1.288 -0.3531 -1.8385  2.0831
 4115SOL     OW13090   5.680   5.259   0.636  0.0681 -0.4974  0.2321
 4115SOL    HW113091   5.709   5.296   0.552 -2.3370  1.0791 -0.0181
 4115SOL    HW213092   5.597   5.304   0.654  0.3902 -0.9553  3.3728
 4116SOL     OW13093   3.555   1.680   0.013  0.0954  0.2701  0.2999
 4116SOL    HW113094   3.603   1.760   0.035 -0.4069  0.4346  0.8092
 4116SOL    HW213095   3.529   1.643   0.098 -0.5586  0.1078  0.0321
 4117SOL     OW13096   3.477   6.015   0.399 -1.1881  0.0927  0.3197
 4117SOL    HW113097   3.475   6.085   0.464 -1.0072  0.1511  0.2606
 4117SOL    HW213098   3.396   6.026   0.349 -1.0282  0.4193  0.1376
 4118SOL     OW13099   5.810   4.404   2.240  0.0466 -0.7177  0.2593
 4118SOL    HW113100   5.787   4.435   2.153  0.7265 -1.5914 -0.2465
 4118SOL    HW213101   5.752   4.452   2.299 -1.3427 -1.0751 -0.7662
 4119SOL     OW13102   1.315   5.041   0.202 -0.6135 -0.3738  0.1574
 4119SOL    HW113103   1.287   5.129   0.228 -1.4761 -0.6390  0.1809
 4119SOL    HW213104   1.250   4.984   0.242 -1.8487 -0.8401 -2.3458
 4120SOL     OW13105   5.662   5.551   3.602 -0.0616  0.4276  0.0107
 4120SOL    HW113106   5.692   5.634   3.637 -2.1065  1.1912  0.0789
 4120SOL    HW213107   5.738   5.492   3.611  1.1690  2.0401  0.6747
 4121SOL     OW13108   4.763   5.293   2.686  0.4223 -0.1066  0.4705
 4121SOL    HW113109   4.820   5.356   2.730  1.2276 -0.7937  0.4346
 4121SOL    HW213110   4.802   5.282   2.600 -1.1542  1.2401 -0.4776
 4122SOL     OW13111   1.347   2.981   1.609  0.2010 -0.1157  0.0165
 4122SOL    HW113112   1.256   2.967   1.585  0.4867  0.0297 -1.2425
 4122SOL    HW213113   1.396   2.959   1.529  1.1478  1.4641  0.1238
 4123SOL     OW13114   1.358   0.175   5.848 -0.4246 -0.2051  0.1099
 4123SOL    HW113115   1.371   0.270   5.852 -1.9817  0.0081  1.0650
 4123SOL    HW213116   1.313   0.161   5.765 -0.8906 -0.0046  0.3263
 4124SOL     OW13117   3.761   3.184   1.184 -0.1888 -0.1909 -0.2872
 4124SOL    HW113118   3.809   3.108   1.217  1.0472  0.9574  0.6338
 4124SOL    HW213119   3.674   3.150   1.164  0.5664 -2.0293 -0.6863
 4125SOL     OW13120   3.725   4.211   2.687  0.6219  0.3257 -0.7398
 4125SOL    HW113121   3.719   4.127   2.641 -1.6236  0.3708 -0.6301
 4125SOL    HW213122   3.679   4.272   2.630 -1.0129  0.6723  0.8903
 4126SOL     OW13123   4.386   4.757   1.349 -0.0117 -0.1063 -0.1704
 4126SOL    HW113124   4.437   4.767   1.268  1.3642  0.7525  0.7626
 4126SOL    HW213125   4.369   4.663   1.356 -1.0566 -0.0977 -1.9690
 4127SOL     OW13126   3.320   3.155   1.127  0.1878  0.4563  0.0081
 4127SOL    HW113127   3.342   3.092   1.196  0.5500  0.3217 -0.2239
 4127SOL    HW213128   3.356   3.238   1.158 -2.0689  1.0362  1.2824
 4128SOL     OW13129   5.923   3.177   2.901 -0.4220 -0.3208  0.3670
 4128SOL    HW113130   5.832   3.206   2.913 -0.6697 -1.7765  2.3429
 4128SOL    HW213131   5.970   3.212   2.976  0.5603 -0.0873 -0.3310
 4129SOL     OW13132   2.319   2.511   3.988  0.3690 -0.1838  0.5755
 4129SOL    HW113133   2.302   2.471   4.073  2.3222 -0.7174  0.7762
 4129SOL    HW213134   2.330   2.604   4.008  0.1313 -0.2060  0.8114
 4130SOL     OW13135   1.837   5.039   6.255  0.0259  0.2528  0.7940
 4130SOL    HW113136   1.872   5.118   6.213 -1.4253  0.5339  0.0559
 4130SOL    HW213137   1.886   4.967   6.214 -2.4383  0.3605 -2.8062
 4131SOL     OW13138   4.884   3.131   5.097  0.0591 -0.3244 -0.5506
 4131SOL    HW113139   4.853   3.056   5.147  2.1965 -0.2456  1.0029
 4131SOL    HW213140   4.971   3.149   5.131 -0.1118  2.4683 -1.3331
 4132SOL     OW13141   5.696   0.554   5.517  0.0492  0.0491 -0.4130
 4132SOL    HW113142   5.650   0.635   5.497 -0.2398  0.1053  0.4345
 4132SOL    HW213143   5.656   0.489   5.459  0.5214  0.5707 -1.3419
 4133SOL     OW13144   4.803   3.834   4.570 -0.3982  1.1291  0.0302
 4133SOL    HW113145   4.712   3.807   4.581  0.4054 -1.1406  1.8758
 4133SOL    HW213146   4.820   3.892   4.644 -0.1849  0.9996  0.0853
 4134SOL     OW13147   0.971   0.712   2.230  0.0449 -0.0511  0.1754
 4134SOL    HW113148   0.992   0.699   2.322  1.4284 -1.4883 -0.3108
 4134SOL    HW213149   0.924   0.633   2.204 -2.1430  1.1879  0.0884
 4135SOL     OW13150   4.816   3.663   5.165  0.2836  0.6252  0.0497
 4135SOL    HW113151   4.741   3.671   5.106  0.5140  1.0441 -0.1863
 4135SOL    HW213152   4.778   3.629   5.246 -0.3107  1.6971  0.2397
 4136SOL     OW13153   2.857   0.781   5.716  0.5842  0.0300  0.5722
 4136SOL    HW113154   2.948   0.759   5.696  0.6825  0.0354  1.0095
 4136SOL    HW213155   2.810   0.764   5.635  1.2362  1.5551 -0.1777
 4137SOL     OW13156   2.640   4.955   5.288 -0.2893  0.5191  0.0690
 4137SOL    HW113157   2.612   4.866   5.267  1.0804  0.3611 -1.2863
 4137SOL    HW213158   2.561   4.999   5.319 -1.0571 -1.0669  0.4531
 4138SOL     OW13159   0.681   4.260   0.123  0.1209  0.4042 -0.1164
 4138SOL    HW113160   0.593   4.277   0.157 -0.2052  1.3463 -1.3295
 4138SOL    HW213161   0.739   4.311   0.180 -0.3969  1.8252 -0.7907
 4139SOL     OW13162   6.250   5.050   4.028  0.1650  0.2096 -0.1854
 4139SOL    HW113163   6.197   5.010   3.959  0.7683 -0.0153 -0.5303
 4139SOL    HW213164   6.198   5.124   4.059 -0.1097  0.3163 -0.8893
 4140SOL     OW13165   4.800   1.020   4.274 -0.3455 -0.0889 -0.4635
 4140SOL    HW113166   4.710   1.053   4.285 -0.2016  0.7900 -1.7336
 4140SOL    HW213167   4.792   0.955   4.205  0.0315  0.1329 -0.7135
 4141SOL     OW13168   3.665   2.689   3.801 -0.1216  0.7652 -0.5723
 4141SOL    HW113169   3.630   2.713   3.887  0.3092 -0.5141 -0.0334
 4141SOL    HW213170   3.594   2.713   3.740 -0.7200  1.0095  0.1922
 4142SOL     OW13171   2.814   4.372   1.647  0.5009 -0.3975  0.2743
 4142SOL    HW113172   2.744   4.315   1.680  0.7277 -1.5613 -1.1234
 4142SOL    HW213173   2.799   4.376   1.552  0.1043  2.4685  0.3691
 4143SOL     OW13174   4.361   4.577   4.357 -0.1173  0.5134  0.2269
 4143SOL    HW113175   4.319   4.537   4.433  1.3157 -0.4198  0.5532
 4143SOL    HW213176   4.442   4.615   4.390 -0.7714  2.5412 -0.3451
 4144SOL     OW13177   5.299   4.059   6.089  0.1315  0.3729 -0.0844
 4144SOL    HW113178   5.365   3.993   6.067 -1.3365 -0.3979 -2.5701
 4144SOL    HW213179   5.248   4.069   6.009 -2.5418  1.2112  1.6075
 4145SOL     OW13180   0.535   5.949   5.497 -0.6033  0.0774 -0.4748
 4145SOL    HW113181   0.619   5.941   5.543  0.0867  0.0198 -1.7084
 4145SOL    HW213182   0.470   5.952   5.567  0.5138  1.3680  0.5614
 4146SOL     OW13183   5.479   1.362   1.638  0.8154 -0.3658 -0.6107
 4146SOL    HW113184   5.393   1.348   1.597  0.3518 -0.6916  0.4538
 4146SOL    HW213185   5.529   1.411   1.572 -0.3309  0.2204 -1.0683
 4147SOL     OW13186   4.158   2.569   2.783  0.1147  0.2002 -0.1432
 4147SOL    HW113187   4.213   2.640   2.751  0.2325 -0.2043 -0.8563
 4147SOL    HW213188   4.202   2.538   2.862  0.1887  0.7598  0.0361
 4148SOL     OW13189   1.438   5.064   1.234  0.4660  0.0767 -0.0034
 4148SOL    HW113190   1.481   5.140   1.274 -0.3560  2.5697 -3.3695
 4148SOL    HW213191   1.510   5.010   1.202  1.1700  1.4483 -0.8516
 4149SOL     OW13192   4.676   0.285   3.772  0.1326  0.3915  0.2901
 4149SOL    HW113193   4.762   0.288   3.814 -0.8073  1.0703  2.2896
 4149SOL    HW213194   4.642   0.374   3.781 -0.4262  0.3668 -1.3316
 4150SOL     OW13195   4.163   4.951   5.591  0.0708 -0.6876  0.5703
 4150SOL    HW113196   4.083   4.902   5.610  1.0425 -2.3117  0.6137
 4150SOL    HW213197   4.223   4.930   5.662  1.6056 -2.0039 -0.9984
 4151SOL     OW13198   5.997   0.716   1.129 -0.0981  0.4287  0.1933
 4151SOL    HW113199   6.017   0.808   1.108 -1.6747  1.7926  3.7799
 4151SOL    HW213200   5.902   0.711   1.125 -0.1449 -0.5324  1.7398
 4152SOL     OW13201   2.205   2.692   4.427  0.1507  0.5545 -0.2163
 4152SOL    HW113202   2.252   2.773   4.444  0.3480 -0.0345  2.5229
 4152SOL    HW213203   2.263   2.623   4.458 -1.2463 -0.3993  0.4036
 4153SOL     OW13204   1.812   1.735   2.757 -0.2716 -0.0629  0.3296
 4153SOL    HW113205   1.817   1.791   2.679 -2.0305 -1.4687 -0.8766
 4153SOL    HW213206   1.794   1.648   2.723 -0.7478 -0.7873  2.3005
 4154SOL     OW13207   6.185   4.684   1.466 -0.0762 -0.6634 -0.5909
 4154SOL    HW113208   6.118   4.649   1.524  1.2279 -0.8798  0.8393
 4154SOL    HW213209   6.225   4.756   1.515  0.7356 -0.5345 -1.4086
 4155SOL     OW13210   1.460   1.475   4.296  0.3307 -0.7037  0.0000
 4155SOL    HW113211   1.384   1.445   4.248 -0.4759 -0.0428  0.8310
 4155SOL    HW213212   1.442   1.566   4.317  2.2392  0.0827 -1.4891
 4156SOL     OW13213   0.586   4.130   3.133  0.4521  0.0744 -0.1084
 4156SOL    HW113214   0.641   4.203   3.161  2.7085 -1.6033  0.1350
 4156SOL    HW213215   0.547   4.097   3.214  0.0077  0.5389 -0.1273
 4157SOL     OW13216   5.307   5.026   2.880 -0.1974  0.3233  0.2514
 4157SOL    HW113217   5.299   5.098   2.942 -1.8016  0.1989  0.2373
 4157SOL    HW213218   5.267   4.951   2.925 -1.1372  0.1674 -0.8108
 4158SOL     OW13219   3.867   4.476   3.908  0.8974 -0.3446  0.0495
 4158SOL    HW113220   3.810   4.449   3.980 -0.6009 -0.6749 -1.1999
 4158SOL    HW213221   3.940   4.415   3.911  1.7960  0.7361  2.3303
 4159SOL     OW13222   4.757   2.661   0.158 -0.3774 -0.1703  0.5655
 4159SOL    HW113223   4.784   2.742   0.202 -1.0084  0.2067  0.2668
 4159SOL    HW213224   4.831   2.639   0.101 -0.1310  0.1057  0.7769
 4160SOL     OW13225   5.678   3.913   4.724  0.2265 -0.1621  0.1083
 4160SOL    HW113226   5.735   3.967   4.670  0.7710  0.1818  1.0003
 4160SOL    HW213227   5.735   3.841   4.753 -0.2233 -0.6739 -0.2691
 4161SOL     OW13228   4.961   1.225   3.196 -0.4894 -0.0520  0.2130
 4161SOL    HW113229   4.899   1.278   3.146 -0.3821 -0.4952 -0.4093
 4161SOL    HW213230   5.047   1.250   3.163 -0.2910  0.8329  1.3412
 4162SOL     OW13231   3.561   5.139   3.458  0.0132 -0.1092 -0.0677
 4162SOL    HW113232   3.648   5.130   3.496  0.2873 -0.1583 -0.7071
 4162SOL    HW213233   3.575   5.184   3.375 -0.3149 -1.8974 -1.1629
 4163SOL     OW13234   2.456   3.134   1.032 -0.2954  0.0884 -0.3424
 4163SOL    HW113235   2.491   3.222   1.048 -1.2227  0.8444 -2.2710
 4163SOL    HW213236   2.534   3.079   1.024  0.3026  0.7382  0.6814
 4164SOL     OW13237   5.841   0.474   2.830  0.0103 -0.7167  0.0326
 4164SOL    HW113238   5.920   0.527   2.822 -0.1706 -0.6425 -1.6621
 4164SOL    HW213239   5.823   0.444   2.741 -0.2341 -3.1688  0.8199
 4165SOL     OW13240   4.366   4.310   2.238  0.2259 -0.8714  0.1850
 4165SOL    HW113241   4.347   4.221   2.266  0.5051 -0.6852  0.9884
 4165SOL    HW213242   4.455   4.327   2.268 -0.5467  0.3978  1.9674
 4166SOL     OW13243   0.204   1.039   5.928 -0.2073 -0.1888 -0.2662
 4166SOL    HW113244   0.290   1.005   5.901 -0.3403  0.6395 -1.8238
 4166SOL    HW213245   0.155   0.961   5.952  0.9836 -0.6795  0.6829
 4167SOL     OW13246   2.877   0.847   4.967  0.3926 -0.1478  0.2476
 4167SOL    HW113247   2.887   0.940   4.986 -2.2380  0.6362 -1.6366
 4167SOL    HW213248   2.966   0.818   4.943  1.0415  2.2204 -0.4446
 4168SOL     OW13249   1.713   4.236   3.789 -0.0848 -0.0820  0.3601
 4168SOL    HW113250   1.621   4.251   3.811 -0.2997  0.1736 -0.6792
 4168SOL    HW213251   1.715   4.234   3.694  0.8885 -0.7768  0.3857
 4169SOL     OW13252   4.022   2.717   2.535  0.4022  0.5004  0.3488
 4169SOL    HW113253   4.010   2.672   2.619  1.0659  0.5992  0.5083
 4169SOL    HW213254   4.074   2.656   2.482 -3.5538 -1.4914 -1.6370
 4170SOL     OW13255   5.996   4.695   2.097  0.5240 -0.6026 -0.9143
 4170SOL    HW113256   5.999   4.601   2.114 -1.0362 -0.6977 -1.0227
 4170SOL    HW213257   5.904   4.719   2.111  1.0128  1.0250 -0.3095
 4171SOL     OW13258   4.179   1.144   3.781  0.1587 -0.4271  0.2876
 4171SOL    HW113259   4.177   1.067   3.723  0.1845  0.6796 -1.2388
 4171SOL    HW213260   4.265   1.141   3.822 -0.8647 -2.8042  2.5739
 4172SOL     OW13261   6.198   5.034   0.888 -0.3696  0.5633 -0.2273
 4172SOL    HW113262   6.176   4.981   0.811  0.4455 -0.9143  0.5082
 4172SOL    HW213263   6.194   4.972   0.961 -0.0345  1.6868  0.7732
 4173SOL     OW13264   5.367   2.322   2.015  0.0990 -0.4328  0.5918
 4173SOL    HW113265   5.315   2.335   2.095 -0.4485  0.7224  0.0628
 4173SOL    HW213266   5.391   2.229   2.018 -0.1987 -0.4962  1.9239
 4174SOL     OW13267   2.973   0.860   2.660 -0.2674  0.0729 -0.5301
 4174SOL    HW113268   2.878   0.851   2.653 -0.2024 -0.8074 -0.4569
 4174SOL    HW213269   2.992   0.837   2.751 -0.2713  3.2292  0.3790
 4175SOL     OW13270   1.368   0.434   2.937 -0.2887 -0.4650  0.7224
 4175SOL    HW113271   1.440   0.482   2.978 -1.1956  0.9974  0.6874
 4175SOL    HW213272   1.355   0.477   2.853 -2.3785  0.5533  1.4829
 4176SOL     OW13273   0.836   2.237   3.946 -0.6616  0.1765  0.1027
 4176SOL    HW113274   0.857   2.330   3.935 -1.4222  0.2665 -0.6774
 4176SOL    HW213275   0.921   2.195   3.961 -0.4230  1.1704  1.9514
 4177SOL     OW13276   4.238   3.959   6.051  0.1372 -0.0584  0.3235
 4177SOL    HW113277   4.275   4.001   6.128  0.9378  1.0325 -0.6199
 4177SOL    HW213278   4.150   3.996   6.044 -0.7529 -1.7429  1.8743
 4178SOL     OW13279   2.868   0.857   3.580  0.2491  0.1021 -0.1391
 4178SOL    HW113280   2.809   0.883   3.510  1.1654 -0.2658 -1.0800
 4178SOL    HW213281   2.820   0.875   3.661 -0.3972  1.5675 -0.8287
 4179SOL     OW13282   1.376   1.800   2.942 -0.0922 -0.0102  0.0932
 4179SOL    HW113283   1.433   1.868   2.906 -0.6285  0.9417  0.9798
 4179SOL    HW213284   1.380   1.813   3.037 -0.8685 -0.6735  0.2331
 4180SOL     OW13285   5.696   2.392   0.237  0.1838 -0.0796 -0.3664
 4180SOL    HW113286   5.773   2.441   0.209  1.5094 -1.9550 -0.1610
 4180SOL    HW213287   5.702   2.308   0.191 -0.5850 -1.0658  1.2401
 4181SOL     OW13288   2.807   5.422   4.694  0.5420  0.3164 -0.1755
 4181SOL    HW113289   2.871   5.492   4.678  0.7149 -0.2176 -2.1305
 4181SOL    HW213290   2.829   5.389   4.781  0.0513  3.0752  1.1169
 4182SOL     OW13291   3.217   1.589   4.689  0.5289 -0.3354  1.0682
 4182SOL    HW113292   3.233   1.635   4.772  3.2373  2.1529 -0.6111
 4182SOL    HW213293   3.150   1.642   4.645 -0.1602 -1.0607  1.2287
 4183SOL     OW13294   3.944   4.201   4.972 -0.2531  0.0575  0.5501
 4183SOL    HW113295   3.956   4.244   5.057 -0.3675  2.6560 -0.6527
 4183SOL    HW213296   4.030   4.163   4.952  0.0164  0.2009  1.3977
 4184SOL     OW13297   1.301   3.592   6.264  0.4593 -0.0418  0.3663
 4184SOL    HW113298   1.261   3.551   6.187 -0.4166  1.8046 -0.2364
 4184SOL    HW213299   1.266   3.542   6.338 -1.6086  0.3531 -0.2601
 4185SOL     OW13300   1.189   1.702   3.412  0.3290 -0.0445 -0.2424
 4185SOL    HW113301   1.266   1.648   3.397  0.1403 -0.5641  0.6207
 4185SOL    HW213302   1.210   1.753   3.490 -0.1150 -0.0220 -0.1323
 4186SOL     OW13303   4.791   2.428   0.641 -0.8856  0.2619  0.4161
 4186SOL    HW113304   4.719   2.367   0.627 -0.5220 -0.1566  0.3386
 4186SOL    HW213305   4.788   2.487   0.566 -1.1828  0.2818  0.4439
 4187SOL     OW13306   3.119   1.990   0.919  0.1906 -0.5121 -0.3625
 4187SOL    HW113307   3.093   1.954   1.004  0.8539 -0.1923 -0.0134
 4187SOL    HW213308   3.214   2.002   0.927  0.4770 -1.7048 -1.6092
 4188SOL     OW13309   2.705   2.136   4.597  0.0139 -0.0106  0.0727
 4188SOL    HW113310   2.800   2.127   4.598 -0.0699 -1.1070  0.8714
 4188SOL    HW213311   2.679   2.122   4.688 -0.9923 -0.7887 -0.3127
 4189SOL     OW13312   1.510   2.621   2.439  0.6994 -0.2816  0.1881
 4189SOL    HW113313   1.469   2.557   2.381  0.0532  0.2865  0.0166
 4189SOL    HW213314   1.486   2.706   2.403  0.3389  0.0801  1.2563
 4190SOL     OW13315   1.223   3.234   2.449 -1.0098 -0.0329 -0.3357
 4190SOL    HW113316   1.191   3.309   2.399 -1.5708 -0.4904 -0.6860
 4190SOL    HW213317   1.318   3.241   2.446 -1.0606  0.9210  0.0383
 4191SOL     OW13318   2.670   4.144   2.693  0.4294  0.2580  0.0258
 4191SOL    HW113319   2.723   4.099   2.758 -1.8573  0.4497  2.1577
 4191SOL    HW213320   2.629   4.216   2.740 -1.8624  0.0029 -1.4039
 4192SOL     OW13321   0.462   4.022   3.903  0.5356  0.0217  0.5197
 4192SOL    HW113322   0.552   3.993   3.894  0.1934 -0.3392 -2.9857
 4192SOL    HW213323   0.460   4.110   3.865 -0.5680  0.1353  0.7870
 4193SOL     OW13324   0.601   5.945   1.460  0.3137 -0.5545  0.4571
 4193SOL    HW113325   0.608   5.975   1.369 -0.3480  0.3673  0.6823
 4193SOL    HW213326   0.524   5.887   1.461  1.6312 -2.3700  0.0086
 4194SOL     OW13327   2.138   1.129   1.629  0.4803  0.6126  0.1061
 4194SOL    HW113328   2.139   1.035   1.644  1.2762  0.4726 -0.7353
 4194SOL    HW213329   2.055   1.146   1.584  0.7390  0.1696 -0.5513
 4195SOL     OW13330   5.882   2.532   0.853  1.0472  0.3320  0.0158
 4195SOL    HW113331   5.934   2.506   0.929  1.5351  1.2145 -0.0025
 4195SOL    HW213332   5.809   2.582   0.890 -1.2238 -2.8577  0.2696
 4196SOL     OW13333   0.133   1.888   0.413  0.3728  0.0313  0.1134
 4196SOL    HW113334   0.097   1.890   0.324  1.6815  1.9753 -0.4351
 4196SOL    HW213335   0.224   1.914   0.402  0.4295  0.7797  2.0875
 4197SOL     OW13336   0.911   6.174   1.564  0.0814 -0.3457 -0.1894
 4197SOL    HW113337   0.991   6.160   1.513  0.7504 -0.6807  0.9160
 4197SOL    HW213338   0.840   6.151   1.504  0.7044  1.5399 -1.7386
 4198SOL     OW13339   4.047   2.362   5.821  0.5982  1.1261 -0.0513
 4198SOL    HW113340   3.964   2.360   5.773  0.6288  1.5285 -0.1213
 4198SOL    HW213341   4.110   2.324   5.759  0.3550  0.2247  0.2333
 4199SOL     OW13342   1.772   4.254   1.044  0.0002 -0.3293 -0.7178
 4199SOL    HW113343   1.698   4.214   0.999 -0.0095  0.2542 -1.2363
 4199SOL    HW213344   1.762   4.348   1.029 -0.1915 -0.0857  0.8186
 4200SOL     OW13345   5.122   5.238   0.615  0.7534  0.3850  0.5968
 4200SOL    HW113346   5.130   5.171   0.546  1.9109  1.7584 -0.6748
 4200SOL    HW213347   5.119   5.188   0.696  1.4818 -1.2295 -0.3087
 4201SOL     OW13348   5.904   4.838   2.894  0.6605  0.4623  0.0375
 4201SOL    HW113349   5.906   4.749   2.930 -2.6507  0.2550  0.0472
 4201SOL    HW213350   5.872   4.826   2.804  0.7626  1.5979 -0.1637
 4202SOL     OW13351   5.466   4.751   2.462  0.3148 -0.6296  0.3046
 4202SOL    HW113352   5.485   4.839   2.428 -0.0984 -0.7826 -0.3357
 4202SOL    HW213353   5.419   4.767   2.544 -0.8247 -0.2362 -0.4075
 4203SOL     OW13354   0.450   3.255   2.746 -0.1161  0.6126  0.4910
 4203SOL    HW113355   0.383   3.199   2.707 -0.6331 -0.6041  2.9043
 4203SOL    HW213356   0.402   3.331   2.780  0.1215  1.0031 -0.0373
 4204SOL     OW13357   2.210   0.442   3.537 -0.0385  0.1036  0.0982
 4204SOL    HW113358   2.234   0.404   3.452 -0.4386 -0.7269  0.3417
 4204SOL    HW213359   2.144   0.382   3.572 -0.4722  0.8741  0.6412
 4205SOL     OW13360   4.651   2.502   4.722 -0.0531  0.4852  0.1451
 4205SOL    HW113361   4.637   2.463   4.635 -1.7690 -2.8860  1.7145
 4205SOL    HW213362   4.731   2.554   4.712  2.0713 -2.8075 -2.6006
 4206SOL     OW13363   1.592   1.699   2.566  0.3186  0.1289 -0.5278
 4206SOL    HW113364   1.497   1.696   2.556  0.4909  0.1680 -2.4315
 4206SOL    HW213365   1.615   1.615   2.606 -0.3680 -0.5293 -1.4819
 4207SOL     OW13366   3.741   5.513   3.655  0.1230  0.1411 -0.4690
 4207SOL    HW113367   3.664   5.459   3.670  0.7155 -0.4881  0.4107
 4207SOL    HW213368   3.810   5.472   3.707  1.2498  0.2690 -1.8155
 4208SOL     OW13369   3.681   2.948   3.261 -0.5725  0.0603  0.5483
 4208SOL    HW113370   3.586   2.953   3.252 -0.6373 -0.3840  0.9451
 4208SOL    HW213371   3.700   2.996   3.342 -0.3352  1.1274 -0.1174
 4209SOL     OW13372   6.119   0.001   0.534 -0.5020 -0.0096 -0.0862
 4209SOL    HW113373   6.142   0.086   0.571 -0.6504  0.1905 -0.4505
 4209SOL    HW213374   6.157  -0.063   0.595 -0.6174  0.3159  0.3289
 4210SOL     OW13375   1.246   0.167   4.018  0.4254  0.5006 -0.4051
 4210SOL    HW113376   1.221   0.175   4.110  0.0251 -0.4341 -0.4217
 4210SOL    HW213377   1.338   0.141   4.020  0.5535  0.9586 -0.2794
 4211SOL     OW13378   2.382   0.494   5.511  0.2522 -0.4037  0.7950
 4211SOL    HW113379   2.468   0.486   5.552 -0.1556  0.5568  1.9215
 4211SOL    HW213380   2.364   0.408   5.474  1.4610 -0.7709  1.0386
 4212SOL     OW13381   4.875   4.415   1.134 -0.3145  0.3627 -0.5748
 4212SOL    HW113382   4.938   4.387   1.201 -0.1545  1.0040 -0.4573
 4212SOL    HW213383   4.915   4.391   1.051 -0.5535 -0.5241 -0.4460
 4213SOL     OW13384   4.416   5.253   0.666 -0.1195 -0.1304  0.3610
 4213SOL    HW113385   4.349   5.189   0.642  0.1454 -0.5320  0.6666
 4213SOL    HW213386   4.386   5.288   0.750  1.1450 -1.9392  1.6380
 4214SOL     OW13387   0.529   2.152   3.655 -0.9689  0.0497 -0.0409
 4214SOL    HW113388   0.491   2.166   3.568 -1.5065 -1.3150 -0.0447
 4214SOL    HW213389   0.550   2.059   3.657  0.4482  0.3546  0.7524
 4215SOL     OW13390   2.956   2.016   3.659 -0.0425  0.4770  0.0002
 4215SOL    HW113391   3.021   1.955   3.626  0.7220  0.9397  0.6234
 4215SOL    HW213392   2.901   1.964   3.717  0.3507  0.2813  0.2006
 4216SOL     OW13393   3.644   0.430   2.857 -0.5087 -0.1724  0.0888
 4216SOL    HW113394   3.634   0.400   2.767 -0.4966  1.3699 -0.4676
 4216SOL    HW213395   3.634   0.352   2.910 -0.1106 -1.1852 -1.2712
 4217SOL     OW13396   3.924   4.016   3.921  0.2503 -0.1162  0.4852
 4217SOL    HW113397   3.924   4.031   4.015  1.3388  1.0989  0.3241
 4217SOL    HW213398   3.884   3.930   3.910 -1.3855  0.4214  1.9187
 4218SOL     OW13399   4.481   5.187   2.363 -0.4775 -0.4019  0.2953
 4218SOL    HW113400   4.534   5.183   2.283 -1.0788 -1.1572 -0.0787
 4218SOL    HW213401   4.525   5.253   2.417 -0.7099  0.9620 -1.1151
 4219SOL     OW13402   5.863   4.091   4.585 -0.2402 -0.7307 -0.1419
 4219SOL    HW113403   5.912   4.166   4.619 -0.3316 -0.9670  0.5256
 4219SOL    HW213404   5.926   4.018   4.588 -0.8201 -1.2182  1.4510
 4220SOL     OW13405   2.765   5.452   2.606 -0.1858 -0.2047 -0.2598
 4220SOL    HW113406   2.808   5.537   2.618  0.0831 -0.1207 -1.6061
 4220SOL    HW213407   2.763   5.440   2.511 -1.9461 -0.8301 -0.1767
 4221SOL     OW13408   0.955   2.745   0.861  0.1296 -0.6533  0.1083
 4221SOL    HW113409   0.956   2.796   0.942 -0.6391  1.2662 -1.0129
 4221SOL    HW213410   1.034   2.774   0.815  0.2797 -1.3411 -0.0802
 4222SOL     OW13411   2.765   6.223   6.083  0.0584  0.0346 -0.0380
 4222SOL    HW113412   2.739   6.168   6.010  0.6639 -1.4804  0.8443
 4222SOL    HW213413   2.703   6.201   6.153 -0.2167  1.1042  0.0703
 4223SOL     OW13414   3.142   0.325   0.858  0.5060  0.4608  0.4353
 4223SOL    HW113415   3.160   0.412   0.821  1.1619 -0.3864 -1.3573
 4223SOL    HW213416   3.122   0.342   0.950 -0.6184  2.6466 -0.1287
 4224SOL     OW13417   2.729   2.776   3.808  0.1858  0.2219  0.1159
 4224SOL    HW113418   2.646   2.738   3.781 -0.0764 -0.0255  1.2229
 4224SOL    HW213419   2.763   2.715   3.874  1.1548  0.4121 -0.1891
 4225SOL     OW13420   4.151   3.128   1.026 -0.0753  0.0606  0.0092
 4225SOL    HW113421   4.232   3.082   1.049  1.1941  2.2993  0.3265
 4225SOL    HW213422   4.155   3.137   0.931 -1.2170 -1.9322 -0.2855
 4226SOL     OW13423   3.520   3.469   6.053  0.2917 -1.0932  0.0807
 4226SOL    HW113424   3.593   3.531   6.052 -1.1858  0.7649 -0.0857
 4226SOL    HW213425   3.469   3.493   6.130 -0.5214 -1.8670 -0.1934
 4227SOL     OW13426   4.256   3.466   3.400  0.0742  0.4145  0.3360
 4227SOL    HW113427   4.210   3.479   3.317 -1.7923 -0.6068  1.1495
 4227SOL    HW213428   4.236   3.375   3.424  2.0920  0.1123  1.0300
 4228SOL     OW13429   2.932   2.739   5.045 -0.2425 -0.0467  0.0051
 4228SOL    HW113430   2.999   2.804   5.024  2.9884 -2.7958  0.8519
 4228SOL    HW213431   2.980   2.657   5.052 -3.7004 -2.1818  1.2405
 4229SOL     OW13432   3.071   5.448   4.454  0.5223  0.3579  0.1422
 4229SOL    HW113433   3.028   5.364   4.442 -0.7926  0.7163  1.9476
 4229SOL    HW213434   3.160   5.427   4.483  0.3532 -0.3880  0.1188
 4230SOL     OW13435   2.177   1.249   3.485  0.1365 -0.7776  0.1928
 4230SOL    HW113436   2.220   1.308   3.548  0.4835 -2.9170  2.1031
 4230SOL    HW213437   2.098   1.220   3.531 -1.0137 -0.4003 -1.4663
 4231SOL     OW13438   5.368   5.967   6.197  0.7093 -0.0482 -0.2968
 4231SOL    HW113439   5.448   6.019   6.193 -0.3478  1.7153  0.5389
 4231SOL    HW213440   5.395   5.884   6.236  2.0838  0.6086  0.1979
 4232SOL     OW13441   6.020   1.815   1.721  0.3879  0.0505 -0.2334
 4232SOL    HW113442   5.984   1.904   1.721  0.6140  0.1479  0.6908
 4232SOL    HW213443   5.967   1.769   1.786  0.6198 -0.3445 -0.3272
 4233SOL     OW13444   3.927   0.189   1.206  0.0338 -0.1794  0.3662
 4233SOL    HW113445   3.888   0.196   1.118 -0.4936 -0.7205  0.5475
 4233SOL    HW213446   3.964   0.100   1.208  0.2022 -0.1023  0.6307
 4234SOL     OW13447   2.836   1.069   4.566 -0.7413 -0.2343 -0.2354
 4234SOL    HW113448   2.903   1.136   4.576 -1.3009  0.2575  0.2498
 4234SOL    HW213449   2.815   1.042   4.655 -0.7069 -0.8670 -0.4161
 4235SOL     OW13450   3.423   3.540   5.407 -0.4656 -0.7246  0.1549
 4235SOL    HW113451   3.343   3.592   5.405 -0.1025 -0.1183  0.9313
 4235SOL    HW213452   3.441   3.526   5.500 -0.1457 -1.6072 -0.0229
 4236SOL     OW13453   6.031   6.112   2.454  0.0179  0.0087 -0.1368
 4236SOL    HW113454   5.961   6.047   2.453  0.9552 -1.0621 -1.7458
 4236SOL    HW213455   6.009   6.171   2.526 -2.2940 -0.5271 -0.3290
 4237SOL     OW13456   5.250   5.059   3.429 -0.6921 -0.6598  1.0977
 4237SOL    HW113457   5.187   5.013   3.372  0.1680 -1.3111  0.6377
 4237SOL    HW213458   5.332   5.012   3.416  0.3912  1.3543  0.1739
 4238SOL     OW13459   2.788   3.594   4.152 -0.3280 -0.1928 -0.0846
 4238SOL    HW113460   2.808   3.663   4.215  0.0235  0.3358 -0.7535
 4238SOL    HW213461   2.694   3.601   4.139 -0.1487  0.9357 -0.9884
 4239SOL     OW13462   4.070   3.113   5.470  0.1264 -0.5484 -0.2086
 4239SOL    HW113463   3.982   3.078   5.455 -0.3409  0.3834  0.2381
 4239SOL    HW213464   4.084   3.102   5.564  1.0831 -2.0048 -0.5066
 4240SOL     OW13465   5.707   1.096   4.855 -0.2832 -0.2133 -0.0882
 4240SOL    HW113466   5.773   1.027   4.866  1.3822  0.7541 -2.9179
 4240SOL    HW213467   5.729   1.161   4.921 -1.5233 -2.0145  2.2414
 4241SOL     OW13468   2.886   1.514   0.695  0.1364 -0.1626 -0.2479
 4241SOL    HW113469   2.887   1.535   0.601  2.5457 -0.0785 -0.2862
 4241SOL    HW213470   2.967   1.554   0.728 -0.3946 -0.6713  1.7602
 4242SOL     OW13471   2.067   0.418   0.391  0.2907  0.1047  0.0240
 4242SOL    HW113472   2.147   0.404   0.442 -0.7186 -0.5136  1.5188
 4242SOL    HW213473   2.096   0.418   0.300  2.1721  1.2943  0.5728
 4243SOL     OW13474   5.811   5.789   5.618  0.4195 -0.0114 -0.0295
 4243SOL    HW113475   5.735   5.732   5.630  1.0593 -0.8659  0.0649
 4243SOL    HW213476   5.875   5.734   5.573  0.9312  0.7477 -0.2524
 4244SOL     OW13477   4.929   6.249   6.292 -0.1680 -0.2653  0.3418
 4244SOL    HW113478   4.845   6.243   6.338 -0.0741 -0.9953  0.4417
 4244SOL    HW213479   4.915   6.313   6.223 -1.1167 -1.0962 -0.2620
 4245SOL     OW13480   2.830   5.323   3.204  0.3376 -0.5559 -0.6592
 4245SOL    HW113481   2.790   5.284   3.282  1.7391  0.4736  0.6276
 4245SOL    HW213482   2.923   5.300   3.210  1.1662  2.5415 -0.0414
 4246SOL     OW13483   2.442   2.470   3.718  0.2497  0.2269  1.0211
 4246SOL    HW113484   2.415   2.558   3.690 -0.3889 -0.3121 -0.0988
 4246SOL    HW213485   2.427   2.471   3.813 -2.5421  0.4309  0.6765
 4247SOL     OW13486   1.443   1.614   3.412 -0.5092 -0.2751  0.1806
 4247SOL    HW113487   1.475   1.605   3.502 -1.5747  1.6299  0.8053
 4247SOL    HW213488   1.504   1.675   3.371 -1.3037  0.6250  0.3158
 4248SOL     OW13489   4.407   5.440   0.259  0.4997  0.1253  0.0327
 4248SOL    HW113490   4.448   5.392   0.187  0.1152  1.6903 -1.2737
 4248SOL    HW213491   4.314   5.417   0.253  0.7300 -1.3020  1.3160
 4249SOL     OW13492   4.627   4.340   2.347  0.0424  0.2245  0.0628
 4249SOL    HW113493   4.585   4.316   2.430 -1.9687  0.2121 -0.9228
 4249SOL    HW213494   4.615   4.435   2.340 -0.6259  0.0883 -0.6582
 4250SOL     OW13495   1.816   3.998   0.704 -0.0111  0.0469 -0.1199
 4250SOL    HW113496   1.760   3.944   0.760 -0.3325 -0.0569 -0.5321
 4250SOL    HW213497   1.831   3.944   0.626  0.0875  0.3493 -0.3126
 4251SOL     OW13498   5.861   5.973   3.993  0.3423  0.1457  0.0578
 4251SOL    HW113499   5.773   5.943   4.017  0.4481  0.4206  0.8235
 4251SOL    HW213500   5.860   6.066   4.013  0.0562  0.6930 -2.1825
 4252SOL     OW13501   3.256   4.935   3.313  0.6712  0.0549  0.4587
 4252SOL    HW113502   3.267   4.840   3.305  1.3449  0.2542 -1.5800
 4252SOL    HW213503   3.195   4.959   3.243  1.2869  1.2290  0.2847
 4253SOL     OW13504   4.959   0.388   0.264 -0.2508 -0.3408 -0.4724
 4253SOL    HW113505   5.002   0.338   0.195  0.0940  0.0165 -0.5210
 4253SOL    HW213506   4.903   0.325   0.309  1.8836 -1.3259  0.9729
 4254SOL     OW13507   4.324   5.545   3.833 -0.2746 -0.4279  0.8024
 4254SOL    HW113508   4.300   5.461   3.795 -2.1872  0.7330 -0.7564
 4254SOL    HW213509   4.416   5.557   3.811 -0.6800 -0.9309 -1.4030
 4255SOL     OW13510   0.329   3.424   2.473  0.6066  0.3515  0.1485
 4255SOL    HW113511   0.287   3.410   2.558  0.6714 -1.3281 -0.0557
 4255SOL    HW213512   0.256   3.418   2.410  0.8745 -0.8657 -0.0747
 4256SOL     OW13513   2.739   2.176   2.167  0.1076 -0.7670 -0.2557
 4256SOL    HW113514   2.830   2.147   2.155  0.1327 -1.3085  1.1868
 4256SOL    HW213515   2.747   2.258   2.217 -0.1302  0.1800 -1.6923
 4257SOL     OW13516   1.948   4.211   0.810  0.4221 -0.0684 -0.3566
 4257SOL    HW113517   1.930   4.143   0.744 -0.6952  1.5903 -1.8669
 4257SOL    HW213518   1.883   4.195   0.879 -0.7968  0.2775 -1.3765
 4258SOL     OW13519   1.112   4.367   4.609  0.2056  0.0372 -0.0325
 4258SOL    HW113520   1.051   4.300   4.581 -0.3220  0.5357 -0.0918
 4258SOL    HW213521   1.067   4.414   4.679 -0.0289  1.2533 -0.9610
 4259SOL     OW13522   5.458   3.323   0.772 -0.0365 -0.4527 -0.2289
 4259SOL    HW113523   5.523   3.264   0.735  1.3251 -0.8549  2.5793
 4259SOL    HW213524   5.504   3.405   0.786 -0.9993  0.2443 -0.9599
 4260SOL     OW13525   0.130   1.580   1.147  0.0496 -0.5151  0.1302
 4260SOL    HW113526   0.173   1.507   1.103  1.0650  0.5415 -0.7070
 4260SOL    HW213527   0.086   1.628   1.076 -3.3867 -2.0163  1.0312
 4261SOL     OW13528   4.742   1.275   6.284 -0.2434 -0.0959  0.2978
 4261SOL    HW113529   4.739   1.366   6.312  0.0189 -0.2630  0.8960
 4261SOL    HW213530   4.816   1.271   6.224 -1.7706  0.6046 -1.7488
 4262SOL     OW13531   2.663   6.105   0.408 -0.4213 -0.2723  0.2392
 4262SOL    HW113532   2.662   6.025   0.462  1.2278  0.3069  1.2257
 4262SOL    HW213533   2.707   6.078   0.327 -0.2445 -0.4710  0.3990
 4263SOL     OW13534   0.579   2.887   1.677 -0.3892 -0.1219 -0.1456
 4263SOL    HW113535   0.615   2.939   1.606  0.5284 -1.2223 -0.5237
 4263SOL    HW213536   0.485   2.885   1.660  0.0022 -2.6372 -3.0277
 4264SOL     OW13537   0.728   0.169   0.469 -0.3365 -0.2428 -0.0869
 4264SOL    HW113538   0.642   0.206   0.492 -0.5187 -0.1010 -0.9693
 4264SOL    HW213539   0.734   0.089   0.521 -0.8026 -0.0128  0.3369
 4265SOL     OW13540   3.529   1.902   2.926  0.0357 -0.2565 -0.5893
 4265SOL    HW113541   3.519   1.984   2.975 -1.7395 -1.0800  0.5188
 4265SOL    HW213542   3.508   1.926   2.836 -2.0922  0.2600 -0.0236
 4266SOL     OW13543   2.790   5.008   2.213 -0.0883  0.0845 -0.2600
 4266SOL    HW113544   2.858   4.955   2.255 -1.0086  0.0070  1.2127
 4266SOL    HW213545   2.838   5.077   2.167  1.0343 -0.8466 -0.5399
 4267SOL     OW13546   0.653   0.477   0.246  0.6713 -0.2726  0.3524
 4267SOL    HW113547   0.687   0.389   0.260  1.7054 -0.0628 -0.7124
 4267SOL    HW213548   0.716   0.535   0.290 -0.7115 -0.1001  2.2215
 4268SOL     OW13549   0.277   2.697   3.164  0.0014  0.2534  0.4429
 4268SOL    HW113550   0.273   2.712   3.070  0.1079 -0.3096  0.3440
 4268SOL    HW213551   0.356   2.742   3.193  0.5963 -0.5138  0.0717
 4269SOL     OW13552   5.477   1.005   0.513  0.4588 -0.3103  0.7228
 4269SOL    HW113553   5.541   0.956   0.461  0.0432 -0.6008  0.4852
 4269SOL    HW213554   5.427   0.937   0.559  0.2651 -0.0835  0.8473
 4270SOL     OW13555   5.645   2.879   1.078 -0.5659 -0.2328 -0.6306
 4270SOL    HW113556   5.704   2.850   1.148 -1.1644  1.4349  0.6261
 4270SOL    HW213557   5.580   2.933   1.122 -0.5646  1.4776 -2.5789
 4271SOL     OW13558   5.968   1.008   0.485  0.4128  0.9918  0.4250
 4271SOL    HW113559   5.965   0.925   0.437  0.3368  0.3656  1.4910
 4271SOL    HW213560   6.056   1.042   0.468  0.1970  1.0828 -0.6245
 4272SOL     OW13561   1.373   5.219   3.280  0.4465 -0.6788 -0.8885
 4272SOL    HW113562   1.361   5.226   3.375  1.0327  0.8451 -0.8877
 4272SOL    HW213563   1.303   5.161   3.251 -0.2815 -0.4738  0.3643
 4273SOL     OW13564   0.846   1.507   1.170  0.5069  0.0438  0.3719
 4273SOL    HW113565   0.914   1.535   1.232  0.5312  0.9483 -0.0510
 4273SOL    HW213566   0.767   1.550   1.200  0.3434 -0.1646  0.2431
 4274SOL     OW13567   3.617   5.523   1.059 -0.4945  0.1844  0.4784
 4274SOL    HW113568   3.570   5.440   1.058  2.8955 -1.9292  1.5806
 4274SOL    HW213569   3.628   5.546   0.967  1.3028 -2.3910 -0.0360
 4275SOL     OW13570   2.134   4.796   4.933 -0.6892  0.5032  0.5087
 4275SOL    HW113571   2.199   4.745   4.884 -0.6907  0.2440  0.7789
 4275SOL    HW213572   2.102   4.736   5.000 -0.8965  0.7705  0.6479
 4276SOL     OW13573   3.750   4.420   5.087  0.3508 -0.0006 -0.1788
 4276SOL    HW113574   3.758   4.462   5.173 -0.7059  0.4457 -0.2825
 4276SOL    HW213575   3.749   4.326   5.105 -0.4130  0.1023  0.3629
 4277SOL     OW13576   2.797   0.500   4.924 -0.2909 -0.7124  0.2128
 4277SOL    HW113577   2.731   0.495   4.993 -0.5058  0.3129  0.0988
 4277SOL    HW213578   2.880   0.482   4.968 -0.4533 -0.2972  0.6879
 4278SOL     OW13579   0.207   2.558   3.746 -0.0817  0.4959 -0.1298
 4278SOL    HW113580   0.293   2.551   3.705 -0.1277 -0.0072 -0.1451
 4278SOL    HW213581   0.169   2.638   3.708  1.1448  1.8580  1.3361
 4279SOL     OW13582   5.762   5.497   5.942 -0.1022  0.4816  0.2063
 4279SOL    HW113583   5.694   5.564   5.941 -1.0441 -0.4476 -0.5296
 4279SOL    HW213584   5.820   5.520   5.869 -0.1078  0.8096  0.3065
 4280SOL     OW13585   0.024   4.615   5.253  0.2961  0.7055  0.1209
 4280SOL    HW113586  -0.031   4.683   5.289 -0.1945 -0.0569  0.8399
 4280SOL    HW213587   0.110   4.630   5.292  0.3156  1.1932 -0.1000
 4281SOL     OW13588   3.034   0.611   2.526  0.9309  0.8041  0.0126
 4281SOL    HW113589   2.995   0.659   2.599 -0.5026 -1.9732  1.2316
 4281SOL    HW213590   2.968   0.616   2.457  0.7899  0.6094  0.1325
 4282SOL     OW13591   3.785   0.494   1.333 -0.3625  0.2702  0.2160
 4282SOL    HW113592   3.736   0.473   1.412 -0.5603 -1.4025 -0.3063
 4282SOL    HW213593   3.741   0.445   1.264 -0.3133  1.8505 -0.9953
 4283SOL     OW13594   1.466   2.422   1.983  0.2148 -0.2743  0.4486
 4283SOL    HW113595   1.472   2.418   2.078 -1.2524 -2.2778  0.5207
 4283SOL    HW213596   1.382   2.466   1.966  1.0128  1.1465  0.0254
 4284SOL     OW13597   5.694   6.095   5.538  0.2066 -0.5987 -0.2814
 4284SOL    HW113598   5.643   6.106   5.618 -0.5470 -1.6435 -0.5861
 4284SOL    HW213599   5.712   6.184   5.508 -1.5085 -0.1783 -0.1758
 4285SOL     OW13600   0.078   5.535   3.792 -0.3985 -0.6170  0.0124
 4285SOL    HW113601   0.148   5.488   3.747  0.8340  0.7268  0.4313
 4285SOL    HW213602   0.123   5.588   3.857 -1.9913 -1.1984  1.6781
 4286SOL     OW13603   2.851   5.687   2.939  0.3449  0.2757  0.0910
 4286SOL    HW113604   2.928   5.714   2.889  1.2762  0.7815  1.7303
 4286SOL    HW213605   2.849   5.592   2.931  0.1278  0.3834 -1.3605
 4287SOL     OW13606   5.023   1.296   5.680  0.6079 -0.1871  0.1452
 4287SOL    HW113607   4.930   1.318   5.673  0.3969 -1.4475 -2.2044
 4287SOL    HW213608   5.032   1.259   5.768 -0.6159  1.8635  1.2211
 4288SOL     OW13609   6.202   5.232   6.082  0.2336 -0.6266  0.1680
 4288SOL    HW113610   6.129   5.245   6.021 -0.2914  0.1551  0.9346
 4288SOL    HW213611   6.253   5.313   6.075  0.3664 -0.6801  0.5081
 4289SOL     OW13612   3.984   4.386   0.609  0.2277  0.0505  0.1659
 4289SOL    HW113613   3.908   4.331   0.628  1.7989 -2.0321  0.7923
 4289SOL    HW213614   4.015   4.414   0.695  0.1132  1.0040 -0.0939
 4290SOL     OW13615   1.745   1.828   1.156  0.5082  0.1181 -0.7388
 4290SOL    HW113616   1.811   1.897   1.159  0.9348 -0.3000  0.4041
 4290SOL    HW213617   1.714   1.827   1.066  1.7616  0.6129 -1.1928
 4291SOL     OW13618   3.733   2.261   3.590  0.2743 -0.2660 -0.5359
 4291SOL    HW113619   3.727   2.245   3.684 -1.1968 -0.7293 -0.6984
 4291SOL    HW213620   3.751   2.355   3.583  0.2014 -0.1976  0.1935
 4292SOL     OW13621   4.869   1.643   2.630 -0.4500 -0.0105  0.1150
 4292SOL    HW113622   4.921   1.720   2.652  1.1242 -1.2639  1.0340
 4292SOL    HW213623   4.859   1.646   2.535  0.6321  0.7010  0.0132
 4293SOL     OW13624   4.980   2.869   2.748 -0.8543 -0.1019 -0.6741
 4293SOL    HW113625   4.946   2.882   2.659  0.6988 -1.6805 -1.5822
 4293SOL    HW213626   4.966   2.776   2.765 -1.1716  0.1959  0.7726
 4294SOL     OW13627   5.594   2.360   4.429  0.6348 -0.0240  0.0284
 4294SOL    HW113628   5.687   2.377   4.416  0.0083  1.9868 -2.4036
 4294SOL    HW213629   5.568   2.421   4.498  0.7039  1.0275 -0.8500
 4295SOL     OW13630   5.054   4.576   0.127  0.3358  0.3453 -0.1744
 4295SOL    HW113631   5.098   4.656   0.154 -0.7912  0.6644  0.7828
 4295SOL    HW213632   5.037   4.588   0.033  0.7026  0.9464 -0.1688
 4296SOL     OW13633   5.161   1.552   3.749  0.0498 -0.0065 -0.2258
 4296SOL    HW113634   5.071   1.532   3.775 -0.0499  0.6410 -0.0640
 4296SOL    HW213635   5.171   1.508   3.664 -0.2486 -0.5125 -0.0007
 4297SOL     OW13636   4.991   1.131   0.193  0.1620 -0.0278  0.2704
 4297SOL    HW113637   5.073   1.133   0.243 -0.1883 -0.8393  0.9104
 4297SOL    HW213638   4.927   1.097   0.255 -0.4221 -0.4692 -0.5616
 4298SOL     OW13639   5.944   5.478   2.569 -0.0958 -0.3002  0.0362
 4298SOL    HW113640   5.977   5.421   2.638  1.1567 -2.9857 -2.5431
 4298SOL    HW213641   5.864   5.436   2.537  0.1207  0.0685 -1.0644
 4299SOL     OW13642   3.898   2.184   1.378 -0.5199  0.3567  0.2383
 4299SOL    HW113643   3.948   2.124   1.323 -0.5015  1.1594 -0.6310
 4299SOL    HW213644   3.941   2.179   1.464  0.5797  0.4578 -0.2898
 4300SOL     OW13645   4.196   3.363   5.480  0.4644 -0.0571  0.0390
 4300SOL    HW113646   4.150   3.439   5.444 -0.9730 -1.0148 -0.2115
 4300SOL    HW213647   4.141   3.288   5.457  0.3230 -0.9037  2.7988
 4301SOL     OW13648   6.159   0.253   3.044 -0.0779 -0.0983 -0.4330
 4301SOL    HW113649   6.084   0.194   3.037  1.2510 -1.7078 -2.2937
 4301SOL    HW213650   6.215   0.229   2.970  0.4924  3.6275 -1.4327
 4302SOL     OW13651   4.332   4.345   3.877 -0.1324  0.1077  0.2876
 4302SOL    HW113652   4.370   4.355   3.965  1.2680 -0.8025 -0.1696
 4302SOL    HW213653   4.381   4.408   3.823 -2.0310  1.7717  0.4061
 4303SOL     OW13654   2.772   3.944   6.284 -0.3396 -0.2321  0.3841
 4303SOL    HW113655   2.845   4.006   6.280 -0.9235  0.4280 -0.3164
 4303SOL    HW213656   2.706   3.989   6.338 -0.4904 -0.5463  0.4634
 4304SOL     OW13657   2.812   2.014   5.774  0.2589  0.6261 -0.0983
 4304SOL    HW113658   2.817   2.079   5.845 -0.0257  2.0509 -1.3420
 4304SOL    HW213659   2.898   2.016   5.734 -0.0352  0.9277 -0.7248
 4305SOL     OW13660   1.593   0.884   1.101  0.0789 -0.8791 -1.1679
 4305SOL    HW113661   1.664   0.828   1.132 -0.2440 -0.1284  1.0943
 4305SOL    HW213662   1.635   0.969   1.085 -0.0792 -0.7593 -0.9624
 4306SOL     OW13663   3.101   3.462   5.505 -0.3631  0.3115 -0.4941
 4306SOL    HW113664   3.097   3.473   5.410 -1.4334 -0.5807 -0.5770
 4306SOL    HW213665   3.011   3.439   5.530  0.3555 -1.7629  0.4183
 4307SOL     OW13666   1.285   5.716   0.175  0.5774  0.2045  0.1182
 4307SOL    HW113667   1.248   5.630   0.197  0.0962  0.2928 -0.3333
 4307SOL    HW213668   1.374   5.713   0.211 -0.1699  0.3470  2.0859
 4308SOL     OW13669   6.022   2.180   6.184 -0.8256 -0.4487  0.1308
 4308SOL    HW113670   5.980   2.138   6.109  0.2974 -0.4589 -0.5034
 4308SOL    HW213671   6.014   2.274   6.167  1.4586 -0.4356 -1.2036
 4309SOL     OW13672   4.388   5.990   4.997 -0.2069 -0.2309  0.1440
 4309SOL    HW113673   4.424   5.917   5.048  1.8385  2.7569  3.4061
 4309SOL    HW213674   4.306   6.011   5.041 -0.1953  0.1699 -0.0286
 4310SOL     OW13675   1.085   1.107   5.796 -0.7487  0.8593  0.6181
 4310SOL    HW113676   1.131   1.026   5.816 -0.0661  0.1689 -2.9894
 4310SOL    HW213677   0.996   1.080   5.775 -1.0938  1.3534  1.4073
 4311SOL     OW13678   4.499   3.766   5.448 -0.2979  0.5050  0.4301
 4311SOL    HW113679   4.586   3.734   5.472 -0.0160 -0.3041 -1.4159
 4311SOL    HW213680   4.514   3.820   5.370 -1.4340  0.2200 -0.0171
 4312SOL     OW13681   5.008   5.848   0.653  0.1029 -0.6026  0.2206
 4312SOL    HW113682   4.962   5.822   0.733 -3.0403  1.6187 -0.6629
 4312SOL    HW213683   4.960   5.805   0.583  0.2186  0.7186 -0.6916
 4313SOL     OW13684   1.504   1.716   5.699  0.2547  0.4400 -0.3702
 4313SOL    HW113685   1.590   1.679   5.677  0.7782  1.1206  0.4627
 4313SOL    HW213686   1.524   1.803   5.733 -0.7784  0.6077 -0.1662
 4314SOL     OW13687   2.276   5.119   2.674 -0.7887  0.0550  0.0112
 4314SOL    HW113688   2.333   5.188   2.707 -1.4805  1.2027 -1.1142
 4314SOL    HW213689   2.311   5.039   2.712 -0.6877  1.1320  2.3213
 4315SOL     OW13690   2.289   3.743   2.176  0.0934  0.0568  0.1942
 4315SOL    HW113691   2.221   3.737   2.110 -0.6603  0.2374  0.9327
 4315SOL    HW213692   2.321   3.654   2.187  0.2871  0.0385 -0.4602
 4316SOL     OW13693   2.108   4.514   1.921  0.5170  0.3966 -0.2352
 4316SOL    HW113694   2.134   4.604   1.942 -0.1881  0.5764 -0.0900
 4316SOL    HW213695   2.109   4.469   2.006  0.8194  0.2846 -0.3001
 4317SOL     OW13696   2.309   4.367   3.120  0.3080 -0.1560  0.3098
 4317SOL    HW113697   2.386   4.355   3.177 -0.9670 -1.0162  1.9358
 4317SOL    HW213698   2.246   4.302   3.152 -1.1400  0.6092 -0.9099
 4318SOL     OW13699   0.467   3.124   5.285 -0.4514 -0.6063  0.0664
 4318SOL    HW113700   0.537   3.190   5.283  0.3233 -1.4333 -0.9935
 4318SOL    HW213701   0.454   3.100   5.194 -2.0060 -0.6208  0.2641
 4319SOL     OW13702   5.495   2.738   1.760  0.1629  0.2095  1.0261
 4319SOL    HW113703   5.542   2.673   1.812  0.7157  0.5410  0.9428
 4319SOL    HW213704   5.531   2.729   1.672  0.4455  0.8240  1.0762
 4320SOL     OW13705   0.657   4.561   1.415  0.0940 -0.0899 -0.2146
 4320SOL    HW113706   0.710   4.497   1.463 -0.0577  1.3543  2.0279
 4320SOL    HW213707   0.577   4.514   1.392  0.8328 -1.2694 -0.4540
 4321SOL     OW13708   3.151   6.161   3.522 -0.0181  0.1548  0.3336
 4321SOL    HW113709   3.173   6.083   3.470  0.3761  0.5600 -0.1229
 4321SOL    HW213710   3.144   6.231   3.457 -1.0043  0.3834  0.6688
 4322SOL     OW13711   0.140   4.502   4.401  0.4256  0.0986 -0.4509
 4322SOL    HW113712   0.119   4.490   4.309  1.1171 -0.1291 -0.5875
 4322SOL    HW213713   0.217   4.447   4.415  1.3764  1.4310 -0.1689
 4323SOL     OW13714   0.391   3.428   6.144  0.3146 -0.7853 -0.1538
 4323SOL    HW113715   0.316   3.473   6.105  0.8851  0.1737 -0.1737
 4323SOL    HW213716   0.437   3.496   6.193  0.3413 -1.6804  1.1229
 4324SOL     OW13717   2.692   0.070   3.813  0.9531 -0.2560 -0.1164
 4324SOL    HW113718   2.696   0.165   3.808  0.4705 -0.2348 -0.1282
 4324SOL    HW213719   2.603   0.048   3.787  0.5018 -0.5952  1.5732
 4325SOL     OW13720   3.553   5.172   0.637 -0.4269 -0.2539  0.0753
 4325SOL    HW113721   3.619   5.186   0.706  0.9340 -1.3972 -0.9324
 4325SOL    HW213722   3.469   5.183   0.681  0.4230  0.9726  1.4753
 4326SOL     OW13723   2.766   4.289   3.295  0.2529  0.1778 -0.1816
 4326SOL    HW113724   2.752   4.225   3.225  1.2140  0.9197 -1.0830
 4326SOL    HW213725   2.834   4.250   3.350 -0.2236 -0.2319  0.1205
 4327SOL     OW13726   0.592   0.203   0.041  0.3800 -0.0024 -0.4757
 4327SOL    HW113727   0.655   0.230   0.108 -1.4646  1.7349  0.6756
 4327SOL    HW213728   0.584   0.108   0.052 -0.0024  0.2546  1.9647
 4328SOL     OW13729   0.442   4.010   0.698 -0.6545  0.1218  0.1569
 4328SOL    HW113730   0.399   4.075   0.754 -1.2292 -0.3898  0.3085
 4328SOL    HW213731   0.372   3.951   0.670 -0.5199  0.7623 -1.6902
 4329SOL     OW13732   1.292   1.495   0.579 -0.0661 -0.6157 -0.4521
 4329SOL    HW113733   1.369   1.439   0.587 -0.2402 -0.9306 -0.9107
 4329SOL    HW213734   1.292   1.548   0.658  1.5615  0.5709 -1.2031
 4330SOL     OW13735   1.472   0.101   0.191 -0.1988 -0.7460  0.4661
 4330SOL    HW113736   1.551   0.051   0.211  0.7588 -0.0718 -1.3366
 4330SOL    HW213737   1.419   0.042   0.137 -1.1755 -1.3572  2.0443
 4331SOL     OW13738   2.657   0.026   4.140  0.3166  0.1645  0.3512
 4331SOL    HW113739   2.749   0.041   4.119  0.5753  0.8129  1.8088
 4331SOL    HW213740   2.654   0.027   4.236 -1.2537  0.5049  0.3244
 4332SOL     OW13741   0.401   5.332   5.877 -0.3557  0.0958  0.1437
 4332SOL    HW113742   0.458   5.255   5.867 -0.6984 -0.1990  0.4335
 4332SOL    HW213743   0.331   5.302   5.934 -0.5825  0.5806  0.1202
 4333SOL     OW13744   4.064   4.576   3.487  0.0603  0.9087  0.2091
 4333SOL    HW113745   4.084   4.484   3.508  1.5433  0.9577 -0.8541
 4333SOL    HW213746   4.098   4.625   3.561  0.3736  0.6932  0.2102
 4334SOL     OW13747   4.098   4.089   5.508  0.5744 -0.0794  0.3667
 4334SOL    HW113748   4.162   4.035   5.555  1.7839  1.8872  1.1036
 4334SOL    HW213749   4.085   4.043   5.425  1.3759 -1.6012  1.0382
 4335SOL     OW13750   6.044   4.446   1.623 -0.1982  0.2823 -0.4353
 4335SOL    HW113751   6.049   4.448   1.527  2.0909 -0.4979 -0.3977
 4335SOL    HW213752   6.010   4.358   1.642 -1.7933  0.8443 -0.4942
 4336SOL     OW13753   4.304   4.500   4.650  0.4295 -0.0845 -0.0258
 4336SOL    HW113754   4.222   4.458   4.675  0.6316  0.3290  1.4369
 4336SOL    HW213755   4.370   4.459   4.705  0.8605  1.0621  0.3424
 4337SOL     OW13756   0.162   4.196   6.200  0.4323  0.1176 -0.7243
 4337SOL    HW113757   0.115   4.150   6.131  0.1409 -1.3232  0.3897
 4337SOL    HW213758   0.239   4.141   6.217  0.5837  0.5383 -0.0273
 4338SOL     OW13759   1.007   1.457   0.558  0.7602  0.1142  0.4794
 4338SOL    HW113760   1.029   1.541   0.598 -0.3434 -0.2482  1.9360
 4338SOL    HW213761   0.945   1.417   0.619  1.3220 -1.7992 -0.1324
 4339SOL     OW13762   0.673   4.980   0.968  0.4186 -0.2666  0.2137
 4339SOL    HW113763   0.649   5.064   1.007  0.6274 -0.0327 -0.1598
 4339SOL    HW213764   0.766   4.988   0.950  0.2455 -0.2242 -0.6945
 4340SOL     OW13765   4.582   1.554   1.729 -0.0202 -0.0593  0.4650
 4340SOL    HW113766   4.539   1.569   1.645  0.8002 -1.1388 -0.1716
 4340SOL    HW213767   4.609   1.642   1.757  1.2709  0.1629 -1.2934
 4341SOL     OW13768   5.322   3.462   1.873 -0.2891 -0.0662  0.0752
 4341SOL    HW113769   5.251   3.501   1.924  1.7801  0.6869  2.5974
 4341SOL    HW213770   5.285   3.451   1.785 -3.4267  0.4264  1.1971
 4342SOL     OW13771   5.120   1.596   1.678  0.2868 -0.5092  0.2826
 4342SOL    HW113772   5.193   1.548   1.639  1.3923  2.2516 -1.3177
 4342SOL    HW213773   5.048   1.586   1.615  0.8459  0.7072 -0.5877
 4343SOL     OW13774   2.411   2.461   5.602 -0.2052  0.0092  0.9790
 4343SOL    HW113775   2.329   2.417   5.623 -0.7589 -0.4532 -1.7557
 4343SOL    HW213776   2.480   2.401   5.632 -0.9028 -0.8133  0.9563
 4344SOL     OW13777   4.691   1.006   2.724  0.1109  0.1939  0.6107
 4344SOL    HW113778   4.604   1.000   2.764  0.1460  1.8575  1.0131
 4344SOL    HW213779   4.677   0.978   2.633 -0.2688 -2.1484  1.3357
 4345SOL     OW13780   5.506   5.016   6.151 -0.0288  0.4005  0.1051
 4345SOL    HW113781   5.530   5.088   6.094 -1.9277  2.0349  1.2355
 4345SOL    HW213782   5.557   5.031   6.231 -0.6176  0.6331  0.4368
 4346SOL     OW13783   5.847   1.050   5.876  0.0921 -0.2208  0.3339
 4346SOL    HW113784   5.909   1.093   5.936  0.1116  1.1344 -0.6175
 4346SOL    HW213785   5.903   1.014   5.807 -0.0404 -0.5586  0.4046
 4347SOL     OW13786   3.906   3.081   6.259 -0.4350 -0.3281 -0.0057
 4347SOL    HW113787   3.907   3.177   6.259 -1.6861 -0.2815  1.6132
 4347SOL    HW213788   3.853   3.057   6.184 -0.9115  0.2737  0.1353
 4348SOL     OW13789   1.762   4.081   1.585 -0.4208 -0.3046  0.3171
 4348SOL    HW113790   1.844   4.099   1.538 -1.9432  3.2548 -1.3531
 4348SOL    HW213791   1.786   4.089   1.677  1.3492 -0.8438 -0.0441
 4349SOL     OW13792   4.225   4.436   3.193 -0.7739  0.7435  0.7449
 4349SOL    HW113793   4.288   4.505   3.215  0.7908 -0.7444  1.0856
 4349SOL    HW213794   4.253   4.403   3.108 -1.5489  0.5385  0.5596
 4350SOL     OW13795   3.168   6.173   2.140 -0.0954  0.4252 -0.4513
 4350SOL    HW113796   3.128   6.139   2.220 -0.4088 -1.1283 -1.2244
 4350SOL    HW213797   3.246   6.219   2.169 -0.4783  0.3182  0.7859
 4351SOL     OW13798   0.752   3.140   1.143 -0.4936 -0.1634 -0.1058
 4351SOL    HW113799   0.778   3.204   1.209  0.2475  0.9555 -1.4283
 4351SOL    HW213800   0.664   3.112   1.170 -0.3406  0.4997  1.1562
 4352SOL     OW13801   2.800   0.236   5.161  0.3898 -0.4155 -0.1293
 4352SOL    HW113802   2.837   0.180   5.230  0.5550 -0.1990 -0.0365
 4352SOL    HW213803   2.790   0.321   5.204  0.3240 -0.3257 -0.3244
 4353SOL     OW13804   3.884   1.552   5.195  0.1372 -0.2286  0.5389
 4353SOL    HW113805   3.843   1.478   5.151 -0.6622  0.8590 -0.6320
 4353SOL    HW213806   3.837   1.561   5.278 -0.7649 -0.1290  0.0242
 4354SOL     OW13807   3.923   2.818   3.093 -0.2587 -0.5303  0.2494
 4354SOL    HW113808   4.004   2.830   3.143 -1.0571 -0.3057  1.5476
 4354SOL    HW213809   3.862   2.882   3.130 -0.9073 -0.4018 -1.0013
 4355SOL     OW13810   6.009   5.276   2.753 -0.2547  0.6662  0.3942
 4355SOL    HW113811   6.018   5.208   2.686  2.7494  1.5093 -0.1847
 4355SOL    HW213812   5.987   5.229   2.833 -1.9991 -0.5405 -0.7087
 4356SOL     OW13813   4.470   2.752   2.414 -0.2720 -0.4198  0.2339
 4356SOL    HW113814   4.539   2.790   2.360 -1.3100 -1.2611 -1.8543
 4356SOL    HW213815   4.407   2.823   2.426 -0.1466 -0.2894  0.1164
 4357SOL     OW13816   2.500   6.296   4.793 -0.2491  0.6932 -0.1172
 4357SOL    HW113817   2.584   6.252   4.779 -0.9612 -1.2778  1.2733
 4357SOL    HW213818   2.520   6.368   4.853  1.0410  2.7982 -2.8501
 4358SOL     OW13819   3.133   5.234   0.562 -0.6090 -0.1955 -1.0201
 4358SOL    HW113820   3.201   5.298   0.581 -0.8729 -0.1510 -0.1979
 4358SOL    HW213821   3.053   5.273   0.596 -0.7920 -0.9081 -0.6118
 4359SOL     OW13822   1.825   3.886   2.683 -0.4186  0.3087  0.0820
 4359SOL    HW113823   1.881   3.907   2.758  0.4549 -1.1064 -0.1346
 4359SOL    HW213824   1.736   3.900   2.715 -0.0719 -0.3955  1.4521
 4360SOL     OW13825   1.203   4.570   5.867  0.0166 -0.3429 -0.4389
 4360SOL    HW113826   1.207   4.477   5.887 -1.1346 -0.3459 -0.1704
 4360SOL    HW213827   1.169   4.610   5.947 -2.2353 -0.0446 -1.4785
 4361SOL     OW13828   1.124   3.239   0.440 -0.5130  0.3202  0.5554
 4361SOL    HW113829   1.180   3.313   0.416  0.7826 -0.8341 -0.0898
 4361SOL    HW213830   1.183   3.164   0.441 -2.3920 -1.3195 -2.1519
 4362SOL     OW13831   5.477   1.648   1.947 -0.3519  0.2263 -0.3945
 4362SOL    HW113832   5.383   1.663   1.956 -0.6423 -0.9133 -1.2166
 4362SOL    HW213833   5.484   1.555   1.923  1.0249  0.1234  0.3228
 4363SOL     OW13834   2.441   3.138   4.501 -0.4629  0.1995 -0.4002
 4363SOL    HW113835   2.450   3.233   4.497 -1.7322  0.2811 -2.5257
 4363SOL    HW213836   2.531   3.105   4.491  0.0870  1.1211  1.0488
 4364SOL     OW13837   1.367   4.606   0.822 -0.4635  0.2563 -0.5550
 4364SOL    HW113838   1.281   4.619   0.863  0.0580 -0.3764  0.7737
 4364SOL    HW213839   1.430   4.638   0.886  0.3171  0.4794 -1.4134
 4365SOL     OW13840   4.751   5.033   1.755 -0.1249  0.1965  0.4549
 4365SOL    HW113841   4.679   5.096   1.743 -2.1847 -2.3388 -1.8032
 4365SOL    HW213842   4.718   4.972   1.821  0.3317 -0.4811  0.0646
 4366SOL     OW13843   1.624   3.275   5.530 -0.1735 -0.0672 -0.4583
 4366SOL    HW113844   1.703   3.240   5.488  0.3361  0.4114  0.1025
 4366SOL    HW213845   1.587   3.335   5.465 -1.5211 -2.2009 -1.7922
 4367SOL     OW13846   4.565   4.003   5.682 -0.3384  0.6395  0.3944
 4367SOL    HW113847   4.566   3.910   5.702 -0.5892  0.8586  1.5174
 4367SOL    HW213848   4.486   4.036   5.724 -0.7512  1.2056 -0.7783
 4368SOL     OW13849   4.684   4.520   6.299  0.3309  0.2170  0.3047
 4368SOL    HW113850   4.689   4.609   6.334 -0.3442  0.2297  0.3804
 4368SOL    HW213851   4.614   4.523   6.235  0.0070 -0.3670  0.6252
 4369SOL     OW13852   0.459   4.197   0.892  0.3953 -0.3494  0.1220
 4369SOL    HW113853   0.473   4.113   0.935 -0.3887  0.0802  1.2636
 4369SOL    HW213854   0.473   4.262   0.961 -0.2324  0.3870 -0.4266
 4370SOL     OW13855   0.756   1.904   0.864  0.3067 -0.3951  0.3047
 4370SOL    HW113856   0.726   1.925   0.776 -1.6820 -0.2210  0.9678
 4370SOL    HW213857   0.732   1.980   0.916  0.2659 -1.0299  1.2419
 4371SOL     OW13858   3.890   4.140   1.050 -0.5529  0.4036 -0.5028
 4371SOL    HW113859   3.972   4.168   1.089 -1.2136  0.1997  1.1055
 4371SOL    HW213860   3.830   4.214   1.066 -1.4136 -0.5446  0.8517
 4372SOL     OW13861   0.383   5.079   3.761  0.4438 -0.2677  0.2242
 4372SOL    HW113862   0.328   5.088   3.838 -0.6548 -0.6910 -0.4878
 4372SOL    HW213863   0.390   5.167   3.725 -0.9039 -0.4128 -0.4314
 4373SOL     OW13864   4.171   2.535   6.038 -0.4963  0.1497  0.0860
 4373SOL    HW113865   4.264   2.513   6.035 -0.2234  1.2042  0.4442
 4373SOL    HW213866   4.131   2.477   5.974 -0.1700 -2.9377  2.4315
 4374SOL     OW13867   4.276   1.438   0.462  1.0850  0.0047  0.1747
 4374SOL    HW113868   4.327   1.512   0.494 -0.1908  1.5139 -1.0811
 4374SOL    HW213869   4.193   1.444   0.509  1.7211 -2.0532  1.7426
 4375SOL     OW13870   5.176   6.024   2.813 -0.5859  0.1370  0.0222
 4375SOL    HW113871   5.119   6.058   2.882  1.1525  0.3633  1.3897
 4375SOL    HW213872   5.257   6.074   2.821  0.3012 -1.0693 -1.0231
 4376SOL     OW13873   2.785   2.503   2.174 -0.0866 -0.0685 -0.5288
 4376SOL    HW113874   2.860   2.461   2.215  1.5789  2.7554 -0.4990
 4376SOL    HW213875   2.815   2.525   2.086  0.2498  3.5680  0.3429
 4377SOL     OW13876   5.173   3.804   1.478  0.0082 -0.3668 -0.5727
 4377SOL    HW113877   5.159   3.753   1.557 -1.7909 -1.1206 -1.3238
 4377SOL    HW213878   5.140   3.892   1.500  0.6186 -0.2495 -0.1190
 4378SOL     OW13879   6.122   3.360   3.973  0.0579  0.0270  0.3216
 4378SOL    HW113880   6.062   3.434   3.966 -0.8410 -0.7250 -0.0887
 4378SOL    HW213881   6.105   3.307   3.896  0.3593 -0.8529  0.8403
 4379SOL     OW13882   6.253   0.467   0.359  0.3789 -0.5628 -0.0360
 4379SOL    HW113883   6.206   0.394   0.318 -1.6129  0.1659  0.7947
 4379SOL    HW213884   6.277   0.434   0.446  0.2492 -0.5223  0.0159
 4380SOL     OW13885   3.342   3.007   4.260 -0.2831 -0.3861  0.1525
 4380SOL    HW113886   3.416   2.947   4.259 -1.3664 -1.8257  1.5275
 4380SOL    HW213887   3.338   3.041   4.171  1.8733 -0.4110 -0.0187
 4381SOL     OW13888   2.589   0.235   4.622  0.6713  0.2538  0.2713
 4381SOL    HW113889   2.544   0.222   4.538  1.5216  1.8886 -0.4799
 4381SOL    HW213890   2.573   0.153   4.670  0.0180 -0.6594 -1.3983
 4382SOL     OW13891   1.992   2.251   0.989 -0.2136  0.4102 -0.2690
 4382SOL    HW113892   2.061   2.315   1.005  0.5276 -0.2905 -0.5883
 4382SOL    HW213893   1.922   2.302   0.947 -0.9790  1.6586  2.2963
 4383SOL     OW13894   5.737   5.320   0.894  0.0112 -0.0707 -0.4118
 4383SOL    HW113895   5.753   5.325   0.800 -0.2167 -0.7787 -0.4940
 4383SOL    HW213896   5.808   5.266   0.928  0.0315  0.0923 -0.1907
 4384SOL     OW13897   5.530   1.586   1.477  0.2314  0.2153 -0.1771
 4384SOL    HW113898   5.608   1.639   1.494  1.2769 -1.5968  0.9780
 4384SOL    HW213899   5.459   1.650   1.468  1.6122  1.8436  0.0616
 4385SOL     OW13900   4.643   1.579   6.160 -0.7116  0.1963 -0.3400
 4385SOL    HW113901   4.733   1.612   6.161 -0.4532 -0.4911  0.5215
 4385SOL    HW213902   4.592   1.647   6.204 -0.6265  0.5951 -0.8429
 4386SOL     OW13903   3.031   4.245   3.343 -0.0327  0.0255 -0.0049
 4386SOL    HW113904   3.062   4.234   3.253 -0.6735 -0.6184 -0.1646
 4386SOL    HW213905   3.040   4.158   3.382 -0.4685  0.1171  0.3087
 4387SOL     OW13906   4.330   6.203   2.705  0.4943  0.0610  0.3900
 4387SOL    HW113907   4.318   6.223   2.612 -2.3829  1.1359  0.8989
 4387SOL    HW213908   4.272   6.129   2.721  1.1155 -0.2391  1.2868
 4388SOL     OW13909   0.665   3.330   6.300  0.4534  0.0982 -0.5408
 4388SOL    HW113910   0.649   3.361   6.389  0.3225 -1.8824  0.1750
 4388SOL    HW213911   0.596   3.264   6.285  1.6822 -1.0607 -1.3268
 4389SOL     OW13912   3.614   4.315   4.416  0.0105 -0.3477 -0.3021
 4389SOL    HW113913   3.558   4.345   4.344  1.6721 -0.9985 -1.9618
 4389SOL    HW213914   3.687   4.271   4.372  1.4614 -0.1525  1.7784
 4390SOL     OW13915   4.298   0.640   3.638  0.1319  0.3115 -0.2162
 4390SOL    HW113916   4.307   0.545   3.650 -0.9452  0.0548 -1.1972
 4390SOL    HW213917   4.203   0.654   3.634  0.2746  1.4680  0.1396
 4391SOL     OW13918   1.804   0.513   0.347 -0.3360  0.1146 -0.0633
 4391SOL    HW113919   1.758   0.465   0.279  0.5102 -0.3057 -0.3509
 4391SOL    HW213920   1.890   0.472   0.352  0.6301  1.9370 -0.7199
 4392SOL     OW13921   1.691   3.124   2.683  0.0026  0.7031  0.1436
 4392SOL    HW113922   1.728   3.196   2.734 -0.7847  1.5890 -0.5060
 4392SOL    HW213923   1.612   3.099   2.730 -1.4141  2.3478 -1.2029
 4393SOL     OW13924   0.943   0.690   6.011  0.7267 -0.3140  0.2928
 4393SOL    HW113925   0.889   0.630   5.959 -0.7415 -0.1310  1.5485
 4393SOL    HW213926   1.017   0.637   6.039  0.0442 -1.2370  0.4145
 4394SOL     OW13927   3.388   1.254   5.214 -0.1082 -0.2062 -0.1596
 4394SOL    HW113928   3.307   1.280   5.169  0.6778  1.4771 -0.6800
 4394SOL    HW213929   3.409   1.168   5.178 -0.8684  0.0013 -1.1458
 4395SOL     OW13930   1.707   2.110   0.759 -0.1595 -0.1720  0.0114
 4395SOL    HW113931   1.618   2.140   0.741 -1.0129 -2.1070  0.6953
 4395SOL    HW213932   1.748   2.182   0.806 -1.3300  0.7841 -0.3746
 4396SOL     OW13933   1.228   1.016   2.110 -0.3163 -0.1505  0.0129
 4396SOL    HW113934   1.256   1.088   2.167  1.0176  0.8454 -1.7964
 4396SOL    HW213935   1.292   0.946   2.126  0.0540  0.1251 -0.2656
 4397SOL     OW13936   3.898   5.073   4.692 -0.3338  0.5327  0.2350
 4397SOL    HW113937   3.817   5.111   4.726 -0.4323  0.7175 -0.1890
 4397SOL    HW213938   3.940   5.146   4.646 -0.4076  0.1873 -0.3888
 4398SOL     OW13939   3.810   2.537   6.035  0.0603  0.4754 -0.4491
 4398SOL    HW113940   3.742   2.482   6.074  1.2283 -0.9506 -0.2977
 4398SOL    HW213941   3.818   2.505   5.945 -1.3241  2.4869 -1.3462
 4399SOL     OW13942   3.728   0.498   3.670 -0.8765 -0.6248  0.6341
 4399SOL    HW113943   3.722   0.507   3.574  1.3628 -2.1914  0.2878
 4399SOL    HW213944   3.641   0.523   3.701 -1.8182 -0.5234 -1.8439
 4400SOL     OW13945   2.164   5.567   5.894  0.0406 -0.4794  0.6527
 4400SOL    HW113946   2.245   5.521   5.914 -0.5307 -1.9124 -0.1762
 4400SOL    HW213947   2.174   5.653   5.935  1.8587 -0.7146  0.7783
 4401SOL     OW13948   5.551   1.224   0.865 -0.0388  0.5047  0.0759
 4401SOL    HW113949   5.594   1.139   0.871  0.6956  0.9054  0.6812
 4401SOL    HW213950   5.513   1.225   0.777 -0.4615 -0.6275  0.2275
 4402SOL     OW13951   2.474   2.265   5.360 -0.4982  0.4419  0.1263
 4402SOL    HW113952   2.462   2.359   5.370 -0.2892  0.4161  0.6471
 4402SOL    HW213953   2.567   2.254   5.340 -0.8888  0.4829 -1.8503
 4403SOL     OW13954   4.455   3.626   1.141 -0.3356  0.3068  0.7272
 4403SOL    HW113955   4.528   3.665   1.189 -0.6409 -0.5348  1.9091
 4403SOL    HW213956   4.420   3.560   1.200 -1.9912  0.6174  0.1467
 4404SOL     OW13957   1.684   4.741   0.821 -0.5174 -0.1581  0.4053
 4404SOL    HW113958   1.726   4.685   0.756 -1.8700  0.8688 -1.4315
 4404SOL    HW213959   1.757   4.786   0.864  0.5320 -2.4280  1.1753
 4405SOL     OW13960   2.068   3.794   1.487  0.2943  0.1490  0.4537
 4405SOL    HW113961   2.144   3.764   1.537  0.8448  0.1748 -0.3499
 4405SOL    HW213962   2.092   3.882   1.457 -0.2445  0.3467  0.5762
 4406SOL     OW13963   1.531   5.505   0.272  0.1060  0.6352  0.2497
 4406SOL    HW113964   1.550   5.596   0.251  0.8668  0.2514 -0.7910
 4406SOL    HW213965   1.576   5.454   0.205  1.0621 -0.5935  1.7387
 4407SOL     OW13966   2.714   5.904   3.634 -0.1309  0.3967  0.6375
 4407SOL    HW113967   2.758   5.977   3.678 -0.9507  0.9169  0.6221
 4407SOL    HW213968   2.779   5.871   3.572  0.2862  1.0545  0.7147
 4408SOL     OW13969   4.524   4.775   1.650 -0.0459  0.3151 -0.5221
 4408SOL    HW113970   4.444   4.729   1.624 -0.3432  0.5367 -0.0064
 4408SOL    HW213971   4.496   4.836   1.717  0.6188  0.1663 -0.1018
 4409SOL     OW13972   0.761   1.432   3.859  0.0411 -0.0866 -0.2092
 4409SOL    HW113973   0.847   1.451   3.894 -0.0724  0.8548 -0.4120
 4409SOL    HW213974   0.765   1.340   3.832  0.4540 -0.5264  1.2821
 4410SOL     OW13975   0.832   3.536   2.248 -0.2476  0.5569 -0.2855
 4410SOL    HW113976   0.829   3.612   2.307  1.3382 -0.3776  1.0951
 4410SOL    HW213977   0.791   3.465   2.299 -0.7893  0.2265 -1.1612
 4411SOL     OW13978   1.678   4.445   0.818 -0.2195 -0.0142  0.0770
 4411SOL    HW113979   1.712   4.383   0.753 -0.4865 -1.2452  1.0712
 4411SOL    HW213980   1.631   4.510   0.767 -0.0184 -0.6911 -1.0033
 4412SOL     OW13981   0.258   0.957   0.688  0.2140 -0.4557 -0.5599
 4412SOL    HW113982   0.336   0.906   0.710 -0.0795  0.4013  3.0999
 4412SOL    HW213983   0.243   1.011   0.765 -2.5900  1.2525 -2.1599
 4413SOL     OW13984   1.226   2.237   5.085 -0.3717 -0.4003 -0.1818
 4413SOL    HW113985   1.266   2.163   5.039  0.6138 -0.0605  0.1145
 4413SOL    HW213986   1.171   2.196   5.152  1.5082 -0.9018  1.1332
 4414SOL     OW13987   0.846   5.683   4.104 -0.7727  0.0030  0.5281
 4414SOL    HW113988   0.815   5.603   4.147  0.9141 -1.7074 -1.2319
 4414SOL    HW213989   0.811   5.676   4.015 -0.3843  1.1226  0.2811
 4415SOL     OW13990   3.766   2.162   0.482 -0.2388 -0.1467 -0.3742
 4415SOL    HW113991   3.841   2.202   0.525 -1.3578  1.3739  0.2578
 4415SOL    HW213992   3.754   2.213   0.402 -1.1927  0.3262  0.0444
 4416SOL     OW13993   3.682   6.137   3.099  0.2310 -0.6870 -0.4096
 4416SOL    HW113994   3.755   6.197   3.080  0.4229  0.0613  2.1793
 4416SOL    HW213995   3.605   6.193   3.102  0.2718 -0.6506  1.1113
 4417SOL     OW13996   3.285   2.054   6.302 -0.5109  0.5556  0.3951
 4417SOL    HW113997   3.375   2.040   6.274  0.1745 -0.4124  2.8557
 4417SOL    HW213998   3.233   2.036   6.224  1.2948 -1.0111 -0.5257
 4418SOL     OW13999   5.481   3.569   1.613  0.0287  0.6090  0.2625
 4418SOL    HW114000   5.482   3.558   1.518  1.1454  0.7835  0.2388
 4418SOL    HW214001   5.425   3.499   1.645  1.0575 -0.5542 -0.4083
 4419SOL     OW14002   2.777   3.835   6.001  0.2598  0.4325 -0.3598
 4419SOL    HW114003   2.772   3.861   6.093 -0.9024 -0.5106 -0.1304
 4419SOL    HW214004   2.787   3.917   5.953  1.5212  0.8947  0.6296
 4420SOL     OW14005   1.941   1.144   3.608  0.4035 -0.2093  0.2634
 4420SOL    HW114006   1.855   1.105   3.624 -0.4865  1.2474 -0.7464
 4420SOL    HW214007   1.926   1.238   3.613  1.2854  0.2013 -2.8367
 4421SOL     OW14008   5.149   5.299   1.287 -0.4569  0.0284 -0.2375
 4421SOL    HW114009   5.205   5.333   1.217  0.6422  1.1722  1.1166
 4421SOL    HW214010   5.153   5.367   1.355 -0.5914 -1.5172  1.3837
 4422SOL     OW14011   5.576   2.562   3.707  0.4398  0.2649 -0.3348
 4422SOL    HW114012   5.568   2.656   3.726 -1.9349  0.2964 -1.1449
 4422SOL    HW214013   5.545   2.519   3.786  0.0065  0.2155 -0.5263
 4423SOL     OW14014   1.063   4.603   5.167 -0.0279  0.4388 -0.2800
 4423SOL    HW114015   1.032   4.626   5.254  0.1996 -1.1026  0.2267
 4423SOL    HW214016   1.059   4.508   5.163  1.8086  0.3368 -1.2441
 4424SOL     OW14017   0.842   4.558   2.985  0.4008  0.2719 -0.1240
 4424SOL    HW114018   0.923   4.517   3.015  0.6143  1.4894  1.0811
 4424SOL    HW214019   0.774   4.492   3.000  0.9604 -0.2281  0.2666
 4425SOL     OW14020   3.116   5.493   2.989  0.2801 -0.0993  0.1000
 4425SOL    HW114021   3.134   5.505   2.896 -0.6256  3.8316  0.2543
 4425SOL    HW214022   3.023   5.471   2.993  0.2401  0.0556  0.0501
 4426SOL     OW14023   0.560   5.620   4.644 -0.1174  0.3044  0.8193
 4426SOL    HW114024   0.581   5.527   4.650 -1.8436 -0.1025  1.3121
 4426SOL    HW214025   0.565   5.652   4.734  0.6867  0.7530  0.6226
 4427SOL     OW14026   2.139   3.597   1.332 -0.4359  0.6431 -0.4401
 4427SOL    HW114027   2.218   3.639   1.298 -1.1390  1.4471 -1.1042
 4427SOL    HW214028   2.109   3.656   1.401 -0.9606  0.8039 -0.8063
 4428SOL     OW14029   5.931   4.540   2.678 -0.0574  0.8291  0.8096
 4428SOL    HW114030   5.865   4.585   2.625 -1.1475  0.3075  1.6798
 4428SOL    HW214031   5.895   4.539   2.766  0.9104  0.1255  1.2212
 4429SOL     OW14032   2.083   5.956   6.219 -0.4676 -1.1786  0.0539
 4429SOL    HW114033   2.138   5.947   6.141 -0.9824 -1.8982 -0.2388
 4429SOL    HW214034   2.001   5.993   6.186 -0.6205 -1.3097  0.2878
 4430SOL     OW14035   3.365   2.124   1.147  0.0055  0.2617  0.3315
 4430SOL    HW114036   3.369   2.195   1.082  1.3892  0.8919  1.0517
 4430SOL    HW214037   3.296   2.151   1.208  1.7892  2.0653  1.7101
 4431SOL     OW14038   6.180   5.933   0.041 -0.5042  0.0901 -0.3963
 4431SOL    HW114039   6.177   5.942  -0.054  0.2023 -1.0499 -0.5387
 4431SOL    HW214040   6.178   6.023   0.073 -0.4370  0.5019 -1.5025
 4432SOL     OW14041   0.073   0.940   5.682  0.3900 -0.1534 -0.1674
 4432SOL    HW114042   0.151   0.995   5.673 -0.4808  0.8189 -2.5106
 4432SOL    HW214043   0.090   0.864   5.627 -0.2833  0.0407 -0.6540
 4433SOL     OW14044   1.841   2.528   3.064 -0.4958 -0.2552 -0.7139
 4433SOL    HW114045   1.832   2.624   3.065 -0.2648 -0.2061  1.2253
 4433SOL    HW214046   1.759   2.496   3.101  0.5417 -0.6043  1.4778
 4434SOL     OW14047   4.682   2.435   5.126 -0.3162  0.5162 -0.0467
 4434SOL    HW114048   4.629   2.449   5.205 -0.8157  1.3505 -0.5192
 4434SOL    HW214049   4.772   2.431   5.158 -0.4164  1.8955  0.4579
 4435SOL     OW14050   6.236   3.177   1.012 -0.0103  0.1211  0.2049
 4435SOL    HW114051   6.315   3.129   0.989 -0.6611 -0.8754 -0.0153
 4435SOL    HW214052   6.166   3.111   1.012 -0.2807  0.1492  4.0233
 4436SOL     OW14053   3.769   5.183   0.185  0.4498 -0.6970  0.4822
 4436SOL    HW114054   3.752   5.272   0.217  0.7006 -0.4436 -0.0800
 4436SOL    HW214055   3.712   5.127   0.238  0.3965 -0.2157  0.9355
 4437SOL     OW14056   1.036   2.923   2.070 -0.1694  0.2538 -0.1773
 4437SOL    HW114057   0.959   2.975   2.092 -0.3461 -0.4033  0.8255
 4437SOL    HW214058   1.107   2.986   2.064 -0.9190  0.9874 -1.9901
 4438SOL     OW14059   4.627   3.375   3.962  0.0644  0.0955 -0.4134
 4438SOL    HW114060   4.605   3.467   3.969  0.7632  0.2713 -0.4922
 4438SOL    HW214061   4.568   3.331   4.024 -1.2601  0.4173 -1.4078
 4439SOL     OW14062   2.476   4.379   2.176 -0.2969  0.4043 -0.2181
 4439SOL    HW114063   2.550   4.346   2.124 -0.1131  0.0488  0.2558
 4439SOL    HW214064   2.470   4.472   2.153  0.8576  0.6525  0.3717
 4440SOL     OW14065   5.529   4.114   2.088  0.3959 -0.0824 -0.0990
 4440SOL    HW114066   5.487   4.032   2.114  0.0656 -0.4438 -1.6687
 4440SOL    HW214067   5.622   4.097   2.098  0.3028 -0.3978  0.2748
 4441SOL     OW14068   1.120   1.903   4.153  0.0524  0.3547  0.2304
 4441SOL    HW114069   1.026   1.894   4.169  0.4279 -2.0172  1.4374
 4441SOL    HW214070   1.154   1.945   4.232  0.1872  0.0558  0.3307
 4442SOL     OW14071   2.607   5.494   1.723  0.0292  0.4233  0.1233
 4442SOL    HW114072   2.531   5.437   1.716 -1.6425  2.4904  0.1551
 4442SOL    HW214073   2.634   5.487   1.814  0.6216 -1.1764 -0.1514
 4443SOL     OW14074   5.408   0.060   5.684  0.1014  0.0963  0.8126
 4443SOL    HW114075   5.413  -0.004   5.613  0.8159 -0.1951  1.1160
 4443SOL    HW214076   5.339   0.121   5.657  0.7668  0.3370 -0.4126
 4444SOL     OW14077   0.435   4.372   3.193 -0.1969 -0.1729 -0.2469
 4444SOL    HW114078   0.412   4.279   3.188 -0.4862 -0.0952 -0.4133
 4444SOL    HW214079   0.351   4.418   3.184 -0.1668  0.0849  0.6739
 4445SOL     OW14080   0.075   0.248   4.448  0.2823  0.2873 -0.4758
 4445SOL    HW114081  -0.010   0.223   4.485  0.3034  0.0356 -0.5909
 4445SOL    HW214082   0.083   0.341   4.467  1.1664 -0.1974  1.8824
 4446SOL     OW14083   1.985   0.628   1.681  0.1065 -0.0157  0.6514
 4446SOL    HW114084   2.074   0.642   1.715  0.4453 -1.4777  0.4332
 4446SOL    HW214085   1.998   0.616   1.587 -0.3298 -0.1946  0.6147
 4447SOL     OW14086   3.365   5.084   4.030 -0.2368 -0.4971 -0.3427
 4447SOL    HW114087   3.274   5.077   4.057 -0.1342  0.2167  0.2295
 4447SOL    HW214088   3.412   5.103   4.112  0.2896  0.1719 -0.7952
 4448SOL     OW14089   0.491   5.734   5.262  0.3922  0.2349  0.0895
 4448SOL    HW114090   0.453   5.798   5.323 -0.6418 -0.4935  0.2495
 4448SOL    HW214091   0.585   5.742   5.273  0.2415  0.9490  0.9250
 4449SOL     OW14092   4.057   6.115   0.919 -0.5142 -0.3381 -0.4917
 4449SOL    HW114093   4.069   6.152   0.832  0.3984  0.0793 -0.1937
 4449SOL    HW214094   4.129   6.150   0.971 -1.6731  0.3270  0.7304
 4450SOL     OW14095   3.527   3.955   0.726  0.1214 -0.2205  0.1413
 4450SOL    HW114096   3.513   4.045   0.698 -0.1419 -0.1225  0.5922
 4450SOL    HW214097   3.565   3.963   0.814  0.2815 -0.5436  0.1022
 4451SOL     OW14098   3.884   0.876   5.439 -0.1381 -0.0943  0.6282
 4451SOL    HW114099   3.806   0.930   5.452  0.1680 -0.0994  2.6905
 4451SOL    HW214100   3.947   0.935   5.396 -0.7391  0.3599  0.3600
 4452SOL     OW14101   4.973   4.199   3.241 -0.1610  0.0894 -0.2465
 4452SOL    HW114102   4.922   4.123   3.213  2.2058 -1.2990 -1.0536
 4452SOL    HW214103   4.961   4.203   3.336 -1.0178 -0.7285 -0.3060
 4453SOL     OW14104   4.995   4.755   0.458  0.3187  0.6645 -0.6319
 4453SOL    HW114105   4.909   4.792   0.478 -0.2393 -0.3169 -1.1286
 4453SOL    HW214106   4.978   4.663   0.439  1.7714 -0.1638  1.5545
 4454SOL     OW14107   0.622   1.228   5.812  0.0618  0.6594 -0.4041
 4454SOL    HW114108   0.528   1.221   5.829  0.0466 -0.8469 -1.0217
 4454SOL    HW214109   0.644   1.317   5.841 -0.5838 -0.4142  4.3673
 4455SOL     OW14110   3.426   1.135   2.007 -0.2365 -0.2585  0.5870
 4455SOL    HW114111   3.343   1.179   2.025  0.2756  0.0941  2.2968
 4455SOL    HW214112   3.401   1.044   1.987 -1.0832  0.0405  0.2485
 4456SOL     OW14113   4.877   4.838   4.526  0.6156 -0.5867 -0.7687
 4456SOL    HW114114   4.864   4.908   4.461 -1.0840 -0.9492 -0.8724
 4456SOL    HW214115   4.812   4.856   4.594  0.1887 -2.0155 -0.7695
 4457SOL     OW14116   0.679   1.462   0.561  0.5941 -0.0732  0.0072
 4457SOL    HW114117   0.616   1.398   0.528  1.4922 -1.3954  0.7516
 4457SOL    HW214118   0.748   1.409   0.600  0.5632  1.3730  2.1831
 4458SOL     OW14119   5.796   0.220   1.524 -0.0435 -0.2922  0.1214
 4458SOL    HW114120   5.846   0.177   1.454 -1.9798 -1.3169 -0.7209
 4458SOL    HW214121   5.745   0.287   1.479 -1.1108 -0.7853  0.5722
 4459SOL     OW14122   2.356   0.930   6.205  0.5209  0.3037  0.0559
 4459SOL    HW114123   2.311   0.903   6.285  0.7121 -1.4203 -0.3840
 4459SOL    HW214124   2.417   0.858   6.186  0.8186  0.8998 -1.3781
 4460SOL     OW14125   4.673   2.972   1.986 -0.2298 -0.6196  0.2408
 4460SOL    HW114126   4.608   3.005   1.924  0.6263 -0.3908 -0.5492
 4460SOL    HW214127   4.740   2.932   1.932  1.6349  1.4905  0.8149
 4461SOL     OW14128   3.971   5.053   0.079  0.6214  0.4461  0.1377
 4461SOL    HW114129   3.894   5.105   0.102  1.8138  2.0345  0.7513
 4461SOL    HW214130   3.997   5.012   0.162  0.0615 -0.6640 -0.2127
 4462SOL     OW14131   3.619   5.150   3.895  0.4625  0.5422 -0.3308
 4462SOL    HW114132   3.562   5.117   3.826  1.2494 -0.9649 -0.2943
 4462SOL    HW214133   3.576   5.230   3.926 -1.7126 -0.6178 -0.1870
 4463SOL     OW14134   3.471   6.089   1.161  0.0152 -0.1135  0.3035
 4463SOL    HW114135   3.522   6.155   1.115 -1.1863  1.3494  0.9844
 4463SOL    HW214136   3.527   6.012   1.162  2.1053  1.3327  0.8078
 4464SOL     OW14137   0.260   1.046   3.566  0.4668 -0.1006 -0.0966
 4464SOL    HW114138   0.169   1.073   3.578  0.1433 -0.6331 -1.2163
 4464SOL    HW214139   0.296   1.042   3.655 -1.2479 -2.0575  0.5927
 4465SOL     OW14140   5.777   5.080   1.127 -0.4272 -0.0018  0.9815
 4465SOL    HW114141   5.771   5.165   1.170 -0.5889  0.3852  0.2076
 4465SOL    HW214142   5.796   5.018   1.198  1.3162  0.8921  1.3629
 4466SOL     OW14143   0.602   1.053   1.450 -0.3347  0.1904 -0.3743
 4466SOL    HW114144   0.643   1.140   1.455  0.3837  0.0184 -2.2796
 4466SOL    HW214145   0.533   1.055   1.516  0.1996  1.9173  0.1855
 4467SOL     OW14146   3.381   4.132   2.514  0.0861 -0.4248  0.2485
 4467SOL    HW114147   3.385   4.217   2.559 -1.5624 -1.3706  2.3572
 4467SOL    HW214148   3.287   4.117   2.501  0.4151 -1.4717 -1.0385
 4468SOL     OW14149   1.218   1.330   0.371  0.3077  0.3121  0.3294
 4468SOL    HW114150   1.213   1.372   0.456  0.6092  1.4343 -0.1916
 4468SOL    HW214151   1.141   1.362   0.323 -1.5888 -2.6082  1.1301
 4469SOL     OW14152   3.691   1.307   0.134 -0.5476  0.2771  0.1048
 4469SOL    HW114153   3.664   1.352   0.214 -1.5265  0.2705 -0.2046
 4469SOL    HW214154   3.609   1.276   0.095  0.0654 -1.4168  0.0824
 4470SOL     OW14155   0.988   3.072   6.269 -0.0304  0.0489 -0.0618
 4470SOL    HW114156   1.008   3.164   6.285  2.0692 -0.4427  0.3949
 4470SOL    HW214157   0.932   3.074   6.191 -1.9260  1.8085  1.2338
 4471SOL     OW14158   5.279   1.905   3.255 -0.3474 -0.3698 -0.0782
 4471SOL    HW114159   5.350   1.960   3.221  0.2136 -0.3788  1.0398
 4471SOL    HW214160   5.324   1.838   3.307 -1.0616 -1.5111 -0.8655
 4472SOL     OW14161   1.392   3.605   2.996 -0.0379 -0.6022  0.4049
 4472SOL    HW114162   1.371   3.659   3.072  0.5380  1.5933 -0.9215
 4472SOL    HW214163   1.459   3.544   3.028 -0.8097 -0.6802  1.9860
 4473SOL     OW14164   4.455   3.232   4.660  0.0930  0.0050  0.2349
 4473SOL    HW114165   4.536   3.271   4.691 -0.2788  1.5667 -0.6249
 4473SOL    HW214166   4.435   3.164   4.724  0.8507  1.1373  1.7494
 4474SOL     OW14167   3.959   5.383   3.227  0.8295 -0.3043 -0.1410
 4474SOL    HW114168   4.024   5.391   3.157  0.0272  0.9724 -0.7904
 4474SOL    HW214169   3.963   5.466   3.274 -0.5522 -0.0526 -0.4139
 4475SOL     OW14170   5.150   2.417   4.609  0.4033  0.1464  0.1163
 4475SOL    HW114171   5.220   2.364   4.647 -0.3382 -2.1709 -1.4887
 4475SOL    HW214172   5.072   2.394   4.661  0.1017 -0.2856 -0.5127
 4476SOL     OW14173   4.935   0.045   3.905  0.0139  0.0350  0.3165
 4476SOL    HW114174   4.978   0.108   3.963  1.7212 -0.3897 -0.4314
 4476SOL    HW214175   4.948   0.081   3.817 -1.2064 -0.1094  0.0608
 4477SOL     OW14176   0.690   4.615   2.604 -0.4605  0.1783  0.0011
 4477SOL    HW114177   0.785   4.608   2.592 -0.5231 -1.3145  0.2002
 4477SOL    HW214178   0.679   4.688   2.664  0.4464  1.4373 -1.2987
 4478SOL     OW14179   5.673   0.989   0.899 -0.0047 -0.7271 -0.0330
 4478SOL    HW114180   5.754   0.968   0.851 -0.2371 -1.0581 -0.2835
 4478SOL    HW214181   5.703   1.026   0.982  0.4482  2.0480 -1.3111
 4479SOL     OW14182   2.803   1.279   1.667 -0.8180  0.1541  0.1007
 4479SOL    HW114183   2.752   1.359   1.678  0.3867  1.0338 -0.4055
 4479SOL    HW214184   2.738   1.208   1.666 -1.7955  0.9593  2.0739
 4480SOL     OW14185   0.868   1.590   5.424  0.0802 -0.5155  0.0734
 4480SOL    HW114186   0.877   1.614   5.332 -0.7084 -1.1139 -0.1619
 4480SOL    HW214187   0.839   1.499   5.423  0.6156 -0.7124  0.9284
 4481SOL     OW14188   6.097   5.173   1.536 -0.0182  0.8465 -0.0005
 4481SOL    HW114189   6.022   5.113   1.537  0.1842  0.5977  0.3689
 4481SOL    HW214190   6.154   5.141   1.606 -0.3408  2.0237  0.8297
 4482SOL     OW14191   2.876   4.028   3.837 -0.5913 -0.7996  0.8619
 4482SOL    HW114192   2.909   3.987   3.916 -1.5558  0.2936  1.8726
 4482SOL    HW214193   2.814   4.094   3.868  1.4905  2.0970 -0.5440
 4483SOL     OW14194   3.652   1.972   3.995  0.6039 -0.3658  0.4633
 4483SOL    HW114195   3.688   1.932   4.074  1.1117 -2.1294 -0.6027
 4483SOL    HW214196   3.648   1.901   3.931  0.8697  1.1463 -1.3396
 4484SOL     OW14197   3.724   3.250   3.647 -0.2990 -0.0746 -0.0297
 4484SOL    HW114198   3.679   3.308   3.586  0.3907 -0.1034 -0.5723
 4484SOL    HW214199   3.715   3.163   3.610 -1.0465 -0.2900  0.6171
 4485SOL     OW14200   5.875   3.994   0.155 -0.0990 -0.2319 -0.1939
 4485SOL    HW114201   5.937   3.923   0.171 -0.2597 -0.8033 -1.9227
 4485SOL    HW214202   5.868   4.039   0.239 -0.9987 -3.0230  1.3323
 4486SOL     OW14203   0.938   4.962   5.383  0.3571 -0.0507 -0.2929
 4486SOL    HW114204   0.970   5.031   5.441  0.9072  0.1469 -0.8242
 4486SOL    HW214205   0.897   5.009   5.311  2.2583 -0.2152 -1.5401
 4487SOL     OW14206   5.238   3.269   3.647 -0.0222  0.1924  0.6304
 4487SOL    HW114207   5.188   3.305   3.573  0.0552  1.3542  1.1347
 4487SOL    HW214208   5.177   3.209   3.690 -0.3081  0.0604  0.0527
 4488SOL     OW14209   2.551   4.073   3.854 -0.5535  0.6133 -0.3686
 4488SOL    HW114210   2.570   4.136   3.924  0.5997  2.0407 -1.8758
 4488SOL    HW214211   2.469   4.104   3.816 -1.8928 -0.9431  1.1432
 4489SOL     OW14212   1.218   5.675   4.991  0.2394 -0.0779 -0.1752
 4489SOL    HW114213   1.298   5.624   4.991 -0.4081 -1.1278 -0.1710
 4489SOL    HW214214   1.227   5.735   4.917  1.4645  0.5604  0.4628
 4490SOL     OW14215   1.078   2.148   4.023 -0.0615 -0.2027  0.2443
 4490SOL    HW114216   1.091   2.067   4.072 -0.9081 -1.9728 -2.2633
 4490SOL    HW214217   1.141   2.144   3.951 -1.9691 -0.1153 -1.5533
 4491SOL     OW14218   6.102   5.466   3.642 -0.6162  0.0549  0.1481
 4491SOL    HW114219   6.195   5.468   3.664  0.1780 -3.4089 -2.0580
 4491SOL    HW214220   6.088   5.545   3.590  1.3655  0.1999 -0.2539
 4492SOL     OW14221   2.522   1.698   1.870 -0.0156  0.1746 -0.2052
 4492SOL    HW114222   2.588   1.763   1.847  0.2868  0.0886  0.3824
 4492SOL    HW214223   2.547   1.668   1.958 -0.8940  0.2178  0.0773
 4493SOL     OW14224   2.401   0.030   3.377 -0.1707  0.3745  0.4915
 4493SOL    HW114225   2.427  -0.053   3.338 -2.8376 -0.4610  0.3236
 4493SOL    HW214226   2.439   0.029   3.465  1.0594 -0.3072 -0.0270
 4494SOL     OW14227   4.755   4.892   0.537 -0.8922 -0.4455  0.1781
 4494SOL    HW114228   4.698   4.968   0.530 -0.7062 -0.3516 -0.3063
 4494SOL    HW214229   4.752   4.869   0.630 -0.8196  0.2494  0.3569
 4495SOL     OW14230   2.231   0.798   4.240 -0.0280 -0.1053  0.1114
 4495SOL    HW114231   2.214   0.762   4.328  1.5092  1.1436  0.9746
 4495SOL    HW214232   2.327   0.799   4.233 -0.1155  0.5424 -1.2842
 4496SOL     OW14233   0.153   4.545   1.314 -0.5946  0.5892 -1.3121
 4496SOL    HW114234   0.158   4.632   1.354 -0.3444 -0.1572  0.3167
 4496SOL    HW214235   0.187   4.558   1.225 -0.4796  2.1326 -1.0645
 4497SOL     OW14236   4.457   2.244   1.934 -0.1607 -0.3915 -0.1250
 4497SOL    HW114237   4.493   2.162   1.969 -0.8234 -0.3870  0.6001
 4497SOL    HW214238   4.433   2.294   2.012 -2.1256 -0.5749 -0.5654
 4498SOL     OW14239   2.366   5.431   3.203 -0.2680  0.3498 -0.1238
 4498SOL    HW114240   2.364   5.349   3.155 -0.1844 -0.3032  0.9659
 4498SOL    HW214241   2.421   5.414   3.280 -1.6895  0.8560  1.0751
 4499SOL     OW14242   3.275   0.029   3.724  0.0523  0.3277 -0.2751
 4499SOL    HW114243   3.233  -0.047   3.684  0.2901  0.2641 -0.4039
 4499SOL    HW214244   3.352   0.045   3.671  2.1354 -1.6666  1.8814
 4500SOL     OW14245   3.108   1.453   0.267  0.7906 -0.1220  0.6216
 4500SOL    HW114246   3.125   1.446   0.173  0.2963  3.4790  0.1096
 4500SOL    HW214247   3.183   1.411   0.308  1.2481 -1.3936 -1.3684
 4501SOL     OW14248   3.308   4.627   2.975 -0.0818 -0.7079 -0.3440
 4501SOL    HW114249   3.319   4.533   2.967 -1.5896 -0.8459 -1.2323
 4501SOL    HW214250   3.397   4.662   2.972  0.5327 -2.1192  0.5382
 4502SOL     OW14251   3.144   3.297   0.849  0.0903 -0.0470 -0.2671
 4502SOL    HW114252   3.116   3.296   0.758  0.7667 -1.4708 -0.4934
 4502SOL    HW214253   3.233   3.261   0.847 -0.9332 -2.9801  1.2195
 4503SOL     OW14254   2.907   2.728   0.872 -0.0543 -0.7556 -0.0567
 4503SOL    HW114255   2.895   2.768   0.958 -1.0752  0.5567 -0.7727
 4503SOL    HW214256   2.958   2.792   0.822  1.9408 -2.1992  0.0178
 4504SOL     OW14257   5.024   3.037   1.390  0.1465 -0.4371  0.2623
 4504SOL    HW114258   5.053   2.948   1.412  1.8896 -0.0410 -0.2763
 4504SOL    HW214259   5.054   3.091   1.462  1.4950  0.0974 -0.6584
 4505SOL     OW14260   2.462   1.629   0.210  0.0415  0.0962  0.4109
 4505SOL    HW114261   2.400   1.560   0.236 -1.6638  1.6335  0.5871
 4505SOL    HW214262   2.506   1.654   0.291  0.0549 -0.1788  0.4923
 4506SOL     OW14263   4.663   5.858   0.521  0.2406 -0.1598 -0.2826
 4506SOL    HW114264   4.693   5.794   0.456  0.9938 -0.1008  0.0086
 4506SOL    HW214265   4.694   5.942   0.488 -2.3843  0.3970 -1.7080
 4507SOL     OW14266   2.649   1.526   4.276  0.4788  0.0902 -0.1207
 4507SOL    HW114267   2.740   1.504   4.298  0.8735  1.9280  0.2355
 4507SOL    HW214268   2.639   1.617   4.303 -1.1399  0.2700 -1.1905
 4508SOL     OW14269   1.084   1.801   3.851  0.2715 -0.3583  0.1771
 4508SOL    HW114270   0.998   1.841   3.866  0.1372 -0.2514 -0.7557
 4508SOL    HW214271   1.076   1.759   3.765  1.2851  0.0549 -0.1477
 4509SOL     OW14272   0.273   6.061   4.291  0.3734 -0.3182 -0.0104
 4509SOL    HW114273   0.241   5.993   4.231 -0.0669 -1.0921  1.0596
 4509SOL    HW214274   0.288   6.014   4.374  0.6714  0.7753  0.5706
 4510SOL     OW14275   5.199   0.177   5.523 -0.0802 -0.6928 -0.2995
 4510SOL    HW114276   5.244   0.122   5.459 -2.5367 -1.6765 -1.3253
 4510SOL    HW214277   5.144   0.235   5.470 -0.8042 -0.2668  0.8849
 4511SOL     OW14278   5.292   0.792   0.548  0.5824 -0.0499 -0.0200
 4511SOL    HW114279   5.365   0.741   0.583 -0.1942 -1.7571 -0.7783
 4511SOL    HW214280   5.249   0.734   0.485 -0.3258  1.5729 -0.9879
 4512SOL     OW14281   4.348   2.613   5.177 -0.3760 -0.0195  0.6688
 4512SOL    HW114282   4.386   2.663   5.249 -0.9593 -1.1890  1.8434
 4512SOL    HW214283   4.422   2.594   5.119  0.0870  1.0255  0.8904
 4513SOL     OW14284   5.807   4.799   6.024  0.2021  0.3749  0.1265
 4513SOL    HW114285   5.823   4.801   6.119  1.1958  0.3779 -0.0302
 4513SOL    HW214286   5.893   4.787   5.985 -0.2309  0.0657 -0.7774
 4514SOL     OW14287   2.231   3.658   2.999 -0.5394 -0.1042  0.1836
 4514SOL    HW114288   2.177   3.608   2.938  1.5577 -0.5167 -1.4505
 4514SOL    HW214289   2.321   3.635   2.976  0.4277  2.0209  1.5018
 4515SOL     OW14290   5.304   0.002   0.827  0.0398  0.0767  0.1709
 4515SOL    HW114291   5.215  -0.004   0.861  0.2608 -0.2831  0.6996
 4515SOL    HW214292   5.342  -0.085   0.841  1.2551  0.8582  2.2122
 4516SOL     OW14293   2.895   1.169   0.452  0.1826  0.1853 -0.2144
 4516SOL    HW114294   2.925   1.091   0.404  0.2612  0.1605 -0.1252
 4516SOL    HW214295   2.935   1.161   0.538 -0.5435 -0.1397  0.0954
 4517SOL     OW14296   4.253   3.957   2.987  0.0660 -0.3967  0.5087
 4517SOL    HW114297   4.300   4.005   3.054 -0.6160 -1.2133  1.6100
 4517SOL    HW214298   4.173   4.008   2.973  0.7467  0.4242 -0.6004
 4518SOL     OW14299   2.779   6.017   0.191  0.2906  0.3359 -0.2342
 4518SOL    HW114300   2.835   5.943   0.214 -0.4884 -0.2563 -0.1951
 4518SOL    HW214301   2.812   6.047   0.106  0.6354 -0.0421 -0.2344
 4519SOL     OW14302   5.477   1.277   3.680 -0.3478  0.1514  0.4040
 4519SOL    HW114303   5.526   1.339   3.626 -1.2984  1.9374  1.4881
 4519SOL    HW214304   5.531   1.263   3.757  0.1923 -0.9932 -0.1521
 4520SOL     OW14305   4.227   2.645   0.367 -0.6004 -0.0916 -0.6801
 4520SOL    HW114306   4.245   2.738   0.360 -0.6283  0.0032  0.3156
 4520SOL    HW214307   4.312   2.605   0.385 -1.0018  0.1741  2.4111
 4521SOL     OW14308   5.954   4.059   5.595 -0.0217  0.4543 -0.5538
 4521SOL    HW114309   6.042   4.062   5.558  1.2725 -0.6818  2.1356
 4521SOL    HW214310   5.958   4.115   5.673 -2.2396  1.7520 -1.2472
 4522SOL     OW14311   5.155   1.518   2.596 -0.6114  0.1040  0.0631
 4522SOL    HW114312   5.135   1.455   2.666 -0.5588 -0.6985 -0.6312
 4522SOL    HW214313   5.148   1.467   2.515  2.2502  0.2229 -0.3779
 4523SOL     OW14314   1.899   4.508   2.867 -0.0717 -0.1375 -0.2289
 4523SOL    HW114315   1.808   4.501   2.894  0.0305  1.5891  0.7626
 4523SOL    HW214316   1.902   4.588   2.814  0.9635  0.1831  0.2903
 4524SOL     OW14317   3.888   0.065   2.682 -0.2169 -0.2963 -0.9307
 4524SOL    HW114318   3.951   0.112   2.627 -1.4737 -0.0771 -2.2508
 4524SOL    HW214319   3.878   0.120   2.759  0.0054  0.4634 -1.4333
 4525SOL     OW14320   1.552   4.186   2.938  0.3972 -0.0789 -0.5028
 4525SOL    HW114321   1.533   4.243   2.863  1.0749  0.6849 -0.1159
 4525SOL    HW214322   1.619   4.125   2.906 -0.2152 -0.5638 -0.8733
 4526SOL     OW14323   5.511   4.076   4.134  0.3653  0.0969  0.6937
 4526SOL    HW114324   5.587   4.038   4.089  0.6609  0.9585  0.4505
 4526SOL    HW214325   5.549   4.117   4.212  0.4592  2.2230 -0.3947
 4527SOL     OW14326   5.109   4.738   4.470  0.2477 -0.5088  0.1310
 4527SOL    HW114327   5.026   4.774   4.500  0.8962  2.4007 -1.1741
 4527SOL    HW214328   5.094   4.715   4.379  0.6174 -0.9185  0.1714
 4528SOL     OW14329   0.105   1.922   4.004  0.2149 -0.0453  0.1440
 4528SOL    HW114330   0.105   1.857   3.935 -1.0879 -0.6324  0.6586
 4528SOL    HW214331   0.015   1.954   4.007  0.4177  0.4880  1.0835
 4529SOL     OW14332   5.155   5.348   3.325 -0.5120  0.1135  0.0505
 4529SOL    HW114333   5.079   5.404   3.339 -0.2446  0.6613 -0.6309
 4529SOL    HW214334   5.207   5.358   3.405 -0.1392  1.3660 -0.3347
 4530SOL     OW14335   5.499   1.716   6.070  0.0542  0.4934  0.2290
 4530SOL    HW114336   5.444   1.680   6.000 -1.2494  1.6115  0.6377
 4530SOL    HW214337   5.480   1.810   6.070 -0.4833  0.4286  2.5183
 4531SOL     OW14338   5.480   2.943   2.873  0.0874  0.0983  0.0429
 4531SOL    HW114339   5.435   2.929   2.956 -0.5380  0.4437 -0.2271
 4531SOL    HW214340   5.442   3.024   2.838  0.7108  0.2368 -0.3364
 4532SOL     OW14341   4.967   4.679   4.226 -0.4127  0.0714 -0.3495
 4532SOL    HW114342   4.886   4.724   4.250 -0.7491 -0.1133 -1.1220
 4532SOL    HW214343   4.977   4.694   4.132  1.0219  0.9903 -0.0807
 4533SOL     OW14344   1.667   5.201   1.307 -0.1107  0.2656 -0.4460
 4533SOL    HW114345   1.633   5.286   1.279  0.5896  0.5855 -0.3257
 4533SOL    HW214346   1.762   5.210   1.305 -0.0220  0.0838  1.3823
 4534SOL     OW14347   2.849   0.626   5.977  0.3561 -0.1546  0.0406
 4534SOL    HW114348   2.803   0.667   6.050  0.5198  0.3721 -0.1418
 4534SOL    HW214349   2.840   0.690   5.905  1.2392 -0.1102 -0.0390
 4535SOL     OW14350   6.272   4.796   0.401 -0.1020  0.1416  0.1373
 4535SOL    HW114351   6.318   4.749   0.331  1.3039  1.3134  0.2285
 4535SOL    HW214352   6.311   4.883   0.401 -0.9620  0.5595  1.5686
 4536SOL     OW14353   4.092   1.761   6.006  0.1018 -0.1209  0.2020
 4536SOL    HW114354   4.049   1.771   6.091  0.1711 -1.9037  0.4719
 4536SOL    HW214355   4.185   1.754   6.028  0.3740  1.6955 -0.2259
 4537SOL     OW14356   3.120   1.317   1.058  0.4119 -0.0604 -0.1239
 4537SOL    HW114357   3.207   1.304   1.096  0.6461 -0.1533 -0.6767
 4537SOL    HW214358   3.128   1.282   0.969 -0.1777 -0.0208 -0.1951
 4538SOL     OW14359   4.715   2.431   2.883 -0.0775  0.1209  0.7733
 4538SOL    HW114360   4.664   2.399   2.958 -1.8535 -1.0124 -0.8087
 4538SOL    HW214361   4.650   2.440   2.813  1.9284 -1.8129 -1.4953
 4539SOL     OW14362   0.459   3.822   3.296 -0.2037 -0.7574 -0.0145
 4539SOL    HW114363   0.544   3.833   3.339 -0.9888 -0.2749  1.4814
 4539SOL    HW214364   0.395   3.841   3.364 -1.5417 -2.1999 -0.8120
 4540SOL     OW14365   1.182   3.604   1.008 -0.5194  0.0877 -0.2089
 4540SOL    HW114366   1.183   3.522   1.057 -0.8972  0.6169  0.7128
 4540SOL    HW214367   1.224   3.583   0.925 -3.8907 -2.0408 -1.5987
 4541SOL     OW14368   2.143   3.306   0.161  0.2542  0.3753  0.6658
 4541SOL    HW114369   2.086   3.231   0.144  0.0357 -0.0389  2.8779
 4541SOL    HW214370   2.215   3.296   0.099 -0.0987 -1.3134  0.4733
 4542SOL     OW14371   3.647   4.356   3.313  0.3426  0.2483 -0.4865
 4542SOL    HW114372   3.578   4.304   3.355  0.1508  0.0511 -1.0357
 4542SOL    HW214373   3.682   4.411   3.384  0.3206 -0.3876  0.0228
 4543SOL     OW14374   5.337   6.072   4.609 -0.0727  0.4097 -0.1185
 4543SOL    HW114375   5.382   6.019   4.674 -1.8923  0.3903  1.2190
 4543SOL    HW214376   5.405   6.096   4.546  1.5701 -0.3783  1.2590
 4544SOL     OW14377   2.198   0.091   2.741  0.1682 -0.2780  0.4521
 4544SOL    HW114378   2.253   0.014   2.733  0.3075 -0.3235  1.7480
 4544SOL    HW214379   2.255   0.158   2.778 -0.4981 -0.1727  1.3056
 4545SOL     OW14380   3.358   6.167   2.860 -0.0102 -0.2946  0.4289
 4545SOL    HW114381   3.317   6.127   2.938 -1.0865 -1.0891 -0.5069
 4545SOL    HW214382   3.434   6.113   2.843  1.1292  0.7897  1.7888
 4546SOL     OW14383   1.615   3.366   1.995 -0.4774  0.0445  0.4236
 4546SOL    HW114384   1.666   3.420   1.935  0.7512  0.2694  1.6377
 4546SOL    HW214385   1.531   3.355   1.950 -0.2867  1.8081 -0.4741
 4547SOL     OW14386   1.931   6.284   6.222  0.4795  0.2554  0.4456
 4547SOL    HW114387   1.917   6.191   6.242  2.0163 -0.0339  0.3408
 4547SOL    HW214388   1.844   6.318   6.202  0.0235 -1.4757 -0.7779
 4548SOL     OW14389   3.288   1.308   5.908  0.2994 -0.1578 -0.3532
 4548SOL    HW114390   3.339   1.369   5.961  0.4349 -1.2034  0.7968
 4548SOL    HW214391   3.353   1.264   5.853  1.0171 -2.5639  2.1711
 4549SOL     OW14392   5.081   2.464   4.313  0.2750  0.2581  0.2282
 4549SOL    HW114393   5.113   2.457   4.403  0.8806 -0.4474 -0.0378
 4549SOL    HW214394   5.131   2.399   4.264 -0.9517 -0.2534 -0.3752
 4550SOL     OW14395   4.924   2.097   1.071 -0.2908  0.0103 -0.3876
 4550SOL    HW114396   4.993   2.050   1.118 -0.6872 -0.6604 -0.4635
 4550SOL    HW214397   4.949   2.189   1.077 -0.3968 -0.0362  1.2620
 4551SOL     OW14398   4.868   5.224   1.602  0.4492  0.0513 -0.0425
 4551SOL    HW114399   4.850   5.139   1.641  0.1086  0.0007 -0.2987
 4551SOL    HW214400   4.782   5.256   1.573  0.3960  0.9911  1.0589
 4552SOL     OW14401   4.869   5.903   2.739  0.0576  0.1963  0.1098
 4552SOL    HW114402   4.849   5.925   2.648 -2.1069 -0.5747  0.3519
 4552SOL    HW214403   4.906   5.984   2.775  0.6855  0.5930 -1.3647
 4553SOL     OW14404   5.968   4.375   3.890  0.7178 -0.1848  0.0120
 4553SOL    HW114405   5.881   4.401   3.922  1.2138  0.4607  0.8790
 4553SOL    HW214406   5.954   4.353   3.798 -0.3932 -0.2202  0.1723
 4554SOL     OW14407   5.058   0.738   5.918 -0.8466 -0.2527  0.2404
 4554SOL    HW114408   5.062   0.653   5.961 -2.8037 -0.7918 -0.4896
 4554SOL    HW214409   5.052   0.717   5.824  2.6363  0.8631 -0.3653
 4555SOL     OW14410   2.942   5.683   2.591 -0.4075  0.8550 -0.3124
 4555SOL    HW114411   3.028   5.692   2.550 -0.1308 -0.2718 -0.0142
 4555SOL    HW214412   2.889   5.753   2.551  0.1087  0.3845 -1.9018
 4556SOL     OW14413   1.163   2.279   1.467 -0.1485 -0.0722 -0.8370
 4556SOL    HW114414   1.073   2.264   1.438  0.0123 -0.4346 -1.1541
 4556SOL    HW214415   1.217   2.253   1.393  0.2148  0.2376 -0.6819
 4557SOL     OW14416   3.761   0.899   1.669 -0.1180  0.3360  0.1945
 4557SOL    HW114417   3.834   0.883   1.610  0.6306  2.6912  0.3523
 4557SOL    HW214418   3.759   0.824   1.728  0.7383 -0.8158 -1.2141
 4558SOL     OW14419   1.318   3.282   4.619  0.2864  0.4911 -0.3211
 4558SOL    HW114420   1.346   3.374   4.628 -0.2575  0.6257  0.0629
 4558SOL    HW214421   1.285   3.259   4.706 -0.7242  0.3167 -0.7420
 4559SOL     OW14422   1.467   5.830   1.960 -0.5469  0.4076  0.1423
 4559SOL    HW114423   1.436   5.823   1.870  1.5767 -2.0412 -0.5423
 4559SOL    HW214424   1.409   5.772   2.010 -0.4395  0.1125 -0.0733
 4560SOL     OW14425   4.235   5.636   3.006  0.1884 -0.1198 -0.0294
 4560SOL    HW114426   4.234   5.715   3.060 -0.5741 -0.4899  0.5264
 4560SOL    HW214427   4.294   5.576   3.053  1.5727  0.4476 -0.9769
 4561SOL     OW14428   4.904   3.744   4.080 -0.1961 -0.1938  0.0117
 4561SOL    HW114429   4.961   3.690   4.134 -0.8018 -1.1643 -0.2994
 4561SOL    HW214430   4.925   3.834   4.106  1.6357 -0.4984 -0.2641
 4562SOL     OW14431   1.798   4.272   4.697  0.3608  0.1670 -0.1642
 4562SOL    HW114432   1.720   4.327   4.704 -1.0989 -1.9345  1.8786
 4562SOL    HW214433   1.770   4.198   4.643  0.6141 -0.9761  1.1825
 4563SOL     OW14434   2.649   5.140   4.870  0.5736  0.4700 -0.1369
 4563SOL    HW114435   2.744   5.151   4.872  0.3721  2.9093 -0.1130
 4563SOL    HW214436   2.615   5.226   4.896 -1.6360 -0.2655 -0.3969
 4564SOL     OW14437   4.883   1.185   0.609 -0.3173 -0.3266  0.6450
 4564SOL    HW114438   4.807   1.159   0.661 -0.4232 -1.0400  0.1396
 4564SOL    HW214439   4.958   1.169   0.666 -0.4759 -0.5079  0.8012
 4565SOL     OW14440   3.311   5.631   4.870  0.2716  0.1861 -0.1431
 4565SOL    HW114441   3.339   5.716   4.836 -1.2258  0.0821 -1.7369
 4565SOL    HW214442   3.392   5.590   4.901  1.3475  1.2807 -1.3976
 4566SOL     OW14443   5.161   0.266   1.570 -0.0928 -0.1020  0.4404
 4566SOL    HW114444   5.142   0.357   1.592  1.8782  0.7649 -1.1246
 4566SOL    HW214445   5.113   0.250   1.488  2.2480  0.7284 -1.1900
 4567SOL     OW14446   4.746   4.452   4.303 -0.6514 -0.2706  0.5112
 4567SOL    HW114447   4.801   4.529   4.313  1.4092 -1.8410  2.1583
 4567SOL    HW214448   4.691   4.451   4.381 -3.0224  1.1596 -1.0131
 4568SOL     OW14449   4.833   2.639   2.047 -0.1244  0.7359 -0.1839
 4568SOL    HW114450   4.776   2.601   2.114  0.1475  0.2229 -0.2367
 4568SOL    HW214451   4.898   2.688   2.097  0.6728 -0.4570  0.0012
 4569SOL     OW14452   4.912   5.211   1.197  0.3430  0.2284 -0.3381
 4569SOL    HW114453   4.985   5.227   1.257 -0.2341  2.1737 -0.0846
 4569SOL    HW214454   4.924   5.276   1.128  0.7172 -1.6505 -2.1343
 4570SOL     OW14455   5.360   2.644   2.249 -0.1332  0.1666  0.0682
 4570SOL    HW114456   5.312   2.706   2.303  0.2695  0.7343 -0.2194
 4570SOL    HW214457   5.451   2.675   2.252  0.0265 -0.2621 -0.2848
 4571SOL     OW14458   6.139   3.339   3.366 -0.2922  0.1509 -0.5855
 4571SOL    HW114459   6.045   3.349   3.349 -0.7265  2.1174  2.3257
 4571SOL    HW214460   6.146   3.258   3.417 -0.2164 -0.5157 -1.6111
 4572SOL     OW14461   0.997   0.178   2.869  0.4259 -0.0473  0.7859
 4572SOL    HW114462   1.057   0.219   2.807  1.1191 -0.6280  1.0681
 4572SOL    HW214463   0.940   0.250   2.898  1.0758  0.5418  0.6309
 4573SOL     OW14464   0.847   3.904   4.903  0.0769 -0.1977  0.2480
 4573SOL    HW114465   0.876   3.951   4.981 -0.4802  0.0321  0.3258
 4573SOL    HW214466   0.860   3.812   4.924  0.8504 -0.1005  0.2299
 4574SOL     OW14467   3.144   3.136   1.475 -0.2251  0.1478  0.0593
 4574SOL    HW114468   3.137   3.074   1.402  0.7736 -0.5449  0.5344
 4574SOL    HW214469   3.053   3.154   1.500 -0.7018  1.6613 -2.3728
 4575SOL     OW14470   3.978   1.423   0.914  0.1128  0.4164  0.3853
 4575SOL    HW114471   3.968   1.342   0.964  1.0855 -0.7487 -1.1888
 4575SOL    HW214472   4.073   1.440   0.916 -0.0219  1.1989  0.2394
 4576SOL     OW14473   0.083   2.068   4.554  0.0117 -0.2848 -0.4792
 4576SOL    HW114474   0.070   1.974   4.551 -0.7075 -0.3957  2.6210
 4576SOL    HW214475   0.178   2.080   4.550  0.0475 -0.8973 -3.1144
 4577SOL     OW14476   6.021   5.667   4.960 -0.1974 -0.2650  0.4676
 4577SOL    HW114477   6.048   5.708   5.043  0.3554  0.6173 -0.1227
 4577SOL    HW214478   6.006   5.741   4.901  2.0433 -0.8868 -1.0151
 4578SOL     OW14479   6.041   3.621   0.882  0.3621 -0.4211  0.0926
 4578SOL    HW114480   6.111   3.673   0.922 -0.6133 -0.7611  2.4224
 4578SOL    HW214481   6.053   3.534   0.919  0.2471 -1.1636 -1.5452
 4579SOL     OW14482   6.069   4.692   1.721  0.1326 -0.4664 -0.4778
 4579SOL    HW114483   6.055   4.597   1.725  0.9568 -0.7276 -2.6472
 4579SOL    HW214484   6.160   4.703   1.747  0.0659 -0.2787 -0.3255
 4580SOL     OW14485   2.356   4.639   3.124 -0.1480 -0.3094 -0.5127
 4580SOL    HW114486   2.328   4.549   3.135 -0.3166 -0.3877 -1.5383
 4580SOL    HW214487   2.404   4.640   3.041 -1.8849  0.9311 -1.5832
 4581SOL     OW14488   3.726   3.116   1.798  0.3267 -0.4954  0.0121
 4581SOL    HW114489   3.637   3.141   1.820 -0.9355  0.1894 -4.7127
 4581SOL    HW214490   3.781   3.154   1.867 -2.9150 -1.6555  3.5756
 4582SOL     OW14491   4.652   0.992   3.629 -0.3115  0.3824  0.4311
 4582SOL    HW114492   4.606   0.939   3.563 -1.1022  0.2066  1.1135
 4582SOL    HW214493   4.724   1.033   3.580 -1.3614  0.9045 -0.7346
 4583SOL     OW14494   4.459   2.675   3.992 -0.9989  0.1369  0.5742
 4583SOL    HW114495   4.431   2.766   4.006  0.1472  0.8169 -1.1879
 4583SOL    HW214496   4.546   2.671   4.032 -0.9178 -0.0962  0.3698
 4584SOL     OW14497   4.943   4.369   0.621  0.1781 -1.2536  0.2117
 4584SOL    HW114498   4.948   4.399   0.531 -0.8090  0.0115  0.5453
 4584SOL    HW214499   5.034   4.365   0.651  0.3884  2.1898  0.3588
 4585SOL     OW14500   3.768   3.751   2.067 -0.4814  0.2612  0.7182
 4585SOL    HW114501   3.852   3.771   2.110  0.1983  1.2509 -0.9663
 4585SOL    HW214502   3.789   3.680   2.006 -0.0352  2.5448 -1.9865
 4586SOL     OW14503   4.855   5.062   2.079 -0.3408 -0.3097  0.1167
 4586SOL    HW114504   4.847   4.971   2.051 -0.1625 -1.0222  2.2251
 4586SOL    HW214505   4.764   5.092   2.089 -0.3967 -0.4194 -0.0593
 4587SOL     OW14506   1.175   2.564   3.341  0.4153  0.1202  0.0877
 4587SOL    HW114507   1.241   2.593   3.404  1.0233 -0.5362 -0.2237
 4587SOL    HW214508   1.131   2.644   3.313 -0.7096  0.3130  2.2412
 4588SOL     OW14509   1.299   1.305   0.119  0.0696 -0.2712 -0.1875
 4588SOL    HW114510   1.272   1.323   0.209  0.9879 -0.5308  0.1462
 4588SOL    HW214511   1.340   1.219   0.123 -0.1759 -0.4301 -0.9233
 4589SOL     OW14512   5.603   3.791   0.131 -0.2818 -0.0993  0.0217
 4589SOL    HW114513   5.668   3.809   0.198 -0.1715 -2.5085  0.6532
 4589SOL    HW214514   5.649   3.805   0.048 -0.4378  2.9508  0.3252
 4590SOL     OW14515   3.690   1.354   3.723  0.1931 -0.4205  0.2493
 4590SOL    HW114516   3.769   1.317   3.764  0.6843  0.4975  0.1638
 4590SOL    HW214517   3.652   1.282   3.673  0.3625 -1.1789  1.1886
 4591SOL     OW14518   5.780   2.012   3.404  0.4839 -0.0540 -0.6233
 4591SOL    HW114519   5.787   1.953   3.480 -1.2100 -0.7259 -0.9363
 4591SOL    HW214520   5.870   2.021   3.373  0.9394 -1.6005  0.1138
 4592SOL     OW14521   2.180   3.193   2.179 -0.4333  0.2761 -0.7762
 4592SOL    HW114522   2.135   3.158   2.256  1.1069 -1.3612 -0.5615
 4592SOL    HW214523   2.136   3.276   2.162 -1.1143  0.5053  1.6261
 4593SOL     OW14524   5.526   3.418   5.267 -0.1950  0.3423  0.2298
 4593SOL    HW114525   5.445   3.431   5.217 -1.1505  2.7982  2.2063
 4593SOL    HW214526   5.512   3.336   5.314 -1.8234  0.9985  0.9695
 4594SOL     OW14527   6.007   4.770   5.548  0.2257  0.5079 -0.4768
 4594SOL    HW114528   5.912   4.782   5.547  0.2502  1.2831  1.6305
 4594SOL    HW214529   6.031   4.771   5.641  2.3999  1.2593 -0.9722
 4595SOL     OW14530   2.389   1.301   5.883 -0.0179  0.0427  0.2656
 4595SOL    HW114531   2.315   1.256   5.922 -0.2827 -0.4439 -0.7688
 4595SOL    HW214532   2.355   1.387   5.856 -0.8059 -0.9131 -2.0592
 4596SOL     OW14533   2.271   3.676   4.320  0.5562  0.1014 -0.0668
 4596SOL    HW114534   2.206   3.731   4.276  2.6221  0.7929 -2.4806
 4596SOL    HW214535   2.248   3.587   4.297  1.3480  0.4331 -2.3715
 4597SOL     OW14536   3.092   6.270   5.153  1.0615  0.2014 -0.1117
 4597SOL    HW114537   3.044   6.301   5.229  2.8842 -0.9895  1.6218
 4597SOL    HW214538   3.143   6.345   5.124  2.8391 -0.1291  1.9290
 4598SOL     OW14539   2.510   3.397   0.687  0.4238 -0.0486  0.0573
 4598SOL    HW114540   2.587   3.344   0.706 -0.2672 -1.0755  0.0785
 4598SOL    HW214541   2.537   3.456   0.617  1.5008  0.2618  0.7166
 4599SOL     OW14542   3.418   4.441   5.912 -0.1620 -0.0034 -0.4181
 4599SOL    HW114543   3.427   4.534   5.932  0.5516 -0.5132  1.9830
 4599SOL    HW214544   3.504   4.404   5.930 -0.8592 -1.3589  0.2907
 4600SOL     OW14545   4.586   5.256   3.447 -0.0344 -0.0703  0.1955
 4600SOL    HW114546   4.679   5.278   3.451 -0.3040  0.9848  0.9958
 4600SOL    HW214547   4.568   5.209   3.529  0.4524 -3.1785 -1.3137
 4601SOL     OW14548   2.854   0.483   1.340 -0.2696 -0.3713  0.0659
 4601SOL    HW114549   2.805   0.558   1.373  0.6948  0.4246 -0.2548
 4601SOL    HW214550   2.846   0.417   1.408 -2.1306 -0.4315 -0.1608
 4602SOL     OW14551   4.206   6.078   0.470 -0.3489  0.4219 -0.0026
 4602SOL    HW114552   4.157   6.037   0.399 -1.2723 -0.1914  0.9621
 4602SOL    HW214553   4.140   6.100   0.536  0.4571  1.1948  0.5703
 4603SOL     OW14554   0.653   6.122   0.880  0.0006  0.2672 -0.0706
 4603SOL    HW114555   0.561   6.125   0.908 -0.5120  2.4509 -1.7498
 4603SOL    HW214556   0.667   6.030   0.857 -0.7516 -0.7790  3.1369
 4604SOL     OW14557   5.006   0.857   0.119 -0.0521 -0.6409 -0.1322
 4604SOL    HW114558   4.929   0.813   0.081 -0.4784 -1.2465  1.3728
 4604SOL    HW214559   4.982   0.949   0.121 -0.7872 -0.8313  0.3859
 4605SOL     OW14560   4.705   1.981   2.903  0.4338 -0.3581 -0.1387
 4605SOL    HW114561   4.667   2.038   2.836 -0.6543 -3.0379 -1.9765
 4605SOL    HW214562   4.792   1.960   2.869  0.5627 -0.3517  0.1849
 4606SOL     OW14563   3.598   3.413   3.480  0.2991 -0.3351 -0.2935
 4606SOL    HW114564   3.522   3.392   3.425 -0.3858  1.1209  0.0626
 4606SOL    HW214565   3.636   3.491   3.440 -0.0385  0.5721  1.0968
 4607SOL     OW14566   1.542   5.325   0.665 -0.5362  0.0702  0.1174
 4607SOL    HW114567   1.623   5.364   0.630 -0.7725  0.8955  0.4809
 4607SOL    HW214568   1.472   5.367   0.614 -0.7748 -0.1091  0.3008
 4608SOL     OW14569   5.226   1.224   3.864  0.4815 -0.1305  0.2033
 4608SOL    HW114570   5.237   1.210   3.958 -0.1963  1.0806  0.4909
 4608SOL    HW214571   5.311   1.256   3.834  0.8403 -0.9747  0.3032
 4609SOL     OW14572   2.322   2.752   1.047 -0.2903  0.5564 -0.0081
 4609SOL    HW114573   2.276   2.824   1.005  1.4035  1.8700  0.2796
 4609SOL    HW214574   2.414   2.764   1.023  0.7584  1.1807  3.6246
 4610SOL     OW14575   1.652   2.629   5.257 -0.1579 -0.2301 -0.2965
 4610SOL    HW114576   1.724   2.659   5.312  0.8193 -1.2125 -1.0200
 4610SOL    HW214577   1.652   2.688   5.182  1.0178 -1.2618 -1.1429
 4611SOL     OW14578   3.517   1.223   3.219  0.4126  0.7069 -0.3506
 4611SOL    HW114579   3.501   1.169   3.297 -0.4613  2.4335  0.7297
 4611SOL    HW214580   3.445   1.200   3.160 -0.3585  1.1606  0.3887
 4612SOL     OW14581   2.996   4.073   6.218  0.5761 -0.0969 -0.1572
 4612SOL    HW114582   3.019   4.152   6.169 -2.5407 -0.0157 -1.7456
 4612SOL    HW214583   3.031   4.001   6.166  0.1438  0.1293 -0.7752
 4613SOL     OW14584   5.466   5.198   5.019 -0.4423 -0.5171  0.1708
 4613SOL    HW114585   5.461   5.197   4.924 -0.7907 -2.6748  0.1611
 4613SOL    HW214586   5.536   5.259   5.039 -0.8710  0.5562 -1.4217
 4614SOL     OW14587   3.835   0.758   0.490  0.0098 -0.4363  0.4245
 4614SOL    HW114588   3.886   0.820   0.438 -1.2761  0.3115  0.0267
 4614SOL    HW214589   3.745   0.791   0.488  0.1028  0.6308  4.5559
 4615SOL     OW14590   3.119   3.617   4.385  0.5053 -0.0668  0.3899
 4615SOL    HW114591   3.175   3.669   4.328 -0.7228 -0.8393 -1.6557
 4615SOL    HW214592   3.172   3.542   4.410  0.1052 -1.4824 -2.6070
 4616SOL     OW14593   1.997   4.649   5.490 -0.0287 -0.3858  0.0884
 4616SOL    HW114594   2.063   4.675   5.427 -0.1635  0.1356  0.1569
 4616SOL    HW214595   1.955   4.731   5.517 -0.3549 -0.6562  0.4278
 4617SOL     OW14596   0.783   5.524   0.105  0.0220  0.1530 -0.1217
 4617SOL    HW114597   0.867   5.488   0.079 -0.0485 -0.0385 -0.0868
 4617SOL    HW214598   0.723   5.450   0.101 -0.5637  0.6845 -2.0278
 4618SOL     OW14599   0.268   5.900   0.130 -0.1296 -0.6481 -0.3097
 4618SOL    HW114600   0.193   5.883   0.187  0.5082 -4.0795 -0.2754
 4618SOL    HW214601   0.230   5.904   0.042 -0.6786  1.1392 -0.0429
 4619SOL     OW14602   2.022   2.897   4.252  0.4232  0.2898 -0.4998
 4619SOL    HW114603   2.087   2.887   4.322 -1.3979  0.6653  1.3346
 4619SOL    HW214604   2.055   2.970   4.199  2.0060 -0.2073 -0.2570
 4620SOL     OW14605   3.521   4.653   4.661 -0.1543  0.0583 -0.4312
 4620SOL    HW114606   3.586   4.685   4.599 -0.1268 -1.6968 -1.3685
 4620SOL    HW214607   3.572   4.622   4.736 -0.2712  4.3891  1.7486
 4621SOL     OW14608   5.514   0.898   2.433  0.5068  0.5973  0.4442
 4621SOL    HW114609   5.510   0.803   2.434  0.8999  0.5779  0.0631
 4621SOL    HW214610   5.422   0.925   2.435  0.3418  0.1920 -0.8476
 4622SOL     OW14611   3.606   2.540   0.368 -0.1360 -0.1323  0.3156
 4622SOL    HW114612   3.557   2.485   0.307  0.1898  0.8465 -0.8606
 4622SOL    HW214613   3.670   2.586   0.314  0.9728 -0.1219  1.5732
 4623SOL     OW14614   1.005   4.306   1.678  0.4243 -0.1299  0.0942
 4623SOL    HW114615   1.063   4.382   1.670  0.2553  0.6187  4.0176
 4623SOL    HW214616   1.063   4.232   1.693  0.4869 -0.0448  0.2771
 4624SOL     OW14617   2.811   4.945   0.609  0.4161 -0.0886  0.2569
 4624SOL    HW114618   2.882   4.913   0.664 -0.2708 -0.7055  0.7989
 4624SOL    HW214619   2.735   4.891   0.633  0.0207 -0.1619 -1.0672
 4625SOL     OW14620   2.556   4.486   3.710 -0.9669 -0.1043  0.0976
 4625SOL    HW114621   2.575   4.563   3.764 -2.6486 -0.8374  1.8593
 4625SOL    HW214622   2.484   4.514   3.654 -1.7914 -0.4397  0.9585
 4626SOL     OW14623   5.993   1.876   3.032  0.1430 -0.0507  0.4647
 4626SOL    HW114624   5.968   1.817   3.103 -0.5047 -1.6821 -1.0536
 4626SOL    HW214625   6.089   1.876   3.035  0.1338  0.5607  1.8149
 4627SOL     OW14626   5.641   4.318   1.071  0.4687 -0.4928 -0.1527
 4627SOL    HW114627   5.713   4.363   1.115  0.2299 -0.2415 -0.0187
 4627SOL    HW214628   5.636   4.232   1.114  0.7440 -0.5413 -0.2203
 4628SOL     OW14629   1.793   0.970   0.598 -0.1505  0.4476 -0.3100
 4628SOL    HW114630   1.845   0.890   0.596 -0.8694 -0.0662  0.6466
 4628SOL    HW214631   1.853   1.039   0.571  0.9386 -0.1631  0.5017
 4629SOL     OW14632   3.684   6.045   0.806 -0.2575  0.1435  0.5289
 4629SOL    HW114633   3.735   5.976   0.766 -0.4939  0.7084 -0.7932
 4629SOL    HW214634   3.600   6.004   0.827  0.1099 -0.3326  1.0899
 4630SOL     OW14635   2.685   0.253   0.680 -0.1444 -0.8321 -0.0738
 4630SOL    HW114636   2.733   0.179   0.716 -2.4845 -2.6634 -0.4729
 4630SOL    HW214637   2.609   0.214   0.637 -1.3503  1.7986 -0.5497
 4631SOL     OW14638   3.140   1.590   1.063  0.3327 -0.0708 -0.2596
 4631SOL    HW114639   3.114   1.499   1.078  1.0252 -0.3607 -0.7557
 4631SOL    HW214640   3.235   1.591   1.080  0.2105  0.7146  0.4324
 4632SOL     OW14641   3.930   3.630   5.235  0.1519  0.2775 -0.1480
 4632SOL    HW114642   3.850   3.628   5.289 -0.3953 -2.0955 -0.9140
 4632SOL    HW214643   3.954   3.538   5.225  3.1718  0.9254  0.2389
 4633SOL     OW14644   1.914   5.947   5.119  0.1991 -0.1237 -0.0832
 4633SOL    HW114645   1.982   6.001   5.158  0.9705 -0.3074 -1.1399
 4633SOL    HW214646   1.852   6.011   5.082  0.6903  0.0479 -0.6211
 4634SOL     OW14647   2.408   4.127   2.274  0.0467  0.0896  0.0833
 4634SOL    HW114648   2.439   4.215   2.251  0.4699  0.3126  1.4351
 4634SOL    HW214649   2.322   4.121   2.233 -0.8004  1.8616  1.4637
 4635SOL     OW14650   2.957   0.249   3.477  0.9041  0.2791 -0.3517
 4635SOL    HW114651   3.029   0.203   3.434 -0.7409 -0.4357 -2.5477
 4635SOL    HW214652   2.965   0.224   3.569  2.6557 -0.8570 -0.7537
 4636SOL     OW14653   5.253   3.333   4.555  0.8054 -0.3837  0.3562
 4636SOL    HW114654   5.219   3.324   4.644 -1.4826  0.3269 -0.3910
 4636SOL    HW214655   5.250   3.427   4.537  0.1538 -0.6127 -0.8502
 4637SOL     OW14656   6.046   3.385   1.051 -0.7195 -0.4918  0.5713
 4637SOL    HW114657   6.036   3.380   1.146  1.8642  0.3319  0.9386
 4637SOL    HW214658   6.130   3.344   1.033 -0.3911  0.8242 -1.1709
 4638SOL     OW14659   5.020   4.360   2.111 -0.3728 -0.4748  0.3372
 4638SOL    HW114660   5.041   4.273   2.147  0.9824  1.2221  4.2337
 4638SOL    HW214661   5.065   4.363   2.027 -2.4626 -4.2760 -1.1686
 4639SOL     OW14662   2.389   3.384   3.961 -0.0261 -0.2734 -0.0535
 4639SOL    HW114663   2.448   3.424   4.024  0.7938 -1.9621  0.3137
 4639SOL    HW214664   2.396   3.439   3.883  1.1937  0.1810  0.3530
 4640SOL     OW14665   0.230   6.010   1.542 -0.8327 -0.3388 -0.3372
 4640SOL    HW114666   0.278   5.934   1.509 -1.8726 -1.3864  0.4292
 4640SOL    HW214667   0.229   6.072   1.470  0.2070 -0.9749 -0.9243
 4641SOL     OW14668   1.245   5.456   2.654  0.2796  0.3454 -0.2471
 4641SOL    HW114669   1.185   5.443   2.727 -0.4615 -2.8009 -1.2599
 4641SOL    HW214670   1.332   5.441   2.691  0.4223  3.3309  0.8748
 4642SOL     OW14671   4.832   0.685   3.409 -0.3803 -0.9584  0.4236
 4642SOL    HW114672   4.761   0.632   3.446 -0.1880 -0.5264  1.4708
 4642SOL    HW214673   4.846   0.650   3.321  0.6096 -3.5510  1.5040
 4643SOL     OW14674   5.733   1.934   1.172  0.0238  0.4809  0.0427
 4643SOL    HW114675   5.706   1.969   1.087  3.1673 -0.0324 -1.2997
 4643SOL    HW214676   5.752   2.011   1.225 -1.5644  0.8000  0.2099
 4644SOL     OW14677   3.341   6.215   5.328  0.4571  0.1345 -0.0560
 4644SOL    HW114678   3.418   6.271   5.339  0.9803 -0.5370 -0.2787
 4644SOL    HW214679   3.271   6.275   5.300  1.0909  0.6226 -0.6118
 4645SOL     OW14680   4.029   2.151   6.006  0.0217  0.6395  0.2652
 4645SOL    HW114681   4.034   2.218   5.938 -1.3951  1.4704  0.9444
 4645SOL    HW214682   3.953   2.097   5.981  0.4668 -0.0359  0.3369
 4646SOL     OW14683   3.022   3.969   3.388 -0.0698 -0.6209 -0.0747
 4646SOL    HW114684   3.015   3.892   3.444  1.3321 -0.7061  0.0246
 4646SOL    HW214685   2.946   3.964   3.330 -0.2301 -1.8413  0.2137
 4647SOL     OW14686   0.776   1.769   0.149 -0.5532 -0.6913 -0.1838
 4647SOL    HW114687   0.721   1.724   0.213  0.0580 -2.3111 -0.7341
 4647SOL    HW214688   0.862   1.726   0.158  0.4793  1.3282  0.2151
 4648SOL     OW14689   3.638   1.119   3.978 -0.0383  0.4813  0.5321
 4648SOL    HW114690   3.712   1.118   3.917  0.1488  1.0693  0.7411
 4648SOL    HW214691   3.679   1.125   4.065 -0.3264  0.6138  0.6591
 4649SOL     OW14692   5.178   1.017   5.561 -0.0516  0.3420 -0.2505
 4649SOL    HW114693   5.084   1.034   5.551 -0.4861 -1.8257 -0.4290
 4649SOL    HW214694   5.185   0.921   5.560  1.9850  0.4074  1.4863
 4650SOL     OW14695   5.656   4.976   5.846 -0.2843  0.1961 -0.4217
 4650SOL    HW114696   5.668   5.049   5.906 -0.8725  0.9230 -1.1558
 4650SOL    HW214697   5.734   4.922   5.858  1.1897  1.9741 -1.2604
 4651SOL     OW14698   1.436   2.627   4.851  0.6462 -0.2627 -0.0010
 4651SOL    HW114699   1.504   2.682   4.889  2.7089 -1.5918 -1.5692
 4651SOL    HW214700   1.391   2.589   4.926  2.7440 -0.6426  1.1355
 4652SOL     OW14701   4.108   5.850   0.933 -0.2239 -0.0940  0.8460
 4652SOL    HW114702   4.203   5.843   0.933 -0.1735 -0.1781 -1.3672
 4652SOL    HW214703   4.091   5.943   0.913 -0.4855 -0.7457 -2.4964
 4653SOL     OW14704   3.730   6.139   4.653  0.2184  0.5711 -0.4700
 4653SOL    HW114705   3.680   6.078   4.707  0.2630 -2.4490 -3.5415
 4653SOL    HW214706   3.778   6.192   4.716 -2.9944  0.3373  2.5046
 4654SOL     OW14707   4.848   1.526   3.751 -0.5517  0.2253 -0.4604
 4654SOL    HW114708   4.891   1.441   3.752  0.2749  0.6381 -0.0306
 4654SOL    HW214709   4.764   1.511   3.794 -0.1183 -0.2418  0.2567
 4655SOL     OW14710   4.915   0.261   5.765  0.1242  0.1769 -0.1358
 4655SOL    HW114711   4.897   0.341   5.815  0.2593 -0.5879  1.1557
 4655SOL    HW214712   5.006   0.240   5.785 -0.5354 -1.5072  1.3078
 4656SOL     OW14713   1.944   5.980   5.618 -0.2371  0.2806 -0.0594
 4656SOL    HW114714   1.914   6.071   5.628  1.5969  0.8499  0.7586
 4656SOL    HW214715   1.977   5.976   5.528 -0.7785  0.2583 -0.2636
 4657SOL     OW14716   0.769   5.741   1.847 -0.4954  0.4194 -0.1780
 4657SOL    HW114717   0.821   5.662   1.832 -1.2640 -0.2595  0.6485
 4657SOL    HW214718   0.792   5.799   1.774 -1.0241 -1.1384 -1.6470
 4658SOL     OW14719   4.328   4.241   5.455  0.3597  0.6259  0.3820
 4658SOL    HW114720   4.304   4.333   5.449 -0.5219  0.3395 -1.1658
 4658SOL    HW214721   4.247   4.194   5.431  1.6602 -0.4594 -2.2653
 4659SOL     OW14722   4.113   0.743   2.138  0.3879 -0.3167 -0.1736
 4659SOL    HW114723   4.101   0.838   2.130  0.7355 -0.2443  0.1726
 4659SOL    HW214724   4.190   0.733   2.193  1.1157 -0.7992 -1.2511
 4660SOL     OW14725   1.386   0.127   2.775  0.3193  0.4441  0.4995
 4660SOL    HW114726   1.456   0.186   2.803  0.0023  1.0259  0.0990
 4660SOL    HW214727   1.382   0.060   2.843  0.5590  0.9996  1.0724
 4661SOL     OW14728   4.247   0.714   3.931 -0.3911 -0.0076  0.1044
 4661SOL    HW114729   4.289   0.799   3.948 -0.2275  0.2090 -1.2707
 4661SOL    HW214730   4.288   0.683   3.851  0.5082 -2.0418  1.2835
 4662SOL     OW14731   0.877   0.123   6.140  0.1197  0.5656  0.0461
 4662SOL    HW114732   0.833   0.039   6.147  0.3409  0.4186 -0.3129
 4662SOL    HW214733   0.941   0.122   6.211  1.1029 -0.1640 -0.8273
 4663SOL     OW14734   2.264   0.472   0.969  0.6760  0.3618  0.3628
 4663SOL    HW114735   2.209   0.488   1.045  1.0662  0.9437  0.5298
 4663SOL    HW214736   2.353   0.492   0.998  0.9866 -0.5694  0.0952
 4664SOL     OW14737   5.864   1.494   1.718  0.0912  0.2070  0.5122
 4664SOL    HW114738   5.874   1.495   1.623  0.6815 -2.4967  0.4718
 4664SOL    HW214739   5.950   1.519   1.752  1.0963 -2.5473  0.2379
 4665SOL     OW14740   4.150   6.157   4.632 -0.3280  0.1696  0.5083
 4665SOL    HW114741   4.199   6.218   4.687 -0.7340  0.4872  0.5247
 4665SOL    HW214742   4.183   6.172   4.544  1.2233 -1.2220  0.8157
 4666SOL     OW14743   6.249   2.883   1.608 -0.4094  0.0024  0.1577
 4666SOL    HW114744   6.250   2.971   1.646  0.0300  0.0467  0.0512
 4666SOL    HW214745   6.237   2.825   1.684  1.5714  0.0239  0.5367
 4667SOL     OW14746   5.453   5.458   3.464 -0.0557 -0.0606 -0.1716
 4667SOL    HW114747   5.538   5.481   3.503  0.6639 -2.1455 -0.3546
 4667SOL    HW214748   5.472   5.452   3.370  0.1133 -2.3426 -0.0411
 4668SOL     OW14749   3.838   1.681   3.570  0.3747 -0.1063  0.1122
 4668SOL    HW114750   3.889   1.695   3.490  0.5131 -0.8684  0.0579
 4668SOL    HW214751   3.749   1.664   3.538  0.5616 -1.0730  0.0690
 4669SOL     OW14752   4.759   1.534   0.678  0.1234 -0.0339 -0.3236
 4669SOL    HW114753   4.741   1.457   0.733 -0.0667 -0.3987 -0.8897
 4669SOL    HW214754   4.675   1.556   0.639 -0.0085  0.9952  0.4881
 4670SOL     OW14755   2.052   2.803   1.984  0.6758 -0.0243 -0.4492
 4670SOL    HW114756   2.105   2.728   2.009 -1.0694 -0.7437  1.3483
 4670SOL    HW214757   1.985   2.809   2.052 -0.3567  2.0357 -1.5530
 4671SOL     OW14758   1.137   4.320   1.992 -0.0414  0.5063 -0.0819
 4671SOL    HW114759   1.157   4.358   2.078 -0.7589  2.3992 -0.6964
 4671SOL    HW214760   1.215   4.270   1.970  0.0786 -0.2009  1.7465
 4672SOL     OW14761   5.203   3.464   6.181 -0.3963 -0.9382  0.2191
 4672SOL    HW114762   5.271   3.500   6.238 -1.1283 -0.8930  1.0785
 4672SOL    HW214763   5.133   3.529   6.183 -1.0788 -1.6722  0.5350
 4673SOL     OW14764   3.014   2.772   5.345 -0.3809  0.8953 -0.8088
 4673SOL    HW114765   2.998   2.832   5.273  0.7727 -0.6995 -2.4892
 4673SOL    HW214766   3.107   2.753   5.340 -0.3698  0.3537  0.8269
 4674SOL     OW14767   3.676   4.841   4.171  0.2458 -0.2347 -0.1656
 4674SOL    HW114768   3.756   4.799   4.141  0.5058 -0.6587  1.0862
 4674SOL    HW214769   3.609   4.811   4.109  0.8172 -0.8802 -0.4809
 4675SOL     OW14770   2.043   3.908   2.403 -0.4227  0.0551 -0.1056
 4675SOL    HW114771   1.973   3.964   2.437  0.1307  0.6392  0.0796
 4675SOL    HW214772   2.005   3.820   2.403 -0.7860  0.1980  1.0396
 4676SOL     OW14773   3.258   1.184   1.624  0.2868  0.7666  0.2973
 4676SOL    HW114774   3.241   1.141   1.541  1.5654 -3.7107  2.0705
 4676SOL    HW214775   3.354   1.193   1.628  0.3047  0.3134  1.4986
 4677SOL     OW14776   5.290   2.236   5.789  0.8591  0.0695 -0.3599
 4677SOL    HW114777   5.332   2.153   5.813  1.3987  0.4117 -0.0842
 4677SOL    HW214778   5.201   2.229   5.822  1.0489 -0.2085  0.0997
 4678SOL     OW14779   1.988   1.424   0.658  0.4264  0.7012  0.1343
 4678SOL    HW114780   1.960   1.345   0.613 -1.2790  1.2823  0.1116
 4678SOL    HW214781   2.079   1.436   0.631 -0.4677  0.9887 -3.1923
 4679SOL     OW14782   5.293   2.810   5.781 -0.4118 -0.1734  0.4503
 4679SOL    HW114783   5.257   2.897   5.799  0.5790  0.5878 -1.0859
 4679SOL    HW214784   5.301   2.807   5.686  0.7339 -1.4780  0.5682
 4680SOL     OW14785   2.563   3.292   1.688 -0.2336  0.0287  0.2437
 4680SOL    HW114786   2.553   3.252   1.775  0.5804  1.2119  0.9119
 4680SOL    HW214787   2.513   3.235   1.630 -3.0967  0.6315  1.9029
 4681SOL     OW14788   0.802   4.714   0.534  0.6932 -0.3871  0.8963
 4681SOL    HW114789   0.826   4.802   0.564 -0.5779  0.4537 -0.3901
 4681SOL    HW214790   0.883   4.679   0.496  0.9578  0.6941  0.4257
 4682SOL     OW14791   0.003   2.712   5.679 -0.2663 -0.0788 -0.5290
 4682SOL    HW114792   0.000   2.690   5.586 -0.5847  1.1681 -0.8305
 4682SOL    HW214793   0.092   2.688   5.707 -0.4054 -1.1267 -0.9743
 4683SOL     OW14794   2.561   1.769   3.883  0.1243  0.1897 -0.4461
 4683SOL    HW114795   2.644   1.797   3.845 -0.1611 -0.1591 -1.3537
 4683SOL    HW214796   2.494   1.814   3.831 -0.2568  1.4863  1.0910
 4684SOL     OW14797   4.381   5.718   1.535  0.0636 -0.1585  0.0781
 4684SOL    HW114798   4.319   5.652   1.567 -0.5503  1.2514  2.0323
 4684SOL    HW214799   4.376   5.789   1.600  1.2606  1.4779 -1.5047
 4685SOL     OW14800   1.981   5.844   2.390  0.2449 -0.0052  0.1905
 4685SOL    HW114801   1.949   5.884   2.470  1.3472  1.3479 -0.0060
 4685SOL    HW214802   1.953   5.752   2.396  1.4608 -0.2922  2.7505
 4686SOL     OW14803   5.384   1.319   4.686  0.7702 -0.3952  0.5613
 4686SOL    HW114804   5.308   1.348   4.634 -0.0699 -2.4951  0.5227
 4686SOL    HW214805   5.459   1.332   4.628  0.0624 -1.0550 -0.5418
 4687SOL     OW14806   2.907   1.080   6.174 -0.2158  0.3372  0.2650
 4687SOL    HW114807   2.960   1.128   6.109  0.4216  0.0206  0.5430
 4687SOL    HW214808   2.900   1.140   6.248 -1.5328  0.9800 -0.3409
 4688SOL     OW14809   0.710   2.474   3.820  0.6441  0.1512 -0.0025
 4688SOL    HW114810   0.720   2.567   3.802  2.3982  0.5915  2.8018
 4688SOL    HW214811   0.618   2.464   3.844  0.3179  1.0119 -0.8083
 4689SOL     OW14812   0.734   3.305   4.285  0.0535 -0.0880 -0.2299
 4689SOL    HW114813   0.667   3.244   4.256 -0.5611  1.2743 -1.8484
 4689SOL    HW214814   0.698   3.344   4.365 -0.5692 -0.2149 -0.4452
 4690SOL     OW14815   1.653   5.811   0.030 -0.8896  0.1973 -0.1407
 4690SOL    HW114816   1.625   5.755  -0.043  1.0361 -1.1929  0.1018
 4690SOL    HW214817   1.745   5.791   0.042 -0.6846  1.7944  1.4843
 4691SOL     OW14818   4.742   5.086   6.074 -0.3993  0.3487  0.0393
 4691SOL    HW114819   4.808   5.117   6.012 -0.7629  1.4026  0.1601
 4691SOL    HW214820   4.780   5.102   6.160  0.6349 -2.2583  0.1508
 4692SOL     OW14821   2.660   1.284   5.745 -0.2168 -0.2905 -0.7378
 4692SOL    HW114822   2.565   1.271   5.748  0.0589 -2.8653  2.5153
 4692SOL    HW214823   2.696   1.196   5.745  2.0902  0.5215  1.9183
 4693SOL     OW14824   1.722   3.620   2.638  0.4963  0.0263  0.7430
 4693SOL    HW114825   1.802   3.673   2.637  1.6282 -1.5946  1.3863
 4693SOL    HW214826   1.676   3.649   2.717  0.9137  0.2981  0.8930
 4694SOL     OW14827   4.440   1.648   0.590  0.0488 -0.0931 -0.0803
 4694SOL    HW114828   4.437   1.678   0.499 -0.8787 -2.8988 -1.0735
 4694SOL    HW214829   4.379   1.706   0.636  0.1338  1.0465 -1.3307
 4695SOL     OW14830   2.201   0.192   3.888 -0.5539 -0.3637  0.5646
 4695SOL    HW114831   2.174   0.283   3.884 -1.0225 -0.5498 -1.7961
 4695SOL    HW214832   2.284   0.194   3.935 -0.6596  1.2446  0.7449
 4696SOL     OW14833   3.776   2.395   2.413 -0.0050  0.2364  0.7772
 4696SOL    HW114834   3.827   2.459   2.362  1.7278 -2.1667 -0.7140
 4696SOL    HW214835   3.814   2.400   2.501  1.9368 -0.5091  0.0348
 4697SOL     OW14836   4.486   0.024   0.691  0.1567  0.4118  0.0904
 4697SOL    HW114837   4.489  -0.036   0.765  1.4721 -0.6298 -0.7457
 4697SOL    HW214838   4.497  -0.033   0.614 -0.7852  1.4993 -0.8830
 4698SOL     OW14839   0.438   4.312   2.287 -0.2363  0.0902 -0.8565
 4698SOL    HW114840   0.443   4.318   2.383  0.1020  0.8778 -0.9224
 4698SOL    HW214841   0.345   4.327   2.267 -0.7687 -2.2575 -0.5209
 4699SOL     OW14842   0.099   5.987   0.998  0.1961 -0.0428  0.1284
 4699SOL    HW114843   0.034   5.976   1.068  1.3690 -0.1723  1.2397
 4699SOL    HW214844   0.141   5.901   0.991 -0.8681 -0.4674 -1.7790
 4700SOL     OW14845   2.434   4.830   3.304 -0.1726  1.2384 -0.3522
 4700SOL    HW114846   2.356   4.879   3.328 -0.8433 -0.3442  0.8942
 4700SOL    HW214847   2.403   4.764   3.243 -0.0941 -0.1282  1.0114
 4701SOL     OW14848   0.694   3.838   5.658  0.8060  0.6867 -0.2374
 4701SOL    HW114849   0.764   3.881   5.610 -1.3448  1.0954 -3.2811
 4701SOL    HW214850   0.630   3.907   5.675 -0.7472 -0.4010 -1.3448
 4702SOL     OW14851   3.813   6.080   2.749  0.6937 -1.0548 -0.2291
 4702SOL    HW114852   3.824   6.171   2.723  0.2611 -0.7889  0.4965
 4702SOL    HW214853   3.890   6.061   2.804  0.8364 -1.1584 -0.4647
 4703SOL     OW14854   1.903   4.163   5.727  0.4143 -0.0096 -0.3365
 4703SOL    HW114855   1.919   4.245   5.681 -0.1881 -0.2108 -0.9250
 4703SOL    HW214856   1.845   4.187   5.800 -0.0360  0.0393 -0.7064
 4704SOL     OW14857   2.050   0.846   2.899  0.6846 -0.1763  0.0615
 4704SOL    HW114858   1.980   0.854   2.963  1.3262 -0.7144  0.8688
 4704SOL    HW214859   2.026   0.770   2.847 -0.1386  0.6160 -0.7451
 4705SOL     OW14860   1.608   4.193   3.542 -0.4263  0.2684 -0.2829
 4705SOL    HW114861   1.651   4.190   3.456  0.3941 -0.6445  0.1440
 4705SOL    HW214862   1.592   4.101   3.564 -0.2349  0.4631  0.7296
 4706SOL     OW14863   5.415   6.140   1.300  0.6841 -0.4124 -0.5327
 4706SOL    HW114864   5.463   6.076   1.353  1.8099  0.4935 -0.4281
 4706SOL    HW214865   5.342   6.168   1.356 -0.1952 -2.0069 -0.7968
 4707SOL     OW14866   0.644   4.567   0.817 -0.3213 -0.1292  0.1098
 4707SOL    HW114867   0.729   4.575   0.859 -0.2568 -0.1525 -0.0162
 4707SOL    HW214868   0.588   4.525   0.882 -0.0133 -0.8946 -0.1207
 4708SOL     OW14869   3.339   0.731   5.491  0.2458 -0.4255  0.1838
 4708SOL    HW114870   3.295   0.786   5.555  1.9437 -0.6248  1.6026
 4708SOL    HW214871   3.415   0.782   5.462  1.3306 -1.6028  0.8245
 4709SOL     OW14872   5.221   3.422   1.172  0.3215  0.4463  0.3103
 4709SOL    HW114873   5.219   3.475   1.092  1.1897  0.5081  0.3260
 4709SOL    HW214874   5.282   3.351   1.153  0.5729  0.4895  0.9378
 4710SOL     OW14875   2.603   2.821   0.992 -0.2548  0.4477 -0.1317
 4710SOL    HW114876   2.606   2.727   0.976 -0.3246  0.1838  1.2207
 4710SOL    HW214877   2.686   2.840   1.037  0.8002  1.4777 -2.3766
 4711SOL     OW14878   3.864   4.133   1.338 -0.1022  0.4106  0.2143
 4711SOL    HW114879   3.875   4.062   1.275 -0.2928 -1.2503  1.9639
 4711SOL    HW214880   3.770   4.149   1.341 -0.2555 -0.5310  1.0867
 4712SOL     OW14881   5.399   3.207   2.134 -0.0327  0.3320  0.5601
 4712SOL    HW114882   5.419   3.118   2.103 -1.7055 -0.0166  0.3713
 4712SOL    HW214883   5.460   3.263   2.085 -0.1034 -0.5596 -0.5967
 4713SOL     OW14884   6.141   3.713   5.542 -0.1717 -0.3440 -0.1145
 4713SOL    HW114885   6.179   3.799   5.527 -0.5339 -0.1031  0.3124
 4713SOL    HW214886   6.088   3.695   5.465  0.4986 -0.5141 -0.5398
 4714SOL     OW14887   4.184   5.136   5.368 -0.1420 -0.2885 -0.1226
 4714SOL    HW114888   4.200   5.077   5.441 -0.8287 -0.4963 -0.1332
 4714SOL    HW214889   4.090   5.127   5.349  0.2698 -1.2718 -1.9069
 4715SOL     OW14890   4.962   5.676   5.261  0.2122  0.2864  0.2090
 4715SOL    HW114891   5.001   5.644   5.342  0.2558 -0.1098  0.0343
 4715SOL    HW214892   4.967   5.772   5.267 -1.3516  0.3230  1.4616
 4716SOL     OW14893   2.355   5.550   4.399 -0.1031 -0.1253  0.2192
 4716SOL    HW114894   2.267   5.526   4.429 -0.0627 -0.9832 -0.3217
 4716SOL    HW214895   2.402   5.573   4.479 -1.0285  1.0983  0.4537
 4717SOL     OW14896   0.496   5.296   0.446  0.1596  0.0899 -0.0042
 4717SOL    HW114897   0.471   5.365   0.507  0.3171  0.4254 -0.3157
 4717SOL    HW214898   0.563   5.246   0.493 -0.2164 -0.0738  0.3609
 4718SOL     OW14899   5.959   0.920   5.679  0.4533  0.1310  0.1244
 4718SOL    HW114900   6.038   0.924   5.625  0.8267  0.0642  0.6583
 4718SOL    HW214901   5.953   0.828   5.705  0.2274  0.1462  0.1229
 4719SOL     OW14902   4.062   0.611   1.839 -0.0549 -0.1122 -0.2446
 4719SOL    HW114903   4.117   0.647   1.909 -1.3383  1.7232 -0.1076
 4719SOL    HW214904   4.027   0.530   1.876  1.0732 -0.3485  0.3569
 4720SOL     OW14905   3.678   3.648   3.698  0.4350 -0.5323  0.3148
 4720SOL    HW114906   3.598   3.698   3.714  0.6187 -0.3507  0.6616
 4720SOL    HW214907   3.701   3.667   3.607  0.9053  0.5873  0.6596
 4721SOL     OW14908   2.758   6.070   1.135  0.8723 -0.0551 -0.7956
 4721SOL    HW114909   2.698   6.013   1.184  0.9249 -0.7076 -1.4705
 4721SOL    HW214910   2.731   6.059   1.044  0.4850  1.4850 -0.8914
 4722SOL     OW14911   5.425   3.219   5.451 -0.0733  0.4893 -0.1469
 4722SOL    HW114912   5.392   3.129   5.450  0.1225  0.4192 -0.9915
 4722SOL    HW214913   5.511   3.213   5.492  0.4067  0.1036 -1.1591
 4723SOL     OW14914   3.161   1.936   2.127  0.0380 -0.0363  0.0187
 4723SOL    HW114915   3.247   1.915   2.090 -0.1106  1.3394 -1.2250
 4723SOL    HW214916   3.104   1.865   2.096  0.0557  0.7552 -1.9935
 4724SOL     OW14917   2.867   1.917   3.994 -0.4567  0.0256  0.2654
 4724SOL    HW114918   2.961   1.920   3.973 -0.9683 -1.5439 -2.9392
 4724SOL    HW214919   2.861   1.858   4.069  1.0550 -0.9063 -0.2890
 4725SOL     OW14920   0.796   3.879   0.638  0.2785  0.2740  0.2231
 4725SOL    HW114921   0.856   3.880   0.563  1.3649  0.6810  1.0664
 4725SOL    HW214922   0.716   3.840   0.604  1.3975 -1.3635 -0.6731
 4726SOL     OW14923   1.359   6.256   2.986 -0.3466  0.3052 -0.3827
 4726SOL    HW114924   1.420   6.182   2.983 -1.7488 -0.8693 -1.3497
 4726SOL    HW214925   1.311   6.244   3.068 -1.8527 -0.9931 -1.3921
 4727SOL     OW14926   6.056   0.931   2.815  0.0108  0.3103  0.2419
 4727SOL    HW114927   6.049   0.836   2.811 -0.8855  0.3772 -0.0169
 4727SOL    HW214928   6.143   0.947   2.853 -0.0560 -0.6068  0.8188
 4728SOL     OW14929   1.309   5.462   1.809 -0.4134 -0.2120  0.3985
 4728SOL    HW114930   1.366   5.525   1.764 -0.5509  0.0856  0.6344
 4728SOL    HW214931   1.293   5.502   1.894 -0.3336 -0.6666  0.6320
 4729SOL     OW14932   0.474   2.606   3.599 -0.2973 -0.4874  0.6699
 4729SOL    HW114933   0.540   2.655   3.648  0.3036  1.7131 -2.0364
 4729SOL    HW214934   0.518   2.526   3.572  0.4082 -0.2344  1.0376
 4730SOL     OW14935   1.037   5.693   2.379 -0.3381  0.4288  0.1057
 4730SOL    HW114936   1.081   5.610   2.363  1.0870  1.2931 -0.5723
 4730SOL    HW214937   0.950   5.668   2.410 -0.0752 -1.3044 -0.4699
 4731SOL     OW14938   2.754   1.608   3.117 -0.1205 -0.2173 -0.3680
 4731SOL    HW114939   2.731   1.556   3.194 -0.2360  0.8097  0.3130
 4731SOL    HW214940   2.671   1.618   3.070 -0.0557 -0.8146 -0.6269
 4732SOL     OW14941   1.499   5.139   4.754 -0.2619  0.1191 -0.8359
 4732SOL    HW114942   1.449   5.214   4.721 -2.4799 -1.6236 -1.7127
 4732SOL    HW214943   1.433   5.080   4.789  1.4157 -1.4049 -0.0956
 4733SOL     OW14944   5.911   1.671   5.279 -0.4897 -0.5766 -0.0334
 4733SOL    HW114945   5.884   1.635   5.363 -0.7289  1.4715  0.8050
 4733SOL    HW214946   5.888   1.763   5.283 -0.7228 -0.4633 -2.4558
 4734SOL     OW14947   4.339   1.217   5.377 -0.2654 -0.5680 -0.4105
 4734SOL    HW114948   4.291   1.279   5.432 -0.8705 -0.8375 -0.6326
 4734SOL    HW214949   4.428   1.219   5.413 -0.0497  1.0403 -0.9308
 4735SOL     OW14950   5.406   6.287   4.079  0.4498 -0.4489  0.3478
 4735SOL    HW114951   5.431   6.322   4.165  0.1235  0.7630 -0.0288
 4735SOL    HW214952   5.311   6.298   4.076  0.4900 -0.2457 -0.2636
 4736SOL     OW14953   5.296   3.582   4.849  0.6919 -0.2485 -0.0374
 4736SOL    HW114954   5.384   3.620   4.848  0.5999 -0.0303 -1.1043
 4736SOL    HW214955   5.270   3.583   4.941  2.0910 -0.9798  0.3885
 4737SOL     OW14956   3.423   0.481   1.274  0.0134 -0.2379  0.3851
 4737SOL    HW114957   3.473   0.511   1.350 -1.0620  1.1008  0.6199
 4737SOL    HW214958   3.489   0.471   1.204  0.5326  3.0841  0.1973
 4738SOL     OW14959   3.137   2.140   1.310 -0.3044  0.7739 -0.6269
 4738SOL    HW114960   3.064   2.079   1.297 -1.9860  2.0478  1.9553
 4738SOL    HW214961   3.107   2.222   1.271 -0.4770  1.4065  0.7809
 4739SOL     OW14962   5.928   2.199   3.739  0.5195  0.3082 -0.5313
 4739SOL    HW114963   5.868   2.272   3.727 -0.4350 -0.3496  0.0860
 4739SOL    HW214964   5.962   2.181   3.651 -3.7750 -2.2969 -1.9540
 4740SOL     OW14965   5.595   6.045   4.112 -0.5069  0.0748  0.5823
 4740SOL    HW114966   5.521   6.093   4.076 -0.0525  0.9911  0.8292
 4740SOL    HW214967   5.600   6.073   4.203  0.3909  0.3621  0.4590
 4741SOL     OW14968   5.144   3.075   2.596  0.0565 -0.0127  0.2502
 4741SOL    HW114969   5.096   3.015   2.653 -0.0517 -0.6589 -0.5076
 4741SOL    HW214970   5.193   3.019   2.537  0.0825  0.6467 -0.3695
 4742SOL     OW14971   6.000   4.071   3.231  0.4269  0.6542 -0.3957
 4742SOL    HW114972   5.958   3.987   3.210  0.2198  0.6605 -0.0135
 4742SOL    HW214973   6.054   4.090   3.154  1.2392 -0.3047 -0.0926
 4743SOL     OW14974   3.682   3.106   2.582  0.0489  0.1032  0.1735
 4743SOL    HW114975   3.735   3.181   2.554  0.2221 -0.1238 -0.1223
 4743SOL    HW214976   3.710   3.090   2.672  0.1606  0.2655  0.1694
 4744SOL     OW14977   6.244   3.754   1.767  0.3099  0.3454  1.0670
 4744SOL    HW114978   6.295   3.763   1.686  1.2482  1.5559  1.7600
 4744SOL    HW214979   6.162   3.714   1.739  0.3621  1.3009 -0.5689
 4745SOL     OW14980   1.087   3.298   2.908 -0.0769  0.2835 -0.5249
 4745SOL    HW114981   1.075   3.316   2.815  1.4962 -0.7733 -0.9692
 4745SOL    HW214982   1.020   3.233   2.929  0.0474 -0.0372 -1.1052
 4746SOL     OW14983   2.264   3.932   5.093  0.2644 -0.3745  0.2051
 4746SOL    HW114984   2.311   4.003   5.049  1.5018 -1.0406  0.4347
 4746SOL    HW214985   2.208   3.977   5.157 -0.7274  0.5358 -1.2107
 4747SOL     OW14986   3.260   3.057   0.292  0.6544  0.3278  0.2780
 4747SOL    HW114987   3.254   3.043   0.198  1.3168  0.2901  0.2395
 4747SOL    HW214988   3.171   3.080   0.318  0.2635 -0.5403 -0.2155
 4748SOL     OW14989   5.529   4.937   5.449  1.1062  0.5745 -0.5733
 4748SOL    HW114990   5.598   4.932   5.382  2.2651  2.7171  0.3501
 4748SOL    HW214991   5.513   5.031   5.459 -2.7657  0.1914 -1.4729
 4749SOL     OW14992   4.154   2.723   0.088  0.3775  0.1305 -0.6745
 4749SOL    HW114993   4.062   2.694   0.085 -0.3520  2.3680 -2.0603
 4749SOL    HW214994   4.168   2.749   0.180 -0.6046  0.4469 -0.6024
 4750SOL     OW14995   2.680   4.939   3.231  0.4524  0.0367  0.0655
 4750SOL    HW114996   2.600   4.893   3.256  0.4184  0.0790  0.0344
 4750SOL    HW214997   2.749   4.872   3.235  0.5541  0.1849  0.8679
 4751SOL     OW14998   4.252   3.143   1.598 -0.0742  0.2131 -0.4494
 4751SOL    HW114999   4.193   3.075   1.631  0.1437 -0.1686 -0.8356
 4751SOL    HW215000   4.262   3.122   1.505  0.3744  0.4921 -0.4660
 4752SOL     OW15001   4.218   3.787   1.172  0.5035  0.0340 -0.3472
 4752SOL    HW115002   4.164   3.758   1.098  1.1934 -2.3451  0.0047
 4752SOL    HW215003   4.305   3.752   1.153  1.1222  0.9316  0.7343
 4753SOL     OW15004   0.984   2.035   3.024 -0.2482 -0.0825  0.3120
 4753SOL    HW115005   1.047   2.096   2.986 -0.4602  0.4628  0.8171
 4753SOL    HW215006   0.926   2.012   2.952 -1.4048  1.9048  0.5184
 4754SOL     OW15007   4.665   5.177   2.943  0.3565  0.1751  0.1112
 4754SOL    HW115008   4.697   5.246   2.885 -0.2713  0.0391 -0.4186
 4754SOL    HW215009   4.719   5.101   2.923  1.3063  0.6092  0.9721
 4755SOL     OW15010   3.262   3.926   5.319 -0.3426  0.7090  0.0181
 4755SOL    HW115011   3.261   3.876   5.401  0.4316 -0.3741 -0.6153
 4755SOL    HW215012   3.333   3.990   5.331  0.1909  0.1404 -0.0232
 4756SOL     OW15013   5.552   1.882   5.156 -0.0705 -0.1258  0.2457
 4756SOL    HW115014   5.611   1.868   5.083 -0.6757  0.1311 -0.3051
 4756SOL    HW215015   5.476   1.828   5.136 -0.3048  0.0688  0.6010
 4757SOL     OW15016   4.277   0.107   3.347 -0.1653  1.0054 -0.1332
 4757SOL    HW115017   4.247   0.197   3.357 -0.1362  1.0230 -0.2035
 4757SOL    HW215018   4.301   0.080   3.436 -1.5283  0.5893  0.1420
 4758SOL     OW15019   4.753   4.193   4.865 -0.4702 -0.6108  0.2946
 4758SOL    HW115020   4.823   4.220   4.924 -1.1322 -0.6378  1.1092
 4758SOL    HW215021   4.676   4.182   4.922 -1.2123 -0.2787 -0.6212
 4759SOL     OW15022   1.909   1.597   2.352  0.2190  0.3500 -0.3066
 4759SOL    HW115023   1.862   1.543   2.416 -0.1419 -1.4451 -1.9970
 4759SOL    HW215024   1.946   1.669   2.404  1.9448 -2.2244  2.3634
 4760SOL     OW15025   1.103   5.102   2.852  0.3410  0.0574 -1.0018
 4760SOL    HW115026   1.107   5.037   2.921  0.4248  0.7890 -0.2987
 4760SOL    HW215027   1.187   5.097   2.807 -0.2961 -1.5130 -2.0904
 4761SOL     OW15028   4.601   4.594   3.481  0.8322  0.2539 -0.4710
 4761SOL    HW115029   4.676   4.549   3.443  0.6645 -2.1271  1.7270
 4761SOL    HW215030   4.531   4.586   3.416  1.3430 -1.1027 -0.8652
 4762SOL     OW15031   0.366   3.853   0.182  0.1585 -0.3321 -0.2929
 4762SOL    HW115032   0.319   3.846   0.265  0.3952 -0.7046 -0.1867
 4762SOL    HW215033   0.300   3.885   0.120 -0.3422 -1.1990 -0.2281
 4763SOL     OW15034   5.741   5.253   4.530 -0.1990  0.2652 -0.4613
 4763SOL    HW115035   5.728   5.255   4.435 -0.4752  2.1055 -0.4166
 4763SOL    HW215036   5.815   5.195   4.543 -0.5360 -0.4972 -1.7510
 4764SOL     OW15037   4.397   3.078   0.200  0.2875  0.4498  0.0328
 4764SOL    HW115038   4.316   3.031   0.218 -0.1738  0.2617 -2.1863
 4764SOL    HW215039   4.465   3.011   0.204  0.0080  0.1358 -0.3733
 4765SOL     OW15040   0.712   5.392   1.255 -0.0157  0.1474 -0.6474
 4765SOL    HW115041   0.781   5.399   1.321  0.9290  1.3950 -1.7085
 4765SOL    HW215042   0.760   5.385   1.172 -1.1518 -1.8607 -1.1977
 4766SOL     OW15043   4.714   1.240   5.791  0.3006  0.5212 -0.5936
 4766SOL    HW115044   4.709   1.324   5.836  0.9778  0.9715 -1.3255
 4766SOL    HW215045   4.755   1.181   5.855 -2.4907  0.0013  0.8973
 4767SOL     OW15046   3.874   1.376   4.250  0.4550 -0.2745  0.2343
 4767SOL    HW115047   3.857   1.437   4.179 -0.5807 -0.2613  0.4724
 4767SOL    HW215048   3.872   1.430   4.329  1.0194 -0.3818  0.3243
 4768SOL     OW15049   1.855   1.247   4.941 -0.0623 -0.4898  0.3484
 4768SOL    HW115050   1.928   1.246   4.879 -0.6347 -0.8550 -0.3230
 4768SOL    HW215051   1.895   1.223   5.025  0.9191  1.0269  0.3723
 4769SOL     OW15052   5.018   5.917   0.990 -0.0100 -0.3212 -0.3521
 4769SOL    HW115053   4.998   5.992   0.935 -2.1238 -1.9037 -1.9110
 4769SOL    HW215054   4.996   5.946   1.079  0.6157  1.3404 -0.7088
 4770SOL     OW15055   0.213   2.550   2.379 -0.3022  0.2533  0.2687
 4770SOL    HW115056   0.196   2.490   2.307 -0.9807  1.5572 -0.7044
 4770SOL    HW215057   0.155   2.625   2.362 -0.0885  0.8242  1.8774
 4771SOL     OW15058   2.163   0.387   1.233 -0.6360  0.1687 -0.2549
 4771SOL    HW115059   2.194   0.326   1.300  1.9350  1.0739 -0.5222
 4771SOL    HW215060   2.132   0.463   1.282  2.0903  1.2211  0.0340
 4772SOL     OW15061   3.244   6.216   4.739  0.1723  0.6364  0.2114
 4772SOL    HW115062   3.218   6.179   4.823  1.7899  0.6446  0.7494
 4772SOL    HW215063   3.339   6.229   4.746  0.2760  1.0772 -1.4429
 4773SOL     OW15064   2.667   4.056   0.997  0.4719  0.8070 -0.6563
 4773SOL    HW115065   2.736   4.087   0.938  0.6077 -0.6909 -1.3367
 4773SOL    HW215066   2.645   3.969   0.964 -1.5205  1.1037 -0.2498
 4774SOL     OW15067   0.935   3.365   5.886  0.1408 -0.4325  0.5853
 4774SOL    HW115068   0.977   3.283   5.911  2.2578  0.3662 -0.1619
 4774SOL    HW215069   0.896   3.398   5.967  1.5574 -0.8762  1.4724
 4775SOL     OW15070   1.688   6.168   3.833 -0.3570  0.4868 -0.1048
 4775SOL    HW115071   1.782   6.182   3.824  0.6041 -3.3866  1.7289
 4775SOL    HW215072   1.651   6.194   3.749  2.3575  1.7877 -1.0085
 4776SOL     OW15073   0.451   5.278   2.035 -0.0808 -0.0296 -0.4329
 4776SOL    HW115074   0.540   5.273   1.999 -0.7129  0.2858 -2.1396
 4776SOL    HW215075   0.415   5.359   1.999 -0.2386  1.2087  2.3002
 4777SOL     OW15076   6.130   6.148   5.078  0.1738  0.2030  0.1109
 4777SOL    HW115077   6.086   6.213   5.133  0.0831 -1.0964  1.6703
 4777SOL    HW215078   6.063   6.082   5.059  0.7368 -0.4114  0.2090
 4778SOL     OW15079   2.008   3.644   4.959  0.5969  0.4983  0.1279
 4778SOL    HW115080   2.025   3.665   4.867  1.6703 -0.5697  0.0587
 4778SOL    HW215081   2.088   3.669   5.005  0.1231  0.8874  0.7693
 4779SOL     OW15082   4.049   4.282   3.868 -0.0978  0.0714 -0.6026
 4779SOL    HW115083   4.033   4.189   3.884  0.0699  0.2524  0.6837
 4779SOL    HW215084   4.140   4.296   3.897  0.2750  0.4050 -1.8531
 4780SOL     OW15085   4.242   0.613   6.159  0.0877  0.0673  0.0549
 4780SOL    HW115086   4.286   0.625   6.074  1.3010  1.7952  0.8763
 4780SOL    HW215087   4.155   0.651   6.147  1.0953  2.6441  0.2233
 4781SOL     OW15088   1.596   5.514   3.159 -0.0320  0.4849 -0.1826
 4781SOL    HW115089   1.641   5.429   3.164 -0.8879 -0.0026 -0.5025
 4781SOL    HW215090   1.583   5.528   3.065  3.1507  2.6496 -0.4485
 4782SOL     OW15091   0.883   6.248   3.023 -0.1110 -0.3271 -0.1859
 4782SOL    HW115092   0.911   6.320   2.967 -1.8414  0.8970  0.4514
 4782SOL    HW215093   0.963   6.219   3.067  1.0003 -0.2683 -2.0460
 4783SOL     OW15094   0.920   3.602   0.919 -0.4556  0.7230 -0.6766
 4783SOL    HW115095   1.004   3.622   0.960 -0.4518 -0.0263 -0.2954
 4783SOL    HW215096   0.936   3.611   0.825 -0.3288  1.9515 -0.5491
 4784SOL     OW15097   4.113   4.714   3.252 -0.1780  0.4371  0.2116
 4784SOL    HW115098   4.137   4.623   3.233 -3.0958 -0.1926 -1.0006
 4784SOL    HW215099   4.110   4.719   3.347 -1.2655 -1.1612  0.2999
 4785SOL     OW15100   1.125   5.424   2.391 -0.1453 -0.1468 -0.1928
 4785SOL    HW115101   1.178   5.445   2.468 -0.0096 -0.6670 -0.1436
 4785SOL    HW215102   1.128   5.329   2.385  0.3456 -0.0777 -1.1950
 4786SOL     OW15103   4.357   6.254   4.072 -0.4096  0.3961  0.0153
 4786SOL    HW115104   4.262   6.257   4.080 -0.4268  2.0786 -0.3312
 4786SOL    HW215105   4.377   6.162   4.057 -2.0104  0.0492 -0.2346
 4787SOL     OW15106   2.379   5.912   0.336 -0.3424  0.3687  0.3077
 4787SOL    HW115107   2.393   5.833   0.284 -0.6744 -0.0608  0.8415
 4787SOL    HW215108   2.378   5.983   0.273  0.1621 -0.0332 -0.1641
 4788SOL     OW15109   0.358   4.734   5.063  0.0565  0.3314  0.5920
 4788SOL    HW115110   0.291   4.671   5.038  0.3765 -0.4414  1.6328
 4788SOL    HW215111   0.383   4.776   4.980 -1.4761  0.4175  0.1541
 4789SOL     OW15112   3.176   2.266   5.632  0.6676 -0.4320 -0.2754
 4789SOL    HW115113   3.144   2.356   5.638  3.1208  0.4553  1.3149
 4789SOL    HW215114   3.221   2.262   5.548  1.0244  0.0249 -0.1100
 4790SOL     OW15115   3.960   3.098   4.633  0.2666  0.2434 -0.0852
 4790SOL    HW115116   3.867   3.086   4.651  0.1213  1.2214 -0.1329
 4790SOL    HW215117   3.968   3.084   4.538 -0.0899  1.5822 -0.3289
 4791SOL     OW15118   5.670   5.037   0.794  0.1135 -0.4172  0.0343
 4791SOL    HW115119   5.697   5.107   0.734  0.7228  0.1924  1.0007
 4791SOL    HW215120   5.751   4.993   0.818  0.1620  0.5938  1.9347
 4792SOL     OW15121   2.319   0.645   1.224 -0.2317 -0.3630  0.1023
 4792SOL    HW115122   2.383   0.594   1.273 -1.6145 -1.1922  1.1236
 4792SOL    HW215123   2.235   0.628   1.267 -0.9336  1.9625 -0.1573
 4793SOL     OW15124   5.865   3.117   4.943 -0.3022 -0.0462 -0.0668
 4793SOL    HW115125   5.827   3.191   4.896 -0.7367 -0.2483 -0.0391
 4793SOL    HW215126   5.959   3.136   4.946 -0.2874  0.0378 -0.8896
 4794SOL     OW15127   3.691   0.958   0.856 -0.2123 -0.0285 -0.3371
 4794SOL    HW115128   3.692   1.033   0.916 -1.4456 -1.0386  1.0073
 4794SOL    HW215129   3.711   0.996   0.770 -0.9400  1.8614  0.2800
 4795SOL     OW15130   4.683   0.231   4.882 -0.0109 -0.2478 -0.1743
 4795SOL    HW115131   4.706   0.146   4.846 -1.7182 -0.7250 -0.2361
 4795SOL    HW215132   4.758   0.257   4.935  0.4336 -1.8944  0.0379
 4796SOL     OW15133   4.128   2.886   1.380 -0.1632 -0.1331 -0.2866
 4796SOL    HW115134   4.220   2.908   1.391  0.1320 -1.4689  0.0434
 4796SOL    HW215135   4.126   2.790   1.375 -1.7070 -0.2624  1.6364
 4797SOL     OW15136   2.495   1.577   6.119 -0.1278  0.3094  0.2529
 4797SOL    HW115137   2.400   1.590   6.125 -0.6064 -1.3991 -2.0105
 4797SOL    HW215138   2.513   1.578   6.025  2.2913  1.5002  0.6606
 4798SOL     OW15139   5.113   3.821   3.134 -0.0326 -0.1281  0.2369
 4798SOL    HW115140   5.037   3.810   3.192 -0.0232  1.4320  0.5973
 4798SOL    HW215141   5.147   3.907   3.156  2.2382 -1.0332  0.5073
 4799SOL     OW15142   2.422   5.482   2.419 -0.0695 -0.0511  0.4227
 4799SOL    HW115143   2.336   5.524   2.425  0.2472  0.8254 -0.6973
 4799SOL    HW215144   2.478   5.549   2.381  0.4501 -1.4731 -1.4935
 4800SOL     OW15145   4.495   6.255   1.767 -0.2988  0.0086  0.5886
 4800SOL    HW115146   4.445   6.246   1.686  0.5735 -1.5913  0.1886
 4800SOL    HW215147   4.505   6.350   1.779 -2.0957  0.3284 -0.1034
 4801SOL     OW15148   4.813   6.204   2.844 -0.2565 -0.1142 -0.6202
 4801SOL    HW115149   4.793   6.269   2.911 -0.7534 -1.9497  1.0889
 4801SOL    HW215150   4.727   6.174   2.813 -0.0321  0.1362 -1.5241
 4802SOL     OW15151   2.457   5.329   2.186 -0.3715 -0.1157  0.0477
 4802SOL    HW115152   2.427   5.377   2.262 -0.8411 -0.0537 -0.1727
 4802SOL    HW215153   2.473   5.240   2.218  2.0587  0.5159  0.8265
 4803SOL     OW15154   1.057   2.141   5.384  0.0071  0.4142  0.3821
 4803SOL    HW115155   1.014   2.222   5.356 -2.5217 -0.1770  2.2012
 4803SOL    HW215156   1.083   2.159   5.474 -1.4412 -1.0231  1.1422
 4804SOL     OW15157   3.616   4.929   1.608 -0.1045 -0.7310 -0.3327
 4804SOL    HW115158   3.696   4.971   1.579 -0.0591 -1.0979 -0.7484
 4804SOL    HW215159   3.641   4.838   1.626  0.4600 -0.0385  3.2633
 4805SOL     OW15160   2.335   1.654   1.547 -0.1156 -0.3284 -0.6054
 4805SOL    HW115161   2.429   1.639   1.553  0.2882  2.0115 -0.1868
 4805SOL    HW215162   2.324   1.748   1.564 -2.6511 -0.7575  0.5903
 4806SOL     OW15163   0.331   3.546   4.720 -0.5878  0.4835  0.0369
 4806SOL    HW115164   0.340   3.534   4.625  1.7288 -0.1384  0.2706
 4806SOL    HW215165   0.385   3.623   4.740 -2.1684  1.4542  0.7058
 4807SOL     OW15166   5.468   2.267   1.431 -0.5098  0.4474 -0.0918
 4807SOL    HW115167   5.500   2.279   1.342 -0.5793  1.3172 -0.0065
 4807SOL    HW215168   5.374   2.281   1.425 -0.3056  2.2851  0.3980
 4808SOL     OW15169   4.858   1.597   4.209 -0.2292  0.3469  0.5842
 4808SOL    HW115170   4.793   1.527   4.205 -0.3125  0.4102  0.8236
 4808SOL    HW215171   4.844   1.638   4.295  0.1910  0.2958  0.6797
 4809SOL     OW15172   3.006   2.038   6.191  0.1195 -0.3974 -0.1029
 4809SOL    HW115173   2.981   1.946   6.191  0.1170 -0.4445 -2.1048
 4809SOL    HW215174   2.990   2.067   6.102  1.6865  1.1074  0.0499
 4810SOL     OW15175   2.443   3.550   5.158 -0.7789  0.6199 -0.4399
 4810SOL    HW115176   2.511   3.483   5.145 -0.5568  0.8611 -0.5353
 4810SOL    HW215177   2.480   3.609   5.223 -0.7508  0.9438 -0.7426
 4811SOL     OW15178   5.042   2.924   4.490  0.3639 -0.2290 -0.3083
 4811SOL    HW115179   5.117   2.864   4.493  0.5165 -0.0023  0.5154
 4811SOL    HW215180   5.073   2.998   4.438 -0.3300 -1.5184 -2.7101
 4812SOL     OW15181   3.868   2.873   5.165  0.3742 -0.6932 -0.1013
 4812SOL    HW115182   3.855   2.914   5.079 -0.2998  1.0675  0.7791
 4812SOL    HW215183   3.933   2.805   5.149  1.1629  0.3594 -1.7955
 4813SOL     OW15184   5.854   5.086   2.386 -0.1854 -0.2881  0.1074
 4813SOL    HW115185   5.801   5.010   2.410  0.5447 -0.2785  1.9485
 4813SOL    HW215186   5.814   5.159   2.433  0.9957 -0.1612  0.9753
 4814SOL     OW15187   3.039   0.360   2.872  0.4394  0.0940  0.1187
 4814SOL    HW115188   2.975   0.407   2.925 -0.0650  0.3155 -0.6621
 4814SOL    HW215189   3.078   0.296   2.931 -1.8020 -1.3114  0.1902
 4815SOL     OW15190   1.874   4.623   0.632  0.0763 -0.4224  0.0964
 4815SOL    HW115191   1.940   4.559   0.660  1.6928  0.8855 -0.5835
 4815SOL    HW215192   1.854   4.598   0.542 -0.0058 -0.5146  0.1390
 4816SOL     OW15193   2.867   2.558   4.611  0.0783 -0.4332 -0.2388
 4816SOL    HW115194   2.784   2.511   4.604 -0.4332  0.2189  0.9740
 4816SOL    HW215195   2.908   2.522   4.690  0.6591 -0.3260 -0.4884
 4817SOL     OW15196   5.444   6.044   2.552 -0.1347 -0.4972 -0.0929
 4817SOL    HW115197   5.429   6.134   2.582  0.5027 -0.4447  0.0797
 4817SOL    HW215198   5.518   6.014   2.605  1.3249 -0.2604 -1.9246
 4818SOL     OW15199   5.984   6.197   4.646 -0.1310 -0.1816  0.2662
 4818SOL    HW115200   6.061   6.254   4.641 -1.4230  1.5691 -0.9209
 4818SOL    HW215201   6.018   6.113   4.677  2.3301  0.3849 -0.6512
 4819SOL     OW15202   3.844   3.738   0.242  0.0931  0.9168  0.0500
 4819SOL    HW115203   3.814   3.725   0.152  1.1270  1.7087 -0.4391
 4819SOL    HW215204   3.765   3.730   0.295 -1.4124  4.6185 -1.2884
 4820SOL     OW15205   0.617   3.719   1.936 -0.0973 -0.6046 -0.0042
 4820SOL    HW115206   0.570   3.765   1.867  1.0103  0.8361  0.1662
 4820SOL    HW215207   0.561   3.644   1.956 -2.5838  1.2364  0.4974
 4821SOL     OW15208   2.232   5.013   3.369 -0.0030  0.4183  0.0939
 4821SOL    HW115209   2.203   4.973   3.451  0.5741  1.2718  0.7421
 4821SOL    HW215210   2.171   5.085   3.355 -0.6011 -0.2309 -0.6766
 4822SOL     OW15211   5.651   3.838   0.509 -0.0962 -0.1761 -0.8920
 4822SOL    HW115212   5.595   3.914   0.521  0.5354  0.0320  1.2713
 4822SOL    HW215213   5.591   3.763   0.506 -0.5742 -0.0682  2.4751
 4823SOL     OW15214   0.642   2.824   5.645 -0.5075  0.9784 -0.5735
 4823SOL    HW115215   0.720   2.797   5.596  0.1728 -0.4354  1.1687
 4823SOL    HW215216   0.581   2.854   5.578  0.7877  0.2289 -2.1661
 4824SOL     OW15217   1.486   3.553   5.947  0.5619  0.3763  0.0734
 4824SOL    HW115218   1.411   3.556   5.887 -0.3573  0.1899  1.1704
 4824SOL    HW215219   1.514   3.462   5.948 -0.2112  0.1302  0.8331
 4825SOL     OW15220   3.630   1.612   3.841 -0.3248  0.4646  0.5422
 4825SOL    HW115221   3.591   1.546   3.784 -0.2097  0.6209  0.2810
 4825SOL    HW215222   3.636   1.691   3.786 -1.2720  0.9501  1.1113
 4826SOL     OW15223   1.262   4.845   4.249 -0.1512  0.2383  0.0680
 4826SOL    HW115224   1.219   4.848   4.164 -0.0324  0.5917  0.0196
 4826SOL    HW215225   1.258   4.935   4.282 -1.6014 -0.1742  1.1480
 4827SOL     OW15226   2.649   1.265   6.021 -0.7353 -0.0482 -0.0782
 4827SOL    HW115227   2.590   1.248   6.094 -1.6832 -0.8513 -0.9834
 4827SOL    HW215228   2.591   1.294   5.950  0.1763  0.8868 -0.4694
 4828SOL     OW15229   1.585   3.908   0.028 -0.4766  0.3575  0.0151
 4828SOL    HW115230   1.654   3.852   0.062  1.0539  0.5883 -2.4870
 4828SOL    HW215231   1.550   3.859  -0.047 -2.2011  0.8121  0.4868
 4829SOL     OW15232   5.332   4.199   3.884  0.1674 -0.0041 -0.3919
 4829SOL    HW115233   5.392   4.135   3.846  0.7423 -0.5877  1.3588
 4829SOL    HW215234   5.274   4.146   3.939  0.8454  0.9663  1.3329
 4830SOL     OW15235   4.598   4.271   5.130  0.0152  0.0827  0.2882
 4830SOL    HW115236   4.615   4.360   5.102  0.0217  0.2624  0.8523
 4830SOL    HW215237   4.641   4.263   5.215 -0.6585 -0.2059  0.6137
 4831SOL     OW15238   2.433   5.210   3.382  0.4225  0.2158  0.3525
 4831SOL    HW115239   2.367   5.142   3.365 -0.4147  1.1012 -0.0188
 4831SOL    HW215240   2.402   5.253   3.462  0.1378  1.1120 -0.2279
 4832SOL     OW15241   2.179   2.653   1.580  0.4420 -0.2542 -0.1553
 4832SOL    HW115242   2.085   2.639   1.567  0.3841  0.3711 -0.4305
 4832SOL    HW215243   2.184   2.730   1.638  0.7949  0.0723 -0.6136
 4833SOL     OW15244   3.460   0.875   3.096  0.0552 -0.3221  0.0599
 4833SOL    HW115245   3.524   0.831   3.041  0.3049 -0.1200  0.1838
 4833SOL    HW215246   3.510   0.903   3.173 -0.1469 -0.0267  0.0862
 4834SOL     OW15247   2.516   3.076   0.735 -0.1812 -0.5890 -0.2543
 4834SOL    HW115248   2.579   3.147   0.722  0.0341 -0.8555 -0.6960
 4834SOL    HW215249   2.468   3.100   0.814 -0.3753  0.2477 -0.6129
 4835SOL     OW15250   4.551   0.851   3.428 -0.4924 -0.1549 -0.3630
 4835SOL    HW115251   4.555   0.756   3.416 -1.6616 -0.2945  0.2005
 4835SOL    HW215252   4.459   0.869   3.445 -0.1810  1.0114  0.1805
 4836SOL     OW15253   1.831   4.726   5.255 -0.0472 -0.3803 -0.2688
 4836SOL    HW115254   1.762   4.662   5.269  0.8244 -0.7637  2.9387
 4836SOL    HW215255   1.792   4.809   5.283  0.1667 -0.2343 -0.4008
 4837SOL     OW15256   1.592   0.355   3.684  0.3707  0.1548  0.2877
 4837SOL    HW115257   1.584   0.340   3.778  0.6676  0.5669  0.3792
 4837SOL    HW215258   1.636   0.276   3.652 -1.0034 -0.6327  0.2706
 4838SOL     OW15259   4.605   5.876   0.183  0.0507 -0.4864  0.2058
 4838SOL    HW115260   4.615   5.965   0.149 -0.4386  0.3158  2.0428
 4838SOL    HW215261   4.624   5.820   0.108  2.0936  1.1109 -0.5868
 4839SOL     OW15262   5.347   1.681   3.443 -1.0255  0.1559  0.3912
 4839SOL    HW115263   5.269   1.625   3.441 -1.1033  0.2343  1.0058
 4839SOL    HW215264   5.364   1.694   3.537  1.2487 -1.9685  0.3791
 4840SOL     OW15265   4.230   4.354   0.788 -0.1519 -0.3353  0.2571
 4840SOL    HW115266   4.288   4.411   0.737  1.1565 -0.1399  1.8640
 4840SOL    HW215267   4.284   4.325   0.861 -1.6439 -1.4320  0.9723
 4841SOL     OW15268   5.331   0.361   6.232  0.0857  0.4027 -0.1156
 4841SOL    HW115269   5.378   0.365   6.148 -0.3771 -0.3089 -0.4251
 4841SOL    HW215270   5.399   0.339   6.296 -0.0574 -2.9519 -0.8872
 4842SOL     OW15271   0.142   4.184   1.367 -0.4700  0.0446 -0.3562
 4842SOL    HW115272   0.063   4.162   1.316 -1.0731 -1.5378  1.1602
 4842SOL    HW215273   0.109   4.203   1.455  0.9289 -3.8698  1.2557
 4843SOL     OW15274   5.806   4.658   1.614 -0.4535 -0.3718  0.0516
 4843SOL    HW115275   5.799   4.563   1.623 -2.7868 -0.2557  0.0447
 4843SOL    HW215276   5.883   4.682   1.666 -1.2939 -1.9909  2.1651
 4844SOL     OW15277   0.515   2.660   2.899 -0.6700 -0.5127 -0.4925
 4844SOL    HW115278   0.422   2.682   2.895 -1.1294 -1.7177  1.8456
 4844SOL    HW215279   0.517   2.566   2.916  0.8997 -0.2127  1.3145
 4845SOL     OW15280   3.766   2.848   1.789 -0.5352  0.1309 -0.9832
 4845SOL    HW115281   3.754   2.942   1.801 -0.8110  0.1624 -1.4911
 4845SOL    HW215282   3.705   2.808   1.851 -0.5308  0.2836 -0.8794
 4846SOL     OW15283   1.309   6.131   4.216  0.0846 -0.3900  0.3746
 4846SOL    HW115284   1.375   6.152   4.150 -1.8866  2.3174 -0.9336
 4846SOL    HW215285   1.252   6.067   4.174 -1.7396  2.0426 -1.1561
 4847SOL     OW15286   2.268   5.237   5.937  0.1596 -0.4584  0.1045
 4847SOL    HW115287   2.327   5.166   5.963 -0.2707 -0.3042  1.6316
 4847SOL    HW215288   2.315   5.317   5.958  0.0178 -0.3194 -0.1097
 4848SOL     OW15289   4.306   0.548   4.556  0.5841  0.0742 -0.1544
 4848SOL    HW115290   4.225   0.569   4.603  1.1937  1.8313  0.1977
 4848SOL    HW215291   4.283   0.558   4.464  0.4939  0.9911 -0.0414
 4849SOL     OW15292   0.362   5.645   3.279  0.2252 -0.1772 -0.0542
 4849SOL    HW115293   0.437   5.656   3.221  0.2719  1.1260  0.2176
 4849SOL    HW215294   0.377   5.709   3.350 -1.5200  0.7055 -0.4169
 4850SOL     OW15295   3.237   3.728   5.542  0.0042 -0.2182  0.2102
 4850SOL    HW115296   3.233   3.794   5.611  0.7228 -0.6198  0.6428
 4850SOL    HW215297   3.167   3.666   5.563 -1.6786  1.1554 -1.0157
 4851SOL     OW15298   2.718   0.765   3.213  0.0907  0.4989  0.2133
 4851SOL    HW115299   2.697   0.707   3.140 -1.3234  0.0146  0.9678
 4851SOL    HW215300   2.807   0.739   3.239 -0.2972 -0.9562  0.1763
 4852SOL     OW15301   1.790   3.613   5.980 -0.3040 -0.7061 -0.0366
 4852SOL    HW115302   1.822   3.693   5.941 -1.7735 -0.7362 -1.3952
 4852SOL    HW215303   1.703   3.601   5.943 -0.0379 -3.0505 -0.0505
 4853SOL     OW15304   3.290   5.624   0.915 -0.0275  0.0708 -0.5863
 4853SOL    HW115305   3.218   5.583   0.963 -0.0693  2.1969  1.3329
 4853SOL    HW215306   3.256   5.709   0.890  0.7602 -0.1577 -2.5905
 4854SOL     OW15307   3.071   2.517   5.718 -0.2349  0.1370  0.0154
 4854SOL    HW115308   3.090   2.502   5.811 -1.5119 -0.7001  0.1731
 4854SOL    HW215309   3.153   2.551   5.682  0.7301 -0.8793  1.1443
 4855SOL     OW15310   1.121   5.390   2.920 -0.3913  0.2385 -0.5345
 4855SOL    HW115311   1.132   5.305   2.879 -2.4188  0.2882 -1.2741
 4855SOL    HW215312   1.081   5.371   3.005  1.7751  0.2980  0.5664
 4856SOL     OW15313   0.193   1.696   4.545 -0.3218  0.3938  0.0858
 4856SOL    HW115314   0.278   1.727   4.577  1.7138 -2.0771 -2.4119
 4856SOL    HW215315   0.172   1.756   4.473  0.7456 -0.5496 -1.0520
 4857SOL     OW15316   1.679   0.210   2.837 -0.1745 -0.0494  0.0668
 4857SOL    HW115317   1.702   0.126   2.797  0.1649  0.4167 -0.7254
 4857SOL    HW215318   1.751   0.228   2.898 -0.4864 -0.5559  0.6020
 4858SOL     OW15319   0.698   2.131   4.172 -0.1395 -0.7912 -0.0031
 4858SOL    HW115320   0.755   2.193   4.128 -1.2801 -0.0779 -0.5443
 4858SOL    HW215321   0.630   2.111   4.107 -0.0513 -2.2524  0.3226
 4859SOL     OW15322   2.906   0.513   0.243 -0.2035  0.4443 -0.1305
 4859SOL    HW115323   2.872   0.600   0.262 -0.3277 -0.0709  2.3363
 4859SOL    HW215324   2.850   0.453   0.293  0.4214 -0.9876 -1.0602
 4860SOL     OW15325   5.541   2.352   4.164  0.4560  0.5597  0.1517
 4860SOL    HW115326   5.556   2.339   4.257  1.3561  1.8524  0.2132
 4860SOL    HW215327   5.560   2.267   4.124 -1.9697 -0.6385  1.3084
 4861SOL     OW15328   5.910   0.622   3.121 -0.0046  0.2520  0.3399
 4861SOL    HW115329   5.848   0.652   3.055 -1.0500 -1.0902  0.6753
 4861SOL    HW215330   5.879   0.662   3.203  1.7057  2.5090 -0.0067
 4862SOL     OW15331   0.146   4.903   1.039  0.0879  0.5565  0.1497
 4862SOL    HW115332   0.176   4.814   1.054  0.8107  1.1371  2.5080
 4862SOL    HW215333   0.052   4.900   1.061  0.1800  0.4363  0.5375
 4863SOL     OW15334   4.390   0.939   1.965  0.2519 -0.0914  0.2257
 4863SOL    HW115335   4.441   0.980   1.895 -0.6109  0.9856  0.1896
 4863SOL    HW215336   4.447   0.943   2.042  1.0080 -0.8163 -0.2902
 4864SOL     OW15337   3.525   5.311   5.214 -0.4313  0.0827 -0.1865
 4864SOL    HW115338   3.587   5.239   5.228 -1.0520 -0.3330  0.5152
 4864SOL    HW215339   3.525   5.357   5.298 -0.0420  0.9068 -0.6347
 4865SOL     OW15340   2.963   2.191   3.405  0.2195  0.3207  0.1270
 4865SOL    HW115341   2.975   2.136   3.328 -0.1157  0.6607 -0.1788
 4865SOL    HW215342   2.927   2.132   3.472 -0.8135  0.3076 -0.4191
 4866SOL     OW15343   1.579   0.787   6.112  0.2035  0.4253  0.2979
 4866SOL    HW115344   1.582   0.801   6.206 -1.6466 -0.4454  0.5382
 4866SOL    HW215345   1.621   0.702   6.099 -0.4833  0.0496  0.4860
 4867SOL     OW15346   3.954   4.036   0.503 -0.4422  0.3615 -0.4793
 4867SOL    HW115347   4.040   4.056   0.541 -0.3123 -0.3764 -0.3611
 4867SOL    HW215348   3.891   4.062   0.571 -0.2838  0.4472 -0.3637
 4868SOL     OW15349   4.611   1.673   2.721 -0.3827  0.7077  0.2563
 4868SOL    HW115350   4.678   1.632   2.666 -0.6949  0.0849  0.3328
 4868SOL    HW215351   4.651   1.678   2.808 -2.4451 -5.5457  2.0956
 4869SOL     OW15352   2.158   2.121   3.087  0.1360  0.1955 -0.9256
 4869SOL    HW115353   2.114   2.140   3.170  1.1460  0.1162 -0.3649
 4869SOL    HW215354   2.113   2.177   3.023 -1.8626 -1.0218 -0.6968
 4870SOL     OW15355   5.133   0.802   3.731  0.2408  0.1858  0.2483
 4870SOL    HW115356   5.093   0.720   3.762  0.2756  0.0558 -0.0438
 4870SOL    HW215357   5.079   0.827   3.656  1.2453 -0.4809 -0.7176
 4871SOL     OW15358   6.113   2.437   4.217  0.4124 -0.1280 -0.0821
 4871SOL    HW115359   6.169   2.393   4.281  1.5188  0.9581 -0.2459
 4871SOL    HW215360   6.141   2.401   4.133  1.0487  0.5716 -0.1830
 4872SOL     OW15361   1.216   5.721   3.412  0.1298  0.3150 -0.2423
 4872SOL    HW115362   1.238   5.776   3.487 -0.3433  0.2816 -0.0754
 4872SOL    HW215363   1.300   5.685   3.383  0.4354  1.1120 -0.3463
 4873SOL     OW15364   1.025   4.848   5.061  0.2927 -0.3105  0.3469
 4873SOL    HW115365   1.110   4.867   5.100  0.1421 -1.5018  1.3299
 4873SOL    HW215366   0.999   4.764   5.100 -0.7208 -0.6325 -0.9480
 4874SOL     OW15367   3.260   4.406   0.272 -0.1831  0.1092  0.4190
 4874SOL    HW115368   3.172   4.409   0.310 -0.9187  0.6810 -1.2586
 4874SOL    HW215369   3.299   4.491   0.295  0.2908 -0.4724  1.8973
 4875SOL     OW15370   4.012   5.482   2.880  0.1583 -0.3377 -0.2131
 4875SOL    HW115371   4.083   5.448   2.825  0.2519  0.6762 -0.7478
 4875SOL    HW215372   4.047   5.564   2.916 -0.0655 -0.7549  1.0204
 4876SOL     OW15373   3.205   0.886   4.458  0.3285 -0.0931 -0.4558
 4876SOL    HW115374   3.217   0.980   4.457  0.2208 -0.0325  1.0976
 4876SOL    HW215375   3.265   0.855   4.527 -0.1199 -1.0763 -0.4929
 4877SOL     OW15376   3.315   3.939   4.809 -0.4534 -0.1039 -0.9020
 4877SOL    HW115377   3.310   4.034   4.825  1.0140 -0.1311 -0.0878
 4877SOL    HW215378   3.264   3.900   4.880  0.7152  0.0247  0.0426
 4878SOL     OW15379   6.129   4.455   1.330  0.1995 -0.0000  0.5312
 4878SOL    HW115380   6.091   4.486   1.248  1.8008 -0.2908 -0.3538
 4878SOL    HW215381   6.188   4.525   1.357  0.6464 -0.4598  0.7574
 4879SOL     OW15382   4.659   0.371   1.195 -0.0679 -0.4355 -0.4430
 4879SOL    HW115383   4.702   0.339   1.115  1.8756  0.9137 -0.0074
 4879SOL    HW215384   4.566   0.365   1.176  0.3217  0.7766 -3.2209
 4880SOL     OW15385   3.953   1.353   3.352  0.1032 -0.7000 -0.1735
 4880SOL    HW115386   3.964   1.401   3.270  0.3760 -0.5942 -0.0758
 4880SOL    HW215387   4.002   1.405   3.417 -2.2793  0.7214  0.6293
 4881SOL     OW15388   0.788   1.569   5.114  0.0514 -0.4539 -0.6090
 4881SOL    HW115389   0.770   1.505   5.045 -1.2082  0.1145 -0.8367
 4881SOL    HW215390   0.703   1.609   5.132  0.2546 -0.9445  1.6422
 4882SOL     OW15391   1.163   2.826   5.536 -0.1310 -0.4986  0.3081
 4882SOL    HW115392   1.257   2.847   5.543 -0.1215 -0.6542  0.6794
 4882SOL    HW215393   1.147   2.765   5.608 -0.8934  0.8228  1.3040
 4883SOL     OW15394   1.639   1.897   3.649  0.3881  0.7958 -0.1070
 4883SOL    HW115395   1.665   1.944   3.729  0.9447  2.1251 -1.0379
 4883SOL    HW215396   1.720   1.859   3.616 -0.0555 -0.9082  0.6364
 4884SOL     OW15397   2.582   5.112   6.203  0.6322 -0.0940  0.1327
 4884SOL    HW115398   2.506   5.126   6.260  0.1683  0.0690 -0.5024
 4884SOL    HW215399   2.583   5.018   6.187  0.6204 -0.1102  0.2299
 4885SOL     OW15400   5.784   4.343   6.141  0.2602 -0.3268  0.1935
 4885SOL    HW115401   5.863   4.290   6.130  0.1030 -1.1128  2.4148
 4885SOL    HW215402   5.759   4.367   6.052  3.0803  0.1054 -0.5606
 4886SOL     OW15403   5.491   0.774   0.937 -0.6145 -0.0037  0.4232
 4886SOL    HW115404   5.552   0.848   0.936 -1.4580  0.7053  0.2410
 4886SOL    HW215405   5.502   0.732   0.852  1.8952 -1.8295  1.5180
 4887SOL     OW15406   0.571   0.662   5.985  0.5098  0.4004 -0.4036
 4887SOL    HW115407   0.652   0.617   5.961 -0.2531 -0.8544 -0.6634
 4887SOL    HW215408   0.508   0.592   6.003 -0.3633  1.3519  0.3557
 4888SOL     OW15409   0.203   0.771   5.277  0.4814 -0.3144  0.3356
 4888SOL    HW115410   0.263   0.790   5.204 -3.0141  2.7431 -2.1411
 4888SOL    HW215411   0.157   0.691   5.251  0.4366 -0.1847  0.0106
 4889SOL     OW15412   2.191   5.047   3.062 -0.1531  0.3503  0.2755
 4889SOL    HW115413   2.230   5.052   3.149 -0.5253  0.4880  0.4392
 4889SOL    HW215414   2.153   4.960   3.058 -0.6591  0.5583  0.4818
 4890SOL     OW15415   1.296   1.624   2.610 -0.2530  0.7534 -0.3578
 4890SOL    HW115416   1.297   1.554   2.675 -0.4695  1.6381  0.6424
 4890SOL    HW215417   1.210   1.664   2.619 -0.2660  0.9096 -1.1662
 4891SOL     OW15418   3.096   0.713   3.934 -0.0709 -0.4673 -0.2716
 4891SOL    HW115419   3.188   0.707   3.957 -0.0472  3.1073  1.0940
 4891SOL    HW215420   3.050   0.668   4.005  0.5292 -1.5144 -0.5268
 4892SOL     OW15421   0.681   4.306   5.076  0.5079 -0.1010 -0.2756
 4892SOL    HW115422   0.651   4.264   5.157  0.0008  0.9888  0.1306
 4892SOL    HW215423   0.663   4.242   5.007  0.5507 -0.8785  0.4214
 4893SOL     OW15424   5.237   1.319   3.173  0.5316  0.2178 -0.4786
 4893SOL    HW115425   5.251   1.275   3.257 -1.0571 -0.6207 -0.6023
 4893SOL    HW215426   5.267   1.408   3.188  0.3162  0.0794  0.9898
 4894SOL     OW15427   0.435   5.688   0.091  0.3891 -0.2569  0.2959
 4894SOL    HW115428   0.379   5.761   0.118  0.0645 -0.9105  1.4689
 4894SOL    HW215429   0.455   5.642   0.172  0.8940 -1.2697 -0.3797
 4895SOL     OW15430   3.911   3.863   6.224  0.0051  0.0208 -0.1698
 4895SOL    HW115431   3.984   3.917   6.195  0.0238 -0.8995 -1.9781
 4895SOL    HW215432   3.905   3.793   6.159 -1.8927 -0.4580  0.4444
 4896SOL     OW15433   4.213   0.459   3.005 -0.3219  0.3997  0.1090
 4896SOL    HW115434   4.150   0.455   2.934 -0.3748  1.5086  0.0765
 4896SOL    HW215435   4.249   0.370   3.011 -0.6911  0.1704 -0.9505
 4897SOL     OW15436   0.505   4.457   1.717 -0.3733  0.8928 -0.0522
 4897SOL    HW115437   0.486   4.435   1.626  0.3271 -3.3239  0.6111
 4897SOL    HW215438   0.599   4.442   1.727 -0.4392  1.2320  1.3821
 4898SOL     OW15439   5.448   3.732   5.277  0.1070 -0.4613 -0.2177
 4898SOL    HW115440   5.510   3.670   5.314  0.6545 -0.8935 -1.8017
 4898SOL    HW215441   5.502   3.793   5.225 -0.7702 -1.0265 -1.8660
 4899SOL     OW15442   1.223   0.726   4.043 -0.0930 -0.1726  0.2068
 4899SOL    HW115443   1.225   0.655   3.979  0.0133 -0.1962  0.2365
 4899SOL    HW215444   1.208   0.805   3.990 -1.8138 -0.3865  0.3141
 4900SOL     OW15445   4.490   5.597   2.207 -0.1076  0.1693  0.0294
 4900SOL    HW115446   4.496   5.561   2.118 -0.5262  0.3541 -0.0769
 4900SOL    HW215447   4.399   5.625   2.215  0.2021  1.1608  0.1331
 4901SOL     OW15448   6.083   0.083   3.345  0.1219 -0.6322 -0.0672
 4901SOL    HW115449   6.039   0.119   3.267 -0.1446 -0.0847  0.3328
 4901SOL    HW215450   6.176   0.095   3.327  0.0638 -0.5853 -0.3422
 4902SOL     OW15451   0.130   3.755   5.709 -0.1861 -0.7528  0.4249
 4902SOL    HW115452   0.153   3.743   5.617 -1.6868 -1.2696  0.0913
 4902SOL    HW215453   0.195   3.703   5.757 -0.3779 -1.8113 -0.4316
 4903SOL     OW15454   5.146   4.998   2.406  0.0447 -0.5215 -0.0753
 4903SOL    HW115455   5.202   4.920   2.397  1.1432  0.1603  0.5846
 4903SOL    HW215456   5.135   5.030   2.316  1.6073 -0.0792 -0.1346
 4904SOL     OW15457   2.385   5.430   1.268  0.7543 -0.3783  0.1504
 4904SOL    HW115458   2.395   5.349   1.218 -0.0935 -0.7912  0.6071
 4904SOL    HW215459   2.459   5.431   1.328  0.6757 -0.9131  0.2614
 4905SOL     OW15460   4.208   2.507   2.336  0.1764 -0.5072  0.5547
 4905SOL    HW115461   4.136   2.445   2.345  1.1524 -1.8474 -0.5490
 4905SOL    HW215462   4.257   2.499   2.418 -0.0409 -0.7463  0.6622
 4906SOL     OW15463   2.614   2.720   0.441  0.1943 -0.0572 -0.4128
 4906SOL    HW115464   2.532   2.769   0.438 -2.3841 -3.8568  0.7996
 4906SOL    HW215465   2.668   2.766   0.505 -2.2089  1.0092  0.9690
 4907SOL     OW15466   4.900   4.977   3.943 -0.6207 -0.0660 -0.3472
 4907SOL    HW115467   4.929   5.012   4.027 -1.6905  0.5191 -0.2091
 4907SOL    HW215468   4.971   4.919   3.916  0.2216  0.5627  0.4421
 4908SOL     OW15469   4.947   0.615   5.698  0.3710  0.5195  0.0146
 4908SOL    HW115470   4.882   0.675   5.660 -0.6361 -1.1182 -0.9737
 4908SOL    HW215471   4.945   0.538   5.641  1.0343 -0.7898  1.6738
 4909SOL     OW15472   1.366   1.767   4.523 -0.4189 -0.1605 -0.0341
 4909SOL    HW115473   1.366   1.856   4.559  2.7082  0.3925 -1.0682
 4909SOL    HW215474   1.400   1.713   4.594  1.7704  0.2542 -0.6872
 4910SOL     OW15475   5.555   4.067   5.719 -0.0876  0.3212 -0.2904
 4910SOL    HW115476   5.622   4.025   5.772  0.1657  2.6913  1.4201
 4910SOL    HW215477   5.482   4.005   5.717  0.5527 -0.5232  1.4170
 4911SOL     OW15478   1.219   0.568   1.228 -0.8772 -0.0983  0.6864
 4911SOL    HW115479   1.283   0.535   1.291  0.0480  3.6065  1.9503
 4911SOL    HW215480   1.134   0.542   1.264 -0.2654 -0.2103  2.0992
 4912SOL     OW15481   0.438   5.634   4.383 -0.4560  0.3442  0.2537
 4912SOL    HW115482   0.457   5.567   4.317  2.1248  0.6893  0.5521
 4912SOL    HW215483   0.497   5.614   4.455 -0.2112  2.4316  0.6984
 4913SOL     OW15484   1.229   3.964   6.012  0.6384 -0.0832 -0.0658
 4913SOL    HW115485   1.303   3.912   6.042 -0.4695 -0.6396  1.8821
 4913SOL    HW215486   1.209   4.023   6.086  0.4501  1.5458 -1.3534
 4914SOL     OW15487   1.273   0.485   0.947  0.0415  0.2555  0.3778
 4914SOL    HW115488   1.279   0.541   1.024 -1.9719  0.8288  0.1599
 4914SOL    HW215489   1.229   0.406   0.977  0.5145 -0.1181  0.1075
 4915SOL     OW15490   3.098   1.149   1.822 -0.0171  0.0905  0.2904
 4915SOL    HW115491   3.180   1.140   1.774 -0.5706 -1.5555 -0.4117
 4915SOL    HW215492   3.099   1.076   1.884 -0.0848  1.2086  1.6710
 4916SOL     OW15493   2.386   5.499   4.723 -0.0528  0.3817  0.5714
 4916SOL    HW115494   2.311   5.444   4.746 -2.1481  2.7315 -0.1705
 4916SOL    HW215495   2.363   5.586   4.757  1.8031  1.4238 -0.6797
 4917SOL     OW15496   0.152   5.513   3.363 -0.2216  0.5312  0.5505
 4917SOL    HW115497   0.228   5.555   3.321 -0.9663  0.4625 -0.9538
 4917SOL    HW215498   0.105   5.585   3.404  0.2873  0.6771  0.8803
 4918SOL     OW15499   1.478   5.885   6.072  0.1678 -0.4088 -0.9525
 4918SOL    HW115500   1.397   5.908   6.118  0.9220  0.3686  0.0422
 4918SOL    HW215501   1.471   5.791   6.056  0.3888 -0.9884  1.8745
 4919SOL     OW15502   2.573   3.237   5.848 -0.1402 -0.6711 -0.1420
 4919SOL    HW115503   2.506   3.172   5.871 -1.5389  0.9101  0.4329
 4919SOL    HW215504   2.603   3.210   5.762 -0.7781 -2.0156  0.0260
 4920SOL     OW15505   2.776   5.362   2.322 -0.0486  0.9544 -0.2495
 4920SOL    HW115506   2.764   5.275   2.283  1.0064  1.5333 -1.9740
 4920SOL    HW215507   2.690   5.404   2.313 -0.8219 -0.1814  1.4171
 4921SOL     OW15508   4.331   5.843   5.780 -0.1846 -0.3786  0.4381
 4921SOL    HW115509   4.356   5.823   5.689 -0.1121  0.7507  0.1868
 4921SOL    HW215510   4.413   5.839   5.828 -0.4092 -2.2515  0.7276
 4922SOL     OW15511   2.394   3.416   4.482  0.5666  0.3454 -0.1281
 4922SOL    HW115512   2.467   3.473   4.508  0.0194  0.9769  0.0519
 4922SOL    HW215513   2.319   3.450   4.532  0.5486 -1.5042  1.1825
 4923SOL     OW15514   2.023   3.151   3.698 -0.1241 -0.0553 -0.1032
 4923SOL    HW115515   2.077   3.197   3.762  0.1295  0.8465 -0.9409
 4923SOL    HW215516   2.086   3.100   3.645 -0.0649  1.0140 -1.0937
 4924SOL     OW15517   6.227   4.367   6.128  0.4862  0.0840 -0.2482
 4924SOL    HW115518   6.198   4.458   6.128  1.4097  0.3886 -0.4172
 4924SOL    HW215519   6.323   4.372   6.123  0.6640 -0.8487  1.3575
 4925SOL     OW15520   2.169   4.091   5.275 -0.1609 -0.7029  0.0830
 4925SOL    HW115521   2.092   4.066   5.327  0.3041 -3.0465 -0.2395
 4925SOL    HW215522   2.182   4.183   5.295 -2.4043 -0.5130  0.9809
 4926SOL     OW15523   2.472   4.859   4.088 -0.3388 -0.0204  0.0417
 4926SOL    HW115524   2.393   4.831   4.042 -0.9957  1.6154  0.1010
 4926SOL    HW215525   2.510   4.927   4.032 -0.1652  0.7252  1.0231
 4927SOL     OW15526   3.121   1.569   2.778 -0.2401  0.4452  0.0545
 4927SOL    HW115527   3.178   1.596   2.707  2.2672 -1.3444  1.2461
 4927SOL    HW215528   3.146   1.626   2.852 -0.0875 -0.2419  0.5407
 4928SOL     OW15529   0.249   5.744   0.918  0.5910  0.4723 -0.3563
 4928SOL    HW115530   0.328   5.779   0.878  0.8312 -1.4553 -1.7046
 4928SOL    HW215531   0.242   5.655   0.884 -1.8308  0.3696  0.2258
 4929SOL     OW15532   1.887   6.127   5.360 -0.0192 -0.1334  0.9969
 4929SOL    HW115533   1.938   6.191   5.311 -1.1949 -0.0311 -0.1446
 4929SOL    HW215534   1.819   6.178   5.403 -1.7824 -0.6705 -0.9720
 4930SOL     OW15535   3.501   1.624   1.854 -0.1751  0.4380 -0.2948
 4930SOL    HW115536   3.541   1.652   1.771  1.6953  0.9102  0.6944
 4930SOL    HW215537   3.408   1.616   1.835 -0.2740  3.5214 -1.6853
 4931SOL     OW15538   2.398   0.170   5.612 -0.3016  0.0537 -0.5690
 4931SOL    HW115539   2.356   0.102   5.665 -1.3018  0.8535 -0.2873
 4931SOL    HW215540   2.334   0.188   5.543 -0.3004  1.0938 -0.3085
 4932SOL     OW15541   0.554   3.070   4.274 -0.4305  0.0820 -0.2294
 4932SOL    HW115542   0.553   3.031   4.187  2.1569 -0.0099 -0.2684
 4932SOL    HW215543   0.473   3.122   4.277 -1.4676 -1.3185 -1.9753
 4933SOL     OW15544   1.893   0.737   6.235  0.6920 -0.4438 -0.2499
 4933SOL    HW115545   1.959   0.730   6.166 -0.1673 -0.5840 -1.0784
 4933SOL    HW215546   1.942   0.768   6.312  1.6109 -0.0098 -0.9909
 4934SOL     OW15547   4.429   3.342   4.146  0.1971 -0.1574 -0.4736
 4934SOL    HW115548   4.431   3.342   4.242  0.0256  1.0018 -0.4472
 4934SOL    HW215549   4.337   3.356   4.125  0.4206  0.9389 -0.7744
 4935SOL     OW15550   3.430   0.185   5.462 -0.0394  0.0400 -0.4144
 4935SOL    HW115551   3.335   0.171   5.463 -0.2370  1.2760  0.6222
 4935SOL    HW215552   3.443   0.263   5.516  1.5965 -0.2663 -0.3208
 4936SOL     OW15553   1.671   0.647   4.121 -0.5361  0.1319 -0.8282
 4936SOL    HW115554   1.649   0.611   4.207 -0.3544  1.3148 -0.2636
 4936SOL    HW215555   1.626   0.731   4.118  0.6234  0.7648 -1.2976
 4937SOL     OW15556   0.478   5.525   3.967 -0.2989  0.8582  0.3836
 4937SOL    HW115557   0.514   5.507   4.054  0.2134 -1.6760 -0.2489
 4937SOL    HW215558   0.549   5.567   3.919 -0.5893  2.2849  1.1434
 4938SOL     OW15559   4.896   4.254   5.072 -0.5172  0.5541  0.5561
 4938SOL    HW115560   4.873   4.258   5.165  0.2913  2.1981  0.7131
 4938SOL    HW215561   4.992   4.245   5.072 -0.7112 -3.9931 -0.1158
 4939SOL     OW15562   5.061   1.193   2.026  0.4938 -0.0144  0.3537
 4939SOL    HW115563   4.970   1.202   2.054  1.0498  1.4486  1.8723
 4939SOL    HW215564   5.070   1.254   1.953  0.1086 -0.6203 -0.2027
 4940SOL     OW15565   1.934   0.519   0.943  0.8698  0.6739  0.3394
 4940SOL    HW115566   1.940   0.446   0.881  0.7586  0.6917  0.3078
 4940SOL    HW215567   1.933   0.476   1.029 -1.8174  0.4403  0.2827
 4941SOL     OW15568   2.248   5.670   6.241 -0.4369 -0.2603  0.4708
 4941SOL    HW115569   2.284   5.758   6.227  0.5447 -0.7956 -0.4537
 4941SOL    HW215570   2.195   5.653   6.162 -0.6103 -0.5117  0.6406
 4942SOL     OW15571   4.074   5.880   4.535  0.5373  0.1274  0.1720
 4942SOL    HW115572   4.082   5.973   4.558  0.4714  0.8121 -2.2446
 4942SOL    HW215573   4.164   5.849   4.527  0.5864  0.4499 -0.6100
 4943SOL     OW15574   5.705   0.434   1.852 -0.3601 -0.1765  0.3372
 4943SOL    HW115575   5.672   0.520   1.875 -0.3175  0.0721 -0.5086
 4943SOL    HW215576   5.637   0.396   1.796 -1.1704 -1.3837  2.0703
 4944SOL     OW15577   4.991   5.710   6.076  0.7646 -0.3658  0.3548
 4944SOL    HW115578   5.071   5.756   6.052  0.3100  0.3531  0.1495
 4944SOL    HW215579   4.940   5.706   5.995 -0.4460  1.3783  0.9488
 4945SOL     OW15580   5.124   5.880   2.402  0.0388  0.2068 -1.1016
 4945SOL    HW115581   5.159   5.815   2.341 -0.7021  0.3413 -1.6812
 4945SOL    HW215582   5.197   5.899   2.461  0.4017 -0.8144 -1.2018
 4946SOL     OW15583   6.264   6.077   3.897  0.0172  0.1429 -0.2999
 4946SOL    HW115584   6.207   6.001   3.886 -1.6736  0.9230  2.2871
 4946SOL    HW215585   6.321   6.053   3.971 -1.7465  1.9286  1.7904
 4947SOL     OW15586   6.205   2.408   3.174  0.6230 -0.3079 -0.3476
 4947SOL    HW115587   6.236   2.442   3.090  1.4448 -0.6827 -0.2051
 4947SOL    HW215588   6.231   2.475   3.238  0.8605 -0.4733 -0.2697
 4948SOL     OW15589   1.766   6.054   2.897  0.0140  0.0384 -0.1885
 4948SOL    HW115590   1.775   6.127   2.959 -0.0989  0.9363 -1.1958
 4948SOL    HW215591   1.683   6.013   2.922 -0.1508  0.5365  0.1142
 4949SOL     OW15592   4.156   3.517   6.245  1.1323 -0.0179  0.0870
 4949SOL    HW115593   4.182   3.593   6.297  0.5978 -0.0883  0.4648
 4949SOL    HW215594   4.198   3.442   6.289  0.9753 -0.0361  0.2069
 4950SOL     OW15595   3.639   4.611   1.153 -0.2853  0.4822 -0.1410
 4950SOL    HW115596   3.566   4.615   1.215 -0.0299  0.4091  0.1702
 4950SOL    HW215597   3.716   4.629   1.206 -0.0009 -0.1626 -0.3228
 4951SOL     OW15598   5.485   0.409   2.053  0.1984  0.5459 -0.0742
 4951SOL    HW115599   5.395   0.382   2.033  0.2666 -2.0820  2.4962
 4951SOL    HW215600   5.476   0.485   2.110 -0.3579  0.9144 -0.6528
 4952SOL     OW15601   5.060   2.912   4.794 -0.3176  0.6011 -0.3223
 4952SOL    HW115602   5.119   2.964   4.740  0.0306  0.7682  0.2130
 4952SOL    HW215603   5.075   2.822   4.767 -0.0231  0.6695 -0.3912
 4953SOL     OW15604   1.457   5.299   4.161 -0.0478  0.2818  0.1823
 4953SOL    HW115605   1.484   5.217   4.120 -0.4154 -0.0438  0.5762
 4953SOL    HW215606   1.456   5.363   4.089 -0.6002 -0.2576 -0.3044
 4954SOL     OW15607   0.279   4.168   3.101 -0.5323 -0.1647  0.0129
 4954SOL    HW115608   0.263   4.199   3.012  0.1029  1.0141  0.2898
 4954SOL    HW215609   0.331   4.089   3.089 -0.7676 -0.2288 -0.6695
 4955SOL     OW15610   3.368   5.112   3.722 -0.4128  0.1460  0.0665
 4955SOL    HW115611   3.318   5.083   3.797 -1.1087 -3.1720 -1.5195
 4955SOL    HW215612   3.305   5.115   3.650  1.0046 -1.1200 -1.3163
 4956SOL     OW15613   0.286   1.365   3.339  0.1066 -0.9899 -0.1748
 4956SOL    HW115614   0.196   1.397   3.338 -0.0703 -1.3758  1.2916
 4956SOL    HW215615   0.331   1.421   3.401  0.6775 -1.3229 -0.2796
 4957SOL     OW15616   2.881   2.967   0.030  0.5452 -0.8327 -0.0013
 4957SOL    HW115617   2.845   2.969  -0.058 -0.0987 -0.6456  0.2620
 4957SOL    HW215618   2.872   2.875   0.057 -1.4182 -0.4699  0.7318
 4958SOL     OW15619   5.871   4.406   1.204  0.2879 -0.0796  0.1031
 4958SOL    HW115620   5.961   4.406   1.236  0.2549  0.3928  0.1987
 4958SOL    HW215621   5.840   4.495   1.218 -0.7075 -0.6163  1.4707
 4959SOL     OW15622   1.221   3.632   2.233 -0.2121 -0.2834  0.9033
 4959SOL    HW115623   1.161   3.680   2.177  1.7243 -0.6352 -1.6676
 4959SOL    HW215624   1.308   3.667   2.211  0.6155  0.7233  4.9332
 4960SOL     OW15625   2.865   2.927   3.993  0.4261  0.1176  0.3275
 4960SOL    HW115626   2.801   2.897   3.928 -0.0488 -0.9058  1.2321
 4960SOL    HW215627   2.819   2.994   4.043 -0.8089 -2.1059  2.3925
 4961SOL     OW15628   2.185   2.875   3.921 -0.1128  0.3799 -0.2769
 4961SOL    HW115629   2.274   2.869   3.956 -0.0715  0.4115 -0.3758
 4961SOL    HW215630   2.185   2.956   3.870  0.0124  0.0076 -0.8739
 4962SOL     OW15631   3.785   3.375   5.203  0.2667 -0.0190  0.2739
 4962SOL    HW115632   3.701   3.369   5.156 -0.0252  2.1897  0.3770
 4962SOL    HW215633   3.762   3.364   5.295  0.2332 -0.3898  0.2204
 4963SOL     OW15634   2.792   3.690   4.869  0.4101 -0.0114  0.0191
 4963SOL    HW115635   2.700   3.669   4.851  0.7366 -1.0524 -0.4941
 4963SOL    HW215636   2.823   3.730   4.787  0.2134  1.0641  0.4597
 4964SOL     OW15637   3.101   3.564   2.539 -0.2343 -0.0429 -0.5712
 4964SOL    HW115638   3.052   3.489   2.505 -0.5828  0.0327 -0.2387
 4964SOL    HW215639   3.186   3.558   2.495  0.4229 -1.7054  0.8040
 4965SOL     OW15640   4.732   4.821   4.229 -0.5444 -0.3324 -0.0220
 4965SOL    HW115641   4.686   4.901   4.202 -0.1853 -0.3164 -0.6263
 4965SOL    HW215642   4.707   4.756   4.163  0.5825 -0.2196 -0.5997
 4966SOL     OW15643   2.176   4.781   2.007 -0.4035  0.2518  0.3206
 4966SOL    HW115644   2.225   4.842   1.952 -1.1322  0.6048  0.0587
 4966SOL    HW215645   2.121   4.837   2.062  1.1429 -0.0174  2.2531
 4967SOL     OW15646   4.676   3.509   1.022 -0.5966  0.2853  0.7133
 4967SOL    HW115647   4.715   3.482   1.105  2.0531 -1.2108 -0.8596
 4967SOL    HW215648   4.595   3.553   1.046 -0.1486 -0.4608  4.0364
 4968SOL     OW15649   5.138   0.927   2.782 -0.5565  0.4076 -0.5409
 4968SOL    HW115650   5.092   1.009   2.797  0.6124  0.7036  1.8995
 4968SOL    HW215651   5.109   0.869   2.852  0.8660 -0.2263 -0.4229
 4969SOL     OW15652   2.754   4.589   3.152  0.5797 -0.0223  0.6171
 4969SOL    HW115653   2.818   4.661   3.148  0.9376 -0.3475  0.4047
 4969SOL    HW215654   2.746   4.569   3.246 -0.9031  1.5015  0.8655
 4970SOL     OW15655   5.332   0.269   2.500 -0.3046 -0.4110  0.2609
 4970SOL    HW115656   5.363   0.304   2.416  1.6878 -2.1626  0.1781
 4970SOL    HW215657   5.393   0.306   2.564 -2.0398  1.2198  1.0536
 4971SOL     OW15658   5.489   2.508   3.945  0.6630  0.0479 -0.3949
 4971SOL    HW115659   5.449   2.578   3.996 -2.9064 -1.6226 -0.6213
 4971SOL    HW215660   5.521   2.446   4.010  0.1111 -0.0088 -0.1740
 4972SOL     OW15661   3.528   4.291   0.826 -0.2224  0.5626  0.5074
 4972SOL    HW115662   3.469   4.261   0.895  0.1207 -1.4273 -0.0247
 4972SOL    HW215663   3.476   4.287   0.746  0.5912 -1.2308  0.0282
 4973SOL     OW15664   2.098   3.112   6.133 -0.0359  0.0327  0.6475
 4973SOL    HW115665   2.118   3.031   6.182  0.4783 -0.1282  0.1849
 4973SOL    HW215666   2.004   3.108   6.119  0.0079 -0.5962  0.4595
 4974SOL     OW15667   2.514   4.676   1.466 -0.6148 -0.2531 -0.1030
 4974SOL    HW115668   2.564   4.675   1.384 -0.1212 -1.4027  0.1863
 4974SOL    HW215669   2.570   4.724   1.527 -0.8662  0.3763 -0.3559
 4975SOL     OW15670   3.017   1.836   5.348  0.0640  0.2084 -0.0898
 4975SOL    HW115671   3.063   1.790   5.417  0.0846  2.7677  1.7559
 4975SOL    HW215672   3.079   1.903   5.319 -0.3908 -0.0648 -1.7944
 4976SOL     OW15673   3.394   0.774   1.127  0.0924  0.0078 -0.8079
 4976SOL    HW115674   3.326   0.711   1.102 -0.4213 -0.0318  0.6273
 4976SOL    HW215675   3.475   0.723   1.122  0.0501  0.0278 -2.4302
 4977SOL     OW15676   5.625   1.624   0.938  0.0434 -0.0247  0.2252
 4977SOL    HW115677   5.599   1.668   1.019 -0.8491  0.6552 -0.4063
 4977SOL    HW215678   5.625   1.531   0.960  1.1227  0.2029  1.3543
 4978SOL     OW15679   0.498   0.554   5.238  0.3049 -0.2136  0.3084
 4978SOL    HW115680   0.462   0.632   5.196  2.4980 -0.4023 -2.2172
 4978SOL    HW215681   0.588   0.578   5.261  0.6705 -1.6362  0.5089
 4979SOL     OW15682   0.680   2.945   3.137  0.7216  0.3709 -0.4873
 4979SOL    HW115683   0.587   2.966   3.141  1.0604  1.7831  2.2072
 4979SOL    HW215684   0.717   2.983   3.217  3.3434 -1.5655 -0.6508
 4980SOL     OW15685   2.072   4.263   4.735  0.0939  0.2421 -0.4084
 4980SOL    HW115686   2.095   4.269   4.643 -1.2741 -0.1609 -0.7923
 4980SOL    HW215687   1.976   4.265   4.737  0.1063  1.5535  1.0967
 4981SOL     OW15688   4.486   2.553   1.367 -0.3349  0.1058 -0.1596
 4981SOL    HW115689   4.425   2.616   1.405  0.1309  0.3865  0.1357
 4981SOL    HW215690   4.560   2.606   1.338 -1.1907  0.0864 -2.6308
 4982SOL     OW15691   6.172   2.356   5.497 -0.0371 -0.1446  0.2738
 4982SOL    HW115692   6.257   2.354   5.453  0.1653  1.2522  0.5466
 4982SOL    HW215693   6.185   2.302   5.575  0.8595  0.6756  0.7195
 4983SOL     OW15694   1.198   4.431   0.521  0.6710  0.3140  0.4654
 4983SOL    HW115695   1.254   4.501   0.486 -0.2872  0.6605 -0.4173
 4983SOL    HW215696   1.239   4.408   0.605  0.6524  2.3883  1.1118
 4984SOL     OW15697   5.868   0.900   3.594  0.5209 -0.1046 -0.0326
 4984SOL    HW115698   5.851   0.842   3.520  0.9552  0.6015 -0.6966
 4984SOL    HW215699   5.894   0.841   3.665  0.1509 -0.7859 -0.4551
 4985SOL     OW15700   5.531   5.001   3.699 -0.6918 -0.4368 -0.4417
 4985SOL    HW115701   5.553   4.915   3.662  3.8910  0.6065 -0.7684
 4985SOL    HW215702   5.478   4.981   3.776 -0.1659 -3.5319 -0.7461
 4986SOL     OW15703   3.365   3.555   2.431  0.1546  0.3795 -0.3561
 4986SOL    HW115704   3.401   3.499   2.500  0.4149  0.9238 -0.0438
 4986SOL    HW215705   3.438   3.568   2.370 -0.2588 -0.6458 -1.1005
 4987SOL     OW15706   1.769   0.602   3.844  0.2527 -0.0748  0.2831
 4987SOL    HW115707   1.851   0.592   3.892  0.8396  1.5358 -0.3168
 4987SOL    HW215708   1.769   0.530   3.781  0.9786 -0.3621  0.6073
 4988SOL     OW15709   3.066   0.929   2.008 -0.2707  0.0840  0.1189
 4988SOL    HW115710   2.999   0.864   1.985 -0.3272  0.4994 -0.9071
 4988SOL    HW215711   3.089   0.907   2.099  0.2402 -1.8132 -0.4322
 4989SOL     OW15712   4.521   3.720   3.109  0.0482  0.4100 -0.2987
 4989SOL    HW115713   4.526   3.640   3.161  0.5706  0.4650 -0.2591
 4989SOL    HW215714   4.440   3.711   3.059  0.3890 -0.4129 -0.7281
 4990SOL     OW15715   2.534   1.222   5.327 -0.1599 -0.2272 -0.4121
 4990SOL    HW115716   2.466   1.182   5.272 -0.2199  0.4013 -0.8019
 4990SOL    HW215717   2.609   1.232   5.270  0.6634 -1.9455  0.3084
 4991SOL     OW15718   4.061   1.124   0.736 -0.3904 -0.3788  0.0536
 4991SOL    HW115719   4.121   1.111   0.809 -0.0475  0.5084 -0.0623
 4991SOL    HW215720   4.116   1.152   0.664 -0.8185 -0.5345 -0.3378
 4992SOL     OW15721   2.238   4.287   3.604 -0.0856  0.0093 -0.0110
 4992SOL    HW115722   2.254   4.380   3.587  2.2747 -0.4043 -0.4432
 4992SOL    HW215723   2.178   4.260   3.534  0.4921  0.8685 -0.8579
 4993SOL     OW15724   4.434   4.469   0.614  0.1271 -0.8149 -0.3223
 4993SOL    HW115725   4.482   4.544   0.579 -1.1794  0.6547  0.8931
 4993SOL    HW215726   4.416   4.414   0.538  2.1564 -0.5418 -1.0601
 4994SOL     OW15727   0.548   3.520   3.301 -0.5414 -0.6228 -0.7372
 4994SOL    HW115728   0.530   3.614   3.291 -0.6432 -0.4839  0.5915
 4994SOL    HW215729   0.532   3.483   3.214 -2.4754  0.2843 -0.8158
 4995SOL     OW15730   5.635   2.219   1.964  0.2839 -0.1120  0.1231
 4995SOL    HW115731   5.576   2.153   1.927  0.6457 -1.0133  1.0940
 4995SOL    HW215732   5.700   2.234   1.896  1.6972 -2.6959  0.7835
 4996SOL     OW15733   1.367   5.621   6.069  0.7128 -0.6768 -0.3214
 4996SOL    HW115734   1.283   5.596   6.031  1.1736 -1.7646 -0.6773
 4996SOL    HW215735   1.373   5.568   6.149 -0.0322  1.2362  1.0693
 4997SOL     OW15736   5.446   1.170   2.040  0.2270  0.1987 -0.4660
 4997SOL    HW115737   5.437   1.108   1.967  0.7028 -0.8937  0.3788
 4997SOL    HW215738   5.499   1.123   2.104 -0.5199  0.9967  0.7603
 4998SOL     OW15739   2.768   3.798   2.771 -0.3896  0.2446 -0.2378
 4998SOL    HW115740   2.742   3.828   2.858 -2.5860  2.3596 -1.4945
 4998SOL    HW215741   2.851   3.843   2.754 -0.3110  0.3809  0.4652
 4999SOL     OW15742   3.941   2.288   2.970 -0.1957 -0.2249  0.8689
 4999SOL    HW115743   3.996   2.291   3.048  0.2761  2.0675  0.5017
 4999SOL    HW215744   4.002   2.268   2.898  0.1239  1.7523  0.5438
 5000SOL     OW15745   5.999   0.121   1.016  0.4578 -0.1878  0.5679
 5000SOL    HW115746   5.984   0.106   1.109  0.3420 -0.8873  0.4435
 5000SOL    HW215747   5.931   0.182   0.990 -2.9341 -3.8996 -0.1744
 5001SOL     OW15748   0.133   5.939   4.073 -1.0122  0.1828 -0.2268
 5001SOL    HW115749   0.077   5.874   4.116 -0.9218 -0.3031 -0.8126
 5001SOL    HW215750   0.212   5.889   4.049 -0.3666  0.8361  0.5072
 5002SOL     OW15751   0.763   2.198   3.385 -0.4562  0.0246 -0.4035
 5002SOL    HW115752   0.751   2.244   3.468  0.7816  1.6799 -1.0901
 5002SOL    HW215753   0.688   2.224   3.332 -1.1415 -0.8760  0.0868
 5003SOL     OW15754   5.669   0.781   4.561 -0.2642  0.5645 -0.0427
 5003SOL    HW115755   5.685   0.783   4.467 -2.3913 -1.7737 -0.5788
 5003SOL    HW215756   5.719   0.705   4.592  0.6878  1.5120  0.8159
 5004SOL     OW15757   4.867   2.911   3.272  0.6011 -0.0497 -0.3494
 5004SOL    HW115758   4.845   2.818   3.269 -0.9841  0.3170 -2.4657
 5004SOL    HW215759   4.901   2.925   3.361 -1.2921 -2.1691  0.8137
 5005SOL     OW15760   4.784   4.339   5.319  0.0040  0.3163  0.6082
 5005SOL    HW115761   4.778   4.433   5.336  1.3281  0.3692  0.9183
 5005SOL    HW215762   4.780   4.299   5.406 -1.1370  0.0287  0.4408
 5006SOL     OW15763   0.556   5.556   5.874  0.2234  0.2246 -0.2132
 5006SOL    HW115764   0.488   5.490   5.860  0.1484  0.6476 -2.1761
 5006SOL    HW215765   0.563   5.564   5.969 -0.9657 -1.3593  0.0470
 5007SOL     OW15766   3.846   1.098   1.323 -0.0012  0.1989 -0.1135
 5007SOL    HW115767   3.786   1.172   1.332 -1.3178  0.0470 -4.9875
 5007SOL    HW215768   3.804   1.026   1.370 -1.9440  0.9733 -0.5935
 5008SOL     OW15769   5.899   2.866   5.490  0.0198  0.2341 -0.0351
 5008SOL    HW115770   5.938   2.916   5.418  0.4819 -0.0270  0.0275
 5008SOL    HW215771   5.935   2.778   5.481 -2.2655 -0.6240 -1.2619
 5009SOL     OW15772   0.283   1.262   4.244  0.1063 -0.6339  0.0184
 5009SOL    HW115773   0.202   1.308   4.263  0.2230 -0.3206 -0.2337
 5009SOL    HW215774   0.291   1.197   4.314 -0.9102 -1.3869 -0.5353
 5010SOL     OW15775   4.212   4.893   4.103 -0.0683 -0.0246 -0.0811
 5010SOL    HW115776   4.248   4.980   4.123  1.1557 -0.9336  2.1270
 5010SOL    HW215777   4.130   4.910   4.058  0.1516  2.2894  0.2778
 5011SOL     OW15778   2.660   6.047   1.859 -0.7015  0.7958  0.2994
 5011SOL    HW115779   2.609   5.967   1.845 -1.6246  0.9792  2.2384
 5011SOL    HW215780   2.747   6.016   1.882 -0.2563  0.4487 -1.6645
 5012SOL     OW15781   4.321   4.769   0.960  0.0616 -0.3136  0.8810
 5012SOL    HW115782   4.297   4.813   0.878 -1.5589 -1.0579  0.9012
 5012SOL    HW215783   4.392   4.822   0.997  0.2442  0.5068 -0.5852
 5013SOL     OW15784   2.406   0.056   5.179  0.4159 -0.6029  0.2579
 5013SOL    HW115785   2.469   0.117   5.140 -0.6919 -0.4584 -1.3824
 5013SOL    HW215786   2.387  -0.007   5.110 -1.2935 -0.5869  0.6732
 5014SOL     OW15787   3.279   1.883   1.347  0.4991  0.1709 -0.0004
 5014SOL    HW115788   3.306   1.974   1.339  0.1066  0.2059 -1.1847
 5014SOL    HW215789   3.248   1.874   1.437  1.7733  0.8539  0.5308
 5015SOL     OW15790   5.787   4.657   1.292  0.3673 -0.3483 -0.7169
 5015SOL    HW115791   5.833   4.727   1.247  0.2941 -0.1879 -0.5446
 5015SOL    HW215792   5.818   4.662   1.382 -1.2429  0.8645 -0.1746
 5016SOL     OW15793   1.257   2.609   4.411  0.6248  0.3325  0.6057
 5016SOL    HW115794   1.321   2.601   4.340 -1.0726 -1.1791 -0.8516
 5016SOL    HW215795   1.245   2.519   4.442 -1.6188  0.3736  0.0195
 5017SOL     OW15796   3.728   5.397   0.798 -0.1610 -0.2644 -0.1631
 5017SOL    HW115797   3.818   5.388   0.768  0.6729  2.2988  1.2434
 5017SOL    HW215798   3.688   5.458   0.736  0.2376  1.4734  1.1897
 5018SOL     OW15799   2.105   4.658   1.683 -0.4502 -0.1154 -0.1328
 5018SOL    HW115800   2.116   4.603   1.760  3.3004  0.3592 -0.1689
 5018SOL    HW215801   2.061   4.601   1.619 -2.7722 -0.8026  1.9459
 5019SOL     OW15802   2.221   1.918   2.516  0.1967  0.4785 -0.4148
 5019SOL    HW115803   2.177   1.957   2.592 -0.1776 -0.7905  0.0511
 5019SOL    HW215804   2.314   1.935   2.531  0.1487  0.0603  0.4490
 5020SOL     OW15805   2.106   1.168   5.347 -0.5780 -0.2612 -0.0292
 5020SOL    HW115806   2.118   1.209   5.433 -0.3265  0.0572 -0.2142
 5020SOL    HW215807   2.011   1.159   5.338 -0.7128  1.4527 -0.5282
 5021SOL     OW15808   6.046   0.214   5.028 -0.5414 -0.0519 -0.4337
 5021SOL    HW115809   6.025   0.122   5.042 -0.6737  0.0477  0.0469
 5021SOL    HW215810   6.014   0.233   4.940  0.4600 -0.7435 -0.9685
 5022SOL     OW15811   1.524   3.010   5.237  0.8402  0.1107  0.1366
 5022SOL    HW115812   1.540   2.969   5.152 -0.8563 -1.8372  0.6690
 5022SOL    HW215813   1.607   2.999   5.284  1.1400 -0.7088 -0.5467
 5023SOL     OW15814   0.162   3.547   6.070  0.1555 -0.1556 -0.2888
 5023SOL    HW115815   0.146   3.546   6.164 -1.2728 -1.6797 -0.4823
 5023SOL    HW215816   0.098   3.609   6.035 -0.1211 -0.4585 -0.3354
 5024SOL     OW15817   4.721   5.771   6.234 -0.4356  0.2628 -0.1820
 5024SOL    HW115818   4.804   5.792   6.193 -0.5916  1.4128  0.0345
 5024SOL    HW215819   4.707   5.678   6.215  0.3068  0.3468 -1.2450
 5025SOL     OW15820   4.688   1.098   3.192 -0.2273  0.2345  0.5683
 5025SOL    HW115821   4.776   1.116   3.226 -0.3003  0.2086  0.7705
 5025SOL    HW215822   4.631   1.159   3.239 -0.0618  1.6706 -0.9863
 5026SOL     OW15823   2.914   3.249   4.843 -0.1653  0.1457  0.3632
 5026SOL    HW115824   2.894   3.337   4.813 -1.2949  0.2511  1.3138
 5026SOL    HW215825   2.886   3.192   4.772 -0.4127  0.5072  0.1689
 5027SOL     OW15826   4.079   0.588   5.758 -0.2001  0.0460 -0.0756
 5027SOL    HW115827   3.986   0.608   5.764 -0.1815 -0.1533  1.2548
 5027SOL    HW215828   4.095   0.570   5.665 -1.9402 -2.0057 -0.0476
 5028SOL     OW15829   3.217   2.138   0.654  0.0830  0.4206  0.1395
 5028SOL    HW115830   3.181   2.104   0.572 -0.2972  0.4498  0.2926
 5028SOL    HW215831   3.248   2.061   0.701 -1.3407  0.1948  0.7611
 5029SOL     OW15832   2.419   2.542   5.338 -0.8061 -0.6305  0.1086
 5029SOL    HW115833   2.445   2.633   5.348  0.5244 -0.8063 -1.3586
 5029SOL    HW215834   2.381   2.519   5.422 -1.0703  1.2384  0.5437
 5030SOL     OW15835   0.233   3.253   4.666  0.1552 -0.2615  0.0689
 5030SOL    HW115836   0.152   3.260   4.616  0.1359 -2.0051 -0.1913
 5030SOL    HW215837   0.303   3.254   4.600  0.2982  0.2239  0.2216
 5031SOL     OW15838   2.461   2.743   3.712  0.0067 -0.5539  0.2266
 5031SOL    HW115839   2.406   2.768   3.786 -1.9986 -2.0961 -0.6236
 5031SOL    HW215840   2.481   2.826   3.668 -1.9270  0.0928  0.4400
 5032SOL     OW15841   2.752   2.803   4.824 -0.2961 -0.0483  0.3990
 5032SOL    HW115842   2.695   2.765   4.891 -0.0563 -0.7718  0.1941
 5032SOL    HW215843   2.841   2.788   4.857 -0.1426 -1.2034 -0.4956
 5033SOL     OW15844   5.551   3.111   4.928  0.8047 -0.6008  0.1399
 5033SOL    HW115845   5.525   3.100   5.020  1.2846  1.4651  0.5819
 5033SOL    HW215846   5.608   3.188   4.929 -1.0464  0.9236 -2.2064
 5034SOL     OW15847   4.245   1.182   0.555  0.6238 -0.1032 -0.2566
 5034SOL    HW115848   4.258   1.240   0.479  3.4164 -1.7473 -1.1586
 5034SOL    HW215849   4.297   1.221   0.624 -0.4249  0.3687  0.2979
 5035SOL     OW15850   1.652   2.905   2.469  0.1218  0.4062  0.7912
 5035SOL    HW115851   1.713   2.832   2.478  0.2861  0.6146  1.4364
 5035SOL    HW215852   1.675   2.964   2.542 -1.1791  0.2548  1.3424
 5036SOL     OW15853   0.480   3.583   4.149  0.0982 -0.0758 -0.4696
 5036SOL    HW115854   0.438   3.576   4.063  0.7562  0.0341 -0.8049
 5036SOL    HW215855   0.487   3.492   4.179 -1.7687 -0.0140  0.2874
 5037SOL     OW15856   0.107   5.364   4.140 -0.1149  0.0679 -0.0367
 5037SOL    HW115857   0.145   5.438   4.091  1.4736 -2.0779 -2.2774
 5037SOL    HW215858   0.036   5.332   4.084 -0.5428 -0.3599  0.7344
 5038SOL     OW15859   3.163   4.524   5.633  0.0477 -0.2464 -0.4062
 5038SOL    HW115860   3.147   4.543   5.726  1.9595 -0.7764  0.0792
 5038SOL    HW215861   3.118   4.441   5.617  0.3368 -0.5337  0.2481
 5039SOL     OW15862   2.970   4.770   2.755  0.3161  0.2934 -0.1864
 5039SOL    HW115863   3.033   4.773   2.683  0.8081 -3.1902 -0.1067
 5039SOL    HW215864   3.025   4.774   2.834  0.0066  1.5588 -0.0228
 5040SOL     OW15865   3.537   2.321   0.828  0.0578  0.0086  0.1076
 5040SOL    HW115866   3.628   2.338   0.803  0.1302 -0.2751  0.1835
 5040SOL    HW215867   3.488   2.396   0.793  0.2025 -0.2286 -0.6168
 5041SOL     OW15868   3.414   1.618   0.240 -0.1423 -0.0033 -0.2618
 5041SOL    HW115869   3.341   1.557   0.244 -0.1369  0.0371  2.1292
 5041SOL    HW215870   3.391   1.687   0.302  1.1556  0.8959 -0.7430
 5042SOL     OW15871   6.062   4.906   3.335 -0.4516 -0.1195  0.4604
 5042SOL    HW115872   6.091   4.867   3.417  3.4331 -3.2506 -2.0090
 5042SOL    HW215873   6.008   4.839   3.293 -0.4960  0.4667 -0.4648
 5043SOL     OW15874   0.788   1.775   4.408  0.3926  0.2155 -0.0330
 5043SOL    HW115875   0.841   1.823   4.344 -0.1827  1.6517  0.5183
 5043SOL    HW215876   0.699   1.778   4.372  0.1965  0.3690  0.4563
 5044SOL     OW15877   4.496   4.477   4.149  0.2192  0.2908  0.2628
 5044SOL    HW115878   4.441   4.514   4.218 -2.4761  0.1297 -1.6541
 5044SOL    HW215879   4.554   4.548   4.124 -0.7420  1.2785  0.7498
 5045SOL     OW15880   1.669   5.690   1.072  0.4243 -0.4473 -0.1676
 5045SOL    HW115881   1.693   5.676   0.980  0.4002 -2.2084  0.0623
 5045SOL    HW215882   1.582   5.731   1.068  0.7992  0.3138 -0.9227
 5046SOL     OW15883   2.337   1.270   1.517  0.2893  0.1431 -0.4919
 5046SOL    HW115884   2.415   1.215   1.506 -1.0333 -1.3869 -2.9459
 5046SOL    HW215885   2.280   1.218   1.574  1.0942  1.4469  1.6627
 5047SOL     OW15886   0.951   0.199   1.810 -0.0570  0.0274 -0.3080
 5047SOL    HW115887   0.865   0.174   1.776 -0.7273 -0.2328  1.4630
 5047SOL    HW215888   0.942   0.292   1.830 -0.8374 -0.5385  2.2908
 5048SOL     OW15889   6.040   3.343   4.407 -0.3768 -0.0092  0.5916
 5048SOL    HW115890   5.987   3.295   4.471 -1.8260  1.2110  0.3579
 5048SOL    HW215891   5.977   3.377   4.343  0.6363  1.6495  0.3910
 5049SOL     OW15892   5.643   2.336   3.067 -0.3919  0.4496  0.3736
 5049SOL    HW115893   5.583   2.410   3.055  0.6255  1.2463  0.1235
 5049SOL    HW215894   5.719   2.374   3.110  0.1944 -0.4357  0.1240
 5050SOL     OW15895   3.281   3.614   1.539  0.6764  0.0916  0.0936
 5050SOL    HW115896   3.227   3.636   1.463  0.1512  0.1387  0.4745
 5050SOL    HW215897   3.350   3.680   1.539  0.4453  0.3375 -0.1109
 5051SOL     OW15898   4.990   3.468   5.031  0.0765  0.4522  0.1892
 5051SOL    HW115899   4.977   3.554   5.071  1.3302  1.1383 -0.7798
 5051SOL    HW215900   4.916   3.416   5.060 -1.0343  2.0480  0.3275
 5052SOL     OW15901   4.386   2.828   2.040 -0.6752 -0.3910 -0.0560
 5052SOL    HW115902   4.465   2.845   2.091 -1.2327 -2.8845  1.8625
 5052SOL    HW215903   4.395   2.883   1.963  1.8613  1.0494  1.1372
 5053SOL     OW15904   0.062   6.075   5.687 -0.2378  0.0504  1.4827
 5053SOL    HW115905   0.003   6.150   5.696 -1.9863 -0.7019 -1.8441
 5053SOL    HW215906   0.004   5.999   5.695  0.3494 -0.7328 -0.9047
 5054SOL     OW15907   2.007   5.509   4.777 -0.0910  0.4426  1.0679
 5054SOL    HW115908   2.047   5.444   4.835  0.3296 -0.9834 -0.7325
 5054SOL    HW215909   1.914   5.506   4.798  0.0105 -0.3033  1.4290
 5055SOL     OW15910   4.556   5.458   2.421 -0.4827  0.6985  0.3166
 5055SOL    HW115911   4.649   5.435   2.422 -1.1120 -2.2555  2.6967
 5055SOL    HW215912   4.547   5.514   2.343  3.0361  0.2613 -0.6047
 5056SOL     OW15913   0.807   5.443   5.182 -0.2388  0.1168 -0.4401
 5056SOL    HW115914   0.796   5.424   5.275  1.0763  1.4874  0.0237
 5056SOL    HW215915   0.718   5.455   5.149 -0.8068 -1.5979  0.3340
 5057SOL     OW15916   5.981   0.120   6.082 -0.0370  0.1953  0.4165
 5057SOL    HW115917   6.002   0.173   6.159  0.1461 -0.9618  1.1987
 5057SOL    HW215918   5.990   0.180   6.008  1.7598  0.8494  1.1011
 5058SOL     OW15919   5.002   2.977   3.969  0.3419 -0.4320  0.0235
 5058SOL    HW115920   5.079   2.959   4.023  0.6398  0.1890 -0.1780
 5058SOL    HW215921   4.983   2.895   3.924 -0.4781 -1.2571  1.7658
 5059SOL     OW15922   3.910   6.120   1.450 -0.3015 -0.1596  0.5543
 5059SOL    HW115923   3.905   6.196   1.391  0.0857  0.4859  1.3354
 5059SOL    HW215924   3.860   6.052   1.404  0.4144  0.1543 -0.7536
 5060SOL     OW15925   5.625   0.834   0.363 -0.5088  0.3515  0.1092
 5060SOL    HW115926   5.628   0.738   0.361 -0.5331  0.3281  0.8137
 5060SOL    HW215927   5.704   0.862   0.317  0.9188 -0.0498  2.1477
 5061SOL     OW15928   4.913   5.113   0.416  0.1765  0.4974  0.3274
 5061SOL    HW115929   4.989   5.054   0.409  0.4735  0.9653 -0.5880
 5061SOL    HW215930   4.842   5.057   0.448  0.4335 -0.3799 -0.5897
 5062SOL     OW15931   1.487   0.564   2.059 -0.6193  0.0552 -0.2915
 5062SOL    HW115932   1.402   0.537   2.025 -0.5534 -0.6831  0.1132
 5062SOL    HW215933   1.517   0.490   2.111 -0.0869  0.6116  0.2205
 5063SOL     OW15934   0.442   5.388   0.830  0.8531  0.5657  0.0007
 5063SOL    HW115935   0.390   5.319   0.871  0.0122  1.0149 -0.2878
 5063SOL    HW215936   0.487   5.431   0.904  1.1330 -0.0748  0.2090
 5064SOL     OW15937   4.503   3.206   1.190  0.3837  0.0862  0.2450
 5064SOL    HW115938   4.453   3.275   1.235 -0.8002 -0.5109 -0.0903
 5064SOL    HW215939   4.464   3.202   1.102  1.1535 -0.2915 -0.0875
 5065SOL     OW15940   2.262   6.215   4.686  0.0955  0.0042  0.3462
 5065SOL    HW115941   2.344   6.257   4.714  0.3177 -1.5985  2.2820
 5065SOL    HW215942   2.253   6.140   4.743 -2.3952 -0.2738 -0.3196
 5066SOL     OW15943   0.942   2.907   5.790 -0.3619  0.0948  0.5683
 5066SOL    HW115944   0.859   2.910   5.837  0.3847  0.2088  1.9063
 5066SOL    HW215945   0.931   2.971   5.719 -0.8814  1.2324  1.6427
 5067SOL     OW15946   3.245   2.445   1.297  0.4198 -0.1892  0.0536
 5067SOL    HW115947   3.324   2.463   1.348  1.8365 -0.3306 -1.9743
 5067SOL    HW215948   3.278   2.414   1.213 -1.7973  0.5114 -1.1380
 5068SOL     OW15949   2.079   5.372   0.637  0.1397  0.1312 -0.0033
 5068SOL    HW115950   2.025   5.293   0.644  0.7324 -0.2559  0.3284
 5068SOL    HW215951   2.166   5.339   0.615  0.7458  0.5610  1.5913
 5069SOL     OW15952   0.254   6.270   4.926  0.0082  0.6194  0.0349
 5069SOL    HW115953   0.299   6.332   4.870  0.9502  0.3206  0.4282
 5069SOL    HW215954   0.258   6.309   5.013  0.1862  0.2308  0.2027
 5070SOL     OW15955   3.381   5.134   4.478  0.3907 -0.0266 -0.5261
 5070SOL    HW115956   3.446   5.191   4.439  0.8992  0.4209  0.9011
 5070SOL    HW215957   3.318   5.193   4.519 -0.5623 -0.4652 -1.3029
 5071SOL     OW15958   5.945   4.223   1.703 -0.1813  0.3719 -0.0193
 5071SOL    HW115959   5.854   4.251   1.713 -0.0822  0.4749  0.6429
 5071SOL    HW215960   5.940   4.140   1.656 -0.5969  0.5594 -0.3039
 5072SOL     OW15961   1.485   3.177   1.099  0.4018  0.8559 -0.3846
 5072SOL    HW115962   1.548   3.149   1.032  0.3041 -1.0423  0.2536
 5072SOL    HW215963   1.533   3.237   1.154  0.8543  1.4782 -1.4277
 5073SOL     OW15964   0.775   5.313   5.458 -0.3040 -0.0348  0.2673
 5073SOL    HW115965   0.866   5.337   5.441  0.0294 -0.0044  1.9311
 5073SOL    HW215966   0.731   5.396   5.477 -0.6666 -0.0709 -0.3464
 5074SOL     OW15967   5.945   1.795   4.494  0.0058 -0.3303  0.5626
 5074SOL    HW115968   5.911   1.873   4.451 -2.5079 -1.2252  0.7464
 5074SOL    HW215969   5.994   1.749   4.425  0.6635  0.8893  0.1911
 5075SOL     OW15970   4.456   3.270   2.918 -0.3754  0.5150 -0.1310
 5075SOL    HW115971   4.488   3.252   3.007  0.8952 -0.2054 -0.7079
 5075SOL    HW215972   4.434   3.184   2.883  0.8759  0.5829 -1.1393
 5076SOL     OW15973   2.005   3.925   2.876  0.4342  0.1562  0.0559
 5076SOL    HW115974   2.041   3.849   2.922 -3.2605 -2.0656 -0.3392
 5076SOL    HW215975   2.049   4.000   2.917  3.2490 -2.0340  1.4465
 5077SOL     OW15976   0.054   1.644   5.506  0.2586  0.4200 -0.0566
 5077SOL    HW115977   0.052   1.637   5.601 -0.5912  0.5107 -0.0628
 5077SOL    HW215978  -0.036   1.625   5.478  0.5532  0.1475 -0.8568
 5078SOL     OW15979   0.427   0.449   3.307  0.4483 -0.3960  0.5078
 5078SOL    HW115980   0.342   0.493   3.300  0.9546  0.7207  1.0670
 5078SOL    HW215981   0.425   0.407   3.393  0.9726  0.8248  1.1475
 5079SOL     OW15982   6.139   3.912   2.955  0.2023  0.5282  0.2379
 5079SOL    HW115983   6.138   3.844   3.022  2.6267  0.1901  0.0197
 5079SOL    HW215984   6.202   3.880   2.890  0.5251  2.4413 -0.4418
 5080SOL     OW15985   3.157   3.270   1.870 -0.1739  0.0318 -0.0918
 5080SOL    HW115986   3.221   3.302   1.806 -0.2920  0.8209  0.1817
 5080SOL    HW215987   3.185   3.308   1.953 -0.9146  0.2634  0.0559
 5081SOL     OW15988   0.489   4.264   3.808  0.3484 -0.0137  0.0108
 5081SOL    HW115989   0.444   4.323   3.747 -2.5418  0.0728  2.0399
 5081SOL    HW215990   0.554   4.321   3.851 -0.7501  1.1298  0.2316
 5082SOL     OW15991   0.907   4.073   1.415 -0.8717  0.2581 -0.0344
 5082SOL    HW115992   0.907   3.987   1.457 -0.3226  1.2121  2.0242
 5082SOL    HW215993   0.996   4.106   1.429 -1.5970  1.9156  0.8407
 5083SOL     OW15994   1.207   4.406   2.595 -0.1932  0.1453  0.8046
 5083SOL    HW115995   1.207   4.421   2.500 -0.9854  1.5343  0.9988
 5083SOL    HW215996   1.292   4.439   2.624 -0.1854  0.2693  0.6471
 5084SOL     OW15997   1.441   2.556   3.739  0.2617  0.0362  0.1906
 5084SOL    HW115998   1.348   2.555   3.762 -0.2373 -0.0108 -1.6843
 5084SOL    HW215999   1.482   2.497   3.803 -1.0651 -0.3469  0.7263
 5085SOL     OW16000   1.691   2.721   2.047  0.3057 -0.2367  0.8691
 5085SOL    HW116001   1.643   2.762   1.975  1.5049 -0.5280 -0.1421
 5085SOL    HW216002   1.699   2.790   2.113 -0.2398  0.2505  0.4406
 5086SOL     OW16003   1.653   0.484   1.085  0.6722  0.0363  0.5416
 5086SOL    HW116004   1.645   0.558   1.145 -1.3473  0.3773 -0.0576
 5086SOL    HW216005   1.741   0.450   1.100  1.1522  1.6924  1.8281
 5087SOL     OW16006   0.128   0.638   4.146  0.3358 -0.6292 -0.6737
 5087SOL    HW116007   0.034   0.658   4.145 -0.5877 -3.4625  3.3920
 5087SOL    HW216008   0.139   0.573   4.077 -1.3827 -2.1921  0.4137
 5088SOL     OW16009   2.005   5.505   3.735 -0.0085  0.4794 -0.3391
 5088SOL    HW116010   1.927   5.494   3.680  0.2746  0.1484 -0.6774
 5088SOL    HW216011   2.041   5.416   3.742 -1.0621  0.1497  1.8944
 5089SOL     OW16012   5.262   0.893   5.982 -0.3655 -0.3200 -0.0080
 5089SOL    HW116013   5.198   0.822   5.976 -0.4330 -0.1701 -1.3149
 5089SOL    HW216014   5.347   0.851   5.967 -0.3571 -0.2118 -0.2775
 5090SOL     OW16015   0.040   1.666   0.054  0.1410  0.5089  0.0764
 5090SOL    HW116016   0.085   1.592   0.013 -0.0770  0.3526  0.1202
 5090SOL    HW216017   0.061   1.741  -0.003  0.2053  0.3780 -0.0727
 5091SOL     OW16018   6.177   2.240   2.393  0.1575 -0.4105  0.5845
 5091SOL    HW116019   6.179   2.335   2.395 -0.3809 -0.4012  1.9183
 5091SOL    HW216020   6.092   2.218   2.356  0.6274 -0.3886 -0.5295
 5092SOL     OW16021   4.920   6.030   1.254 -0.9197  0.2275  0.4103
 5092SOL    HW116022   4.995   6.051   1.309  0.6115 -0.3886 -1.3371
 5092SOL    HW216023   4.869   6.112   1.250  1.0693  1.4825 -0.4606
 5093SOL     OW16024   0.951   0.346   3.836  0.3574  0.6016  0.0234
 5093SOL    HW116025   0.989   0.366   3.922  2.6864 -1.6470 -0.3425
 5093SOL    HW216026   1.016   0.378   3.774  1.2650 -2.2916 -0.6769
 5094SOL     OW16027   1.295   0.677   3.515  0.9060 -0.5428  0.1328
 5094SOL    HW116028   1.267   0.750   3.459 -1.1471 -0.9275  0.5865
 5094SOL    HW216029   1.351   0.718   3.581 -1.8216  1.0912  1.6321
 5095SOL     OW16030   3.826   3.672   1.426  0.0211 -0.6236  0.1766
 5095SOL    HW116031   3.794   3.595   1.380 -0.9391 -0.8707  1.2213
 5095SOL    HW216032   3.890   3.711   1.366 -2.2573 -0.0439 -2.0686
 5096SOL     OW16033   4.511   3.665   0.051  0.5979 -0.2818  0.1305
 5096SOL    HW116034   4.420   3.677   0.079  0.3116 -1.6605 -0.1383
 5096SOL    HW216035   4.552   3.750   0.065 -0.0730 -0.3155  2.6695
 5097SOL     OW16036   5.115   0.625   4.959 -0.4440  0.4665  0.5652
 5097SOL    HW116037   5.170   0.560   4.915 -2.8933 -1.0513 -0.4755
 5097SOL    HW216038   5.130   0.706   4.910 -0.6382 -0.4060 -1.0131
 5098SOL     OW16039   2.422   3.536   3.741 -0.0652 -0.1944 -0.3918
 5098SOL    HW116040   2.514   3.557   3.751 -0.4117  2.1771 -1.6188
 5098SOL    HW216041   2.415   3.497   3.654 -0.2862  0.0780 -0.4979
 5099SOL     OW16042   2.020   4.146   5.035  0.9428 -0.6518  0.4072
 5099SOL    HW116043   2.045   4.080   5.099  1.5314  0.2071  1.0950
 5099SOL    HW216044   2.093   4.209   5.036 -0.2968  0.8521  0.9674
 5100SOL     OW16045   2.496   0.183   2.655 -0.0530 -0.5567 -0.7005
 5100SOL    HW116046   2.448   0.113   2.609 -0.6061 -0.2036 -0.6687
 5100SOL    HW216047   2.584   0.180   2.618 -0.3867 -0.5303 -1.5039
 5101SOL     OW16048   1.279   2.237   1.220 -0.5956 -0.4316  0.1751
 5101SOL    HW116049   1.342   2.309   1.210 -0.2541 -0.7247  0.2098
 5101SOL    HW216050   1.295   2.180   1.144 -0.4259 -0.8038  0.4858
 5102SOL     OW16051   5.970   3.314   2.530  0.7797  0.2866 -0.1402
 5102SOL    HW116052   5.910   3.355   2.592  1.8517  0.9252  0.5118
 5102SOL    HW216053   5.990   3.229   2.568 -0.4403 -0.3361 -0.8447
 5103SOL     OW16054   1.093   4.551   4.284 -0.6847 -0.8960  0.3105
 5103SOL    HW116055   1.041   4.631   4.283  1.7317  0.8153  1.2278
 5103SOL    HW216056   1.083   4.516   4.372  0.1351 -0.2194  0.6894
 5104SOL     OW16057   2.424   5.337   5.287  0.3903  0.2300  0.4886
 5104SOL    HW116058   2.393   5.270   5.226  0.1623  0.3336  0.4889
 5104SOL    HW216059   2.347   5.358   5.340  0.5144  0.3440  0.6228
 5105SOL     OW16060   3.881   3.403   5.988  0.4879  0.1827  0.6079
 5105SOL    HW116061   3.923   3.488   5.972  1.2844 -0.4408 -0.8020
 5105SOL    HW216062   3.834   3.384   5.906 -0.1101 -0.5042  1.0991
 5106SOL     OW16063   0.043   1.221   4.557  0.7312  0.0801 -0.1269
 5106SOL    HW116064   0.080   1.297   4.602  4.5812 -1.0962 -0.9145
 5106SOL    HW216065   0.056   1.149   4.619  2.1290 -0.7807 -1.3343
 5107SOL     OW16066   1.842   5.122   1.787  0.1825  0.4292 -0.1566
 5107SOL    HW116067   1.864   5.031   1.768 -0.0906 -0.0331  1.5574
 5107SOL    HW216068   1.768   5.142   1.730  0.2818 -0.3965 -0.5806
 5108SOL     OW16069   1.353   5.833   1.382 -0.0148 -0.1914 -0.1995
 5108SOL    HW116070   1.373   5.920   1.416 -0.3752 -0.3194  0.3695
 5108SOL    HW216071   1.364   5.775   1.458 -0.9019 -0.4732 -0.2706
 5109SOL     OW16072   5.427   5.999   1.743 -0.1528  0.9733  0.4911
 5109SOL    HW116073   5.332   6.012   1.733 -0.0903  0.2946 -1.3343
 5109SOL    HW216074   5.456   6.076   1.791 -2.0923 -0.4395  4.2894
 5110SOL     OW16075   4.894   3.541   3.281 -0.2007  0.0234 -0.2858
 5110SOL    HW116076   4.848   3.498   3.353  1.3597  0.0128  0.7450
 5110SOL    HW216077   4.980   3.561   3.316  0.0359  1.5538 -1.6160
 5111SOL     OW16078   2.622   1.537   3.650  0.2908 -0.1532 -0.0429
 5111SOL    HW116079   2.645   1.605   3.588  1.8829  1.6559  2.3442
 5111SOL    HW216080   2.705   1.492   3.669 -0.2921 -1.1437  0.2357
 5112SOL     OW16081   3.917   2.147   0.950  0.1026  0.2689  0.4485
 5112SOL    HW116082   3.842   2.117   1.002 -0.0526 -0.1648 -0.0244
 5112SOL    HW216083   3.882   2.220   0.899 -0.0642 -0.0904  0.0454
 5113SOL     OW16084   5.425   3.853   5.591  0.5999  0.5857 -0.3056
 5113SOL    HW116085   5.431   3.757   5.591 -0.7420  0.4640 -1.5002
 5113SOL    HW216086   5.477   3.879   5.515  0.8586  0.8097 -0.0539
 5114SOL     OW16087   1.385   3.861   3.826 -0.0669  0.1134  0.1747
 5114SOL    HW116088   1.441   3.915   3.770  0.9805 -0.4591  0.6265
 5114SOL    HW216089   1.380   3.909   3.909  1.6133 -0.8557  0.8880
 5115SOL     OW16090   1.803   5.081   2.874 -0.0691  0.2159 -0.7313
 5115SOL    HW116091   1.743   5.068   2.800 -0.0398  1.4516 -1.0064
 5115SOL    HW216092   1.885   5.111   2.833 -0.7193  3.1086 -0.1538
 5116SOL     OW16093   5.812   4.244   2.982 -0.8369 -0.1074 -0.4809
 5116SOL    HW116094   5.858   4.215   2.903  0.8069 -1.5965  0.9158
 5116SOL    HW216095   5.824   4.339   2.984  2.0794 -0.3922 -0.3338
 5117SOL     OW16096   5.272   1.674   6.289  0.4161  0.0652 -0.2889
 5117SOL    HW116097   5.339   1.627   6.238 -0.9236 -0.1469 -1.9350
 5117SOL    HW216098   5.216   1.606   6.325  0.1047  0.2971 -0.3254
 5118SOL     OW16099   4.224   1.115   0.953 -0.3538 -0.5309 -0.1924
 5118SOL    HW116100   4.139   1.108   0.997 -0.5191  0.1306 -0.3945
 5118SOL    HW216101   4.278   1.047   0.994 -1.1973 -1.4617 -0.5616
 5119SOL     OW16102   4.055   3.383   5.160  0.2683 -0.2932  0.6708
 5119SOL    HW116103   4.099   3.301   5.141 -0.6198 -0.4594 -0.8898
 5119SOL    HW216104   3.961   3.363   5.151 -0.1118  0.3191  2.7401
 5120SOL     OW16105   0.836   3.443   4.802  0.5587 -0.2926  0.1290
 5120SOL    HW116106   0.777   3.382   4.845 -0.5697  0.5464 -0.2009
 5120SOL    HW216107   0.914   3.444   4.859 -0.2154 -0.4925  1.2307
 5121SOL     OW16108   1.791   6.107   4.131 -0.2269 -0.1924 -0.0155
 5121SOL    HW116109   1.798   6.202   4.143 -1.5152  0.1129 -1.3378
 5121SOL    HW216110   1.702   6.086   4.159  0.0731 -1.0344  0.3456
 5122SOL     OW16111   2.578   4.823   0.425 -0.0670  0.0193  0.1607
 5122SOL    HW116112   2.548   4.883   0.493  0.1489  0.2148  0.0872
 5122SOL    HW216113   2.561   4.869   0.343 -0.3727 -0.2359  0.0768
 5123SOL     OW16114   2.269   2.614   5.105  0.3450  0.5015 -0.7775
 5123SOL    HW116115   2.301   2.590   5.192  1.2162  2.2723 -0.5660
 5123SOL    HW216116   2.324   2.564   5.044  1.5476  1.2674 -0.3482
 5124SOL     OW16117   5.330   0.717   3.568  0.1709  0.1248  0.1147
 5124SOL    HW116118   5.262   0.762   3.618  0.2642  1.3950 -0.8405
 5124SOL    HW216119   5.325   0.626   3.597 -1.2041  0.4060  0.8495
 5125SOL     OW16120   6.188   4.173   3.043 -0.0634  0.0436 -0.1214
 5125SOL    HW116121   6.172   4.236   2.973 -1.9814  0.0925  0.2947
 5125SOL    HW216122   6.181   4.088   3.001 -1.7263  0.0599  0.0517
 5126SOL     OW16123   5.067   4.592   5.636  0.0963 -0.2265  0.0241
 5126SOL    HW116124   5.140   4.598   5.696 -1.1177 -0.7006  1.6265
 5126SOL    HW216125   4.993   4.566   5.691 -1.6855  1.9021 -1.1981
 5127SOL     OW16126   4.431   1.210   3.216  0.2853  0.1018 -0.0888
 5127SOL    HW116127   4.402   1.250   3.134  0.9952 -1.9625 -1.4161
 5127SOL    HW216128   4.374   1.249   3.282 -0.6897  1.4188 -1.6108
 5128SOL     OW16129   4.248   6.093   0.119 -0.0843 -0.0229  0.2709
 5128SOL    HW116130   4.245   6.052   0.205  1.6522  0.6530  0.6958
 5128SOL    HW216131   4.269   6.022   0.058  0.4581 -0.1882  0.6512
 5129SOL     OW16132   1.305   4.662   0.401 -0.0064 -0.1012 -0.3754
 5129SOL    HW116133   1.348   4.660   0.316 -0.6700  0.1583 -0.7271
 5129SOL    HW216134   1.313   4.753   0.430 -1.6519  0.3465 -1.1675
 5130SOL     OW16135   1.023   4.727   3.260 -0.4649 -0.2672 -0.5414
 5130SOL    HW116136   1.011   4.746   3.167  1.2899  1.0099 -0.5705
 5130SOL    HW216137   1.113   4.694   3.266  0.9463  3.2451  1.0494
 5131SOL     OW16138   2.984   5.231   2.476 -0.1830 -0.2672  0.0913
 5131SOL    HW116139   2.968   5.215   2.569 -0.0983 -1.9803 -0.1493
 5131SOL    HW216140   2.961   5.323   2.463  1.4326  0.4943  2.1325
 5132SOL     OW16141   0.730   2.442   3.553  0.3524 -0.5575 -0.2157
 5132SOL    HW116142   0.804   2.503   3.551 -1.3391  1.6078  0.2138
 5132SOL    HW216143   0.737   2.399   3.638  1.1775 -0.4880 -0.2369
 5133SOL     OW16144   4.332   5.339   3.403  0.2243  0.5202 -0.5746
 5133SOL    HW116145   4.425   5.318   3.396 -0.0457 -0.7647 -0.6411
 5133SOL    HW216146   4.289   5.273   3.348 -0.7044  1.3086 -0.8122
 5134SOL     OW16147   0.309   6.165   5.905 -0.1673 -0.2380  0.4361
 5134SOL    HW116148   0.299   6.169   6.000  1.4572  2.1791  0.5880
 5134SOL    HW216149   0.242   6.224   5.871  0.4571  0.3546  0.2150
 5135SOL     OW16150   3.865   0.213   0.937  0.2390 -0.2329 -0.1026
 5135SOL    HW116151   3.860   0.124   0.900 -0.1827 -0.2138 -0.0933
 5135SOL    HW216152   3.778   0.250   0.921 -0.0304 -0.3042  1.1236
 5136SOL     OW16153   2.166   1.795   5.279  0.0969  0.0926  0.0254
 5136SOL    HW116154   2.166   1.706   5.242 -2.4109  0.3451 -0.8165
 5136SOL    HW216155   2.229   1.843   5.226  0.2092 -0.7791 -0.6633
 5137SOL     OW16156   6.274   2.189   1.965  0.0256 -0.5133 -0.1462
 5137SOL    HW116157   6.259   2.100   1.933  0.4110 -0.2929 -0.9689
 5137SOL    HW216158   6.318   2.177   2.049  0.4953 -1.1096 -0.4652
 5138SOL     OW16159   4.815   3.026   4.845  0.4995 -0.4449  0.3969
 5138SOL    HW116160   4.831   3.058   4.934  0.1403 -0.5243  0.4922
 5138SOL    HW216161   4.882   2.960   4.831  1.2807  0.3719  0.1807
 5139SOL     OW16162   4.956   0.372   5.537 -0.3448  0.2488 -0.0873
 5139SOL    HW116163   4.956   0.316   5.459 -3.0246  1.6721 -1.2282
 5139SOL    HW216164   4.949   0.310   5.610  0.0136 -1.0312 -1.0951
 5140SOL     OW16165   5.728   6.072   1.384  0.8383 -0.0026  0.1919
 5140SOL    HW116166   5.688   6.024   1.312  1.8136 -0.4405 -0.0728
 5140SOL    HW216167   5.742   6.160   1.349  1.1310 -0.1599 -0.0900
 5141SOL     OW16168   4.269   3.878   1.785  0.3848  0.1674  0.0755
 5141SOL    HW116169   4.335   3.840   1.728  0.8927 -1.5433  1.7164
 5141SOL    HW216170   4.315   3.946   1.834  1.2061 -1.4062  1.6385
 5142SOL     OW16171   1.746   2.920   1.271  0.7197  0.8256  0.3864
 5142SOL    HW116172   1.750   2.929   1.175 -0.1124 -1.1844  0.1224
 5142SOL    HW216173   1.831   2.885   1.295 -0.4339 -2.8896 -0.2498
 5143SOL     OW16174   6.003   0.030   5.262  0.2845  0.1504 -0.0049
 5143SOL    HW116175   5.950   0.088   5.316 -0.2754 -1.4793  1.2618
 5143SOL    HW216176   6.088   0.074   5.256 -1.0896  2.7752 -2.0219
 5144SOL     OW16177   0.218   0.002   4.521 -0.4538 -0.1376  0.2585
 5144SOL    HW116178   0.223   0.091   4.486 -0.9983 -0.2839 -0.2021
 5144SOL    HW216179   0.308  -0.031   4.517 -0.2804  0.3334  0.2803
 5145SOL     OW16180   0.863   3.439   3.062 -0.2530  0.2939 -0.3178
 5145SOL    HW116181   0.945   3.412   3.020 -0.0712  0.1485  0.1194
 5145SOL    HW216182   0.833   3.514   3.012 -0.7322 -0.6658 -1.5418
 5146SOL     OW16183   6.073   5.566   4.135  0.1160  0.4645 -0.3469
 5146SOL    HW116184   6.130   5.550   4.210 -1.0113  2.3259  0.9881
 5146SOL    HW216185   5.994   5.515   4.153 -0.2399  1.0794 -0.1539
 5147SOL     OW16186   0.507   2.597   5.079 -0.1231 -0.2123 -0.1868
 5147SOL    HW116187   0.537   2.659   5.145 -1.3709  0.6579 -0.3966
 5147SOL    HW216188   0.536   2.511   5.112 -2.7516 -0.1458  2.8368
 5148SOL     OW16189   5.074   3.362   2.861  0.2455  0.1162 -0.5140
 5148SOL    HW116190   5.056   3.274   2.896 -1.3814  1.5119  2.4800
 5148SOL    HW216191   4.991   3.391   2.825  0.5875  0.7093 -0.8393
 5149SOL     OW16192   4.461   4.861   3.598 -0.4294 -0.4598 -0.1939
 5149SOL    HW116193   4.448   4.784   3.654 -0.1591  0.2135  0.8199
 5149SOL    HW216194   4.467   4.825   3.510  0.3356 -1.6757  0.3188
 5150SOL     OW16195   2.100   3.040   5.417 -0.9678  0.2953  0.4936
 5150SOL    HW116196   2.051   2.959   5.432 -0.5152 -0.1458 -0.3432
 5150SOL    HW216197   2.187   3.023   5.455 -1.2774  0.8880  1.5130
 5151SOL     OW16198   3.266   1.630   3.717 -0.3375  0.2286  0.1765
 5151SOL    HW116199   3.264   1.595   3.628 -1.5692  0.3668  0.1326
 5151SOL    HW216200   3.254   1.552   3.773  0.2861  0.1606  0.2186
 5152SOL     OW16201   1.930   0.149   2.904  0.7177 -0.3757  0.0260
 5152SOL    HW116202   1.905   0.067   2.947 -1.2511  0.3781  0.4209
 5152SOL    HW216203   1.970   0.201   2.972 -0.8338  0.1482  0.5786
 5153SOL     OW16204   6.045   4.586   0.443  1.0350 -0.0038  0.7324
 5153SOL    HW116205   6.025   4.666   0.394  0.1772  0.4909  1.8410
 5153SOL    HW216206   6.135   4.599   0.474  1.2283  0.1107  0.1542
 5154SOL     OW16207   4.481   5.091   5.625 -0.4895  0.7196  0.0851
 5154SOL    HW116208   4.573   5.080   5.651  0.1303 -0.2776 -2.2820
 5154SOL    HW216209   4.433   5.027   5.678  0.5344 -0.3850 -0.2823
 5155SOL     OW16210   4.386   1.945   2.791 -0.1932 -0.0732 -0.2197
 5155SOL    HW116211   4.370   1.862   2.747  2.3200  0.7111 -2.9803
 5155SOL    HW216212   4.424   1.920   2.876 -2.1666 -1.6663  0.2619
 5156SOL     OW16213   2.158   3.987   5.706  0.1321  0.1411  0.6712
 5156SOL    HW116214   2.164   3.989   5.801 -2.4530  1.3871  0.8971
 5156SOL    HW216215   2.072   4.023   5.686  0.9396  0.7955 -2.1996
 5157SOL     OW16216   4.656   3.065   1.477 -0.4179 -0.4221  0.8429
 5157SOL    HW116217   4.696   3.118   1.546 -0.2742  0.1037  0.3665
 5157SOL    HW216218   4.730   3.033   1.425 -0.6019  1.9377 -1.0492
 5158SOL     OW16219   5.051   2.823   5.282  0.0110 -0.4479 -0.0402
 5158SOL    HW116220   4.967   2.842   5.324 -0.3604 -1.3207 -0.3667
 5158SOL    HW216221   5.097   2.767   5.344  0.4399  0.1814  0.2196
 5159SOL     OW16222   6.017   6.103   3.209  0.0668 -0.2782  0.1679
 5159SOL    HW116223   5.997   6.196   3.201  0.1325 -0.1113  1.5902
 5159SOL    HW216224   5.974   6.077   3.291  1.2940 -1.1391  0.5698
 5160SOL     OW16225   4.763   1.176   0.991  0.1249 -0.1163 -0.5307
 5160SOL    HW116226   4.845   1.213   0.956  0.7641  1.0806  1.9757
 5160SOL    HW216227   4.695   1.235   0.960  0.3215 -0.5565 -1.8340
 5161SOL     OW16228   4.816   3.954   1.067  0.3970  0.2990  0.6944
 5161SOL    HW116229   4.796   3.905   0.988 -0.9273  1.3670  0.3328
 5161SOL    HW216230   4.889   3.906   1.107 -0.6333 -1.7773  0.2324
 5162SOL     OW16231   3.811   4.277   3.657  0.4361 -0.6317 -0.1535
 5162SOL    HW116232   3.836   4.311   3.743  2.1746 -2.1118 -0.0160
 5162SOL    HW216233   3.778   4.189   3.675  0.8682 -0.9754 -1.0096
 5163SOL     OW16234   2.292   4.655   2.554 -0.2309  0.3488  0.1391
 5163SOL    HW116235   2.312   4.649   2.647 -1.6926  1.5257  0.5714
 5163SOL    HW216236   2.361   4.604   2.511  0.3655 -0.3642  1.8597
 5164SOL     OW16237   4.181   5.478   1.373 -0.3294  0.1566  0.9887
 5164SOL    HW116238   4.270   5.484   1.337 -0.3643  0.0870  0.8904
 5164SOL    HW216239   4.147   5.396   1.338 -0.7645  0.6399  0.2587
 5165SOL     OW16240   0.059   6.102   5.198  0.0790 -0.4501 -0.2651
 5165SOL    HW116241   0.059   6.007   5.205  0.8685 -0.5791 -1.6296
 5165SOL    HW216242  -0.010   6.122   5.136  1.3924 -0.3375 -1.7555
 5166SOL     OW16243   4.466   0.034   6.230  0.1931 -0.0561 -0.0547
 5166SOL    HW116244   4.430   0.110   6.275 -0.7968  0.0373 -0.9790
 5166SOL    HW216245   4.518   0.071   6.158 -0.9745 -0.2261 -1.0268
 5167SOL     OW16246   2.580   1.738   0.500 -0.3869  0.2805  0.2309
 5167SOL    HW116247   2.575   1.806   0.433  0.9484 -0.1816 -0.3862
 5167SOL    HW216248   2.674   1.724   0.512 -0.6133 -1.5857  0.1898
 5168SOL     OW16249   2.839   1.970   4.960 -0.4593 -0.1060 -0.4323
 5168SOL    HW116250   2.827   2.061   4.933  1.1643 -0.0211 -0.9382
 5168SOL    HW216251   2.913   1.938   4.908 -1.7976 -2.1295 -1.2339
 5169SOL     OW16252   2.303   5.704   3.631  0.5820 -0.6277 -1.0763
 5169SOL    HW116253   2.250   5.667   3.560 -1.1027  0.0993 -0.2630
 5169SOL    HW216254   2.279   5.653   3.708  0.7968 -0.0379 -0.6119
 5170SOL     OW16255   0.085   2.289   2.644  0.7316 -0.0517  0.1291
 5170SOL    HW116256   0.054   2.308   2.555 -1.4706 -1.7754  0.4359
 5170SOL    HW216257   0.159   2.230   2.631  0.7034  0.0572 -0.5836
 5171SOL     OW16258   2.125   3.427   3.318 -0.0846 -0.0992 -0.5335
 5171SOL    HW116259   2.198   3.418   3.379 -0.5250 -2.0211 -0.2055
 5171SOL    HW216260   2.077   3.344   3.326 -1.7829  0.7439 -1.4083
 5172SOL     OW16261   0.492   0.860   1.821 -0.8828  0.0368  0.3546
 5172SOL    HW116262   0.410   0.841   1.866 -0.8794  0.9011  0.7489
 5172SOL    HW216263   0.466   0.915   1.747 -0.7323 -0.2362  0.0975
 5173SOL     OW16264   6.130   1.797   5.130  0.0888  0.3591  0.4475
 5173SOL    HW116265   6.166   1.834   5.210  0.1855 -0.7860  0.9485
 5173SOL    HW216266   6.059   1.740   5.159 -1.4567  1.7374 -0.4489
 5174SOL     OW16267   4.388   0.390   2.176  0.4298 -0.1700  0.2108
 5174SOL    HW116268   4.406   0.478   2.145  0.5984 -0.2630  0.0428
 5174SOL    HW216269   4.349   0.402   2.263  1.7725  0.0103  0.7984
 5175SOL     OW16270   3.572   4.469   1.903 -0.0475 -0.4624 -0.7082
 5175SOL    HW116271   3.666   4.450   1.906 -0.2110 -1.2092 -0.0172
 5175SOL    HW216272   3.552   4.503   1.990 -0.2318  0.6495 -1.1734
 5176SOL     OW16273   2.107   5.173   1.009  0.0824  0.0583  0.4570
 5176SOL    HW116274   2.063   5.175   0.924 -0.5380  1.4973  0.7920
 5176SOL    HW216275   2.200   5.167   0.987 -0.1400 -0.9638 -0.2883
 5177SOL     OW16276   5.843   3.815   4.183  0.1717 -0.0867 -0.0773
 5177SOL    HW116277   5.790   3.842   4.108 -0.2805  0.2640  0.3644
 5177SOL    HW216278   5.933   3.836   4.158  0.0505 -0.2011 -0.6203
 5178SOL     OW16279   4.793   1.092   5.048  0.4084 -0.4321  0.7653
 5178SOL    HW116280   4.881   1.096   5.010  0.8490  1.8837  1.8936
 5178SOL    HW216281   4.735   1.088   4.972  1.4068 -0.1044 -0.0523
 5179SOL     OW16282   5.444   0.977   0.157 -0.4092 -0.1375  0.1729
 5179SOL    HW116283   5.361   0.979   0.204 -0.2482  0.7709  0.4535
 5179SOL    HW216284   5.455   0.886   0.130 -1.8107 -0.1375 -0.4526
 5180SOL     OW16285   1.153   5.088   2.066 -0.6707  0.1963 -0.3749
 5180SOL    HW116286   1.209   5.103   2.142 -0.2483  0.1666 -0.6739
 5180SOL    HW216287   1.068   5.064   2.102  0.1328 -2.1903  0.1356
 5181SOL     OW16288   5.081   0.894   0.680 -0.4323 -0.2863 -0.1124
 5181SOL    HW116289   5.165   0.858   0.651 -1.0911 -1.2611 -0.8871
 5181SOL    HW216290   5.022   0.878   0.606 -1.3432  0.2299  0.4892
 5182SOL     OW16291   1.717   0.126   0.367  0.4999  0.3301 -0.1511
 5182SOL    HW116292   1.798   0.148   0.412  0.8933 -1.3587  0.0452
 5182SOL    HW216293   1.720   0.175   0.286  1.3007  0.9559  0.2466
 5183SOL     OW16294   3.483   0.169   0.925  0.0806  0.2891 -0.2376
 5183SOL    HW116295   3.463   0.246   0.872  1.0922  0.6523 -0.1250
 5183SOL    HW216296   3.523   0.108   0.864  1.8223  0.9490  0.1830
 5184SOL     OW16297   3.130   4.995   4.229 -0.8285 -0.1914 -0.1031
 5184SOL    HW116298   3.179   4.965   4.305 -0.3573  2.3695  0.6883
 5184SOL    HW216299   3.148   4.929   4.162 -0.4853 -2.0198  1.6746
 5185SOL     OW16300   0.286   2.114   6.241 -0.1320 -0.3130  0.0147
 5185SOL    HW116301   0.347   2.112   6.167  1.0187 -1.4337  0.9515
 5185SOL    HW216302   0.337   2.148   6.314 -1.5968  1.9911  0.0773
 5186SOL     OW16303   1.742   1.137   1.137  0.1337  0.3183  0.2862
 5186SOL    HW116304   1.832   1.159   1.163  0.4191  0.5392 -0.8364
 5186SOL    HW216305   1.687   1.180   1.202  0.8026  1.5564  0.0644
 5187SOL     OW16306   3.979   0.634   6.098 -0.2172  0.1437 -0.0172
 5187SOL    HW116307   3.949   0.607   6.011 -0.8309  1.3222 -0.1954
 5187SOL    HW216308   3.928   0.712   6.118 -0.4758 -0.4031  1.6497
 5188SOL     OW16309   0.877   1.936   1.360  0.3971  0.6645 -0.2327
 5188SOL    HW116310   0.962   1.953   1.319  0.0175  3.1547 -0.1280
 5188SOL    HW216311   0.860   1.844   1.340  1.7522  0.8520 -2.8334
 5189SOL     OW16312   1.435   3.465   3.515 -0.1771 -0.2176 -0.1322
 5189SOL    HW116313   1.479   3.415   3.446  1.0127  2.8356 -1.8115
 5189SOL    HW216314   1.342   3.454   3.496  0.0074 -2.0827 -0.1438
 5190SOL     OW16315   2.484   0.952   5.073  0.8131 -0.0869  0.6647
 5190SOL    HW116316   2.504   0.995   4.990 -1.2309 -1.1367 -0.4455
 5190SOL    HW216317   2.420   1.009   5.116  1.1086 -0.0509  1.0682
 5191SOL     OW16318   3.934   4.893   0.338  0.0191 -0.6099 -0.1829
 5191SOL    HW116319   3.877   4.821   0.312 -0.9853  0.5882 -1.4185
 5191SOL    HW216320   3.883   4.942   0.402 -1.0581  1.3077 -2.3571
 5192SOL     OW16321   2.437   0.144   1.152  0.3692 -0.0697 -0.0520
 5192SOL    HW116322   2.521   0.102   1.169 -0.5917 -1.4093  1.8899
 5192SOL    HW216323   2.374   0.091   1.201 -1.9411 -0.2997 -3.0005
 5193SOL     OW16324   2.106   3.446   0.814 -0.1030 -0.1077 -1.0053
 5193SOL    HW116325   2.028   3.468   0.764  0.4468 -0.3578 -1.9915
 5193SOL    HW216326   2.173   3.506   0.782 -0.1766  1.0158  0.7580
 5194SOL     OW16327   5.570   2.028   1.508 -0.1820 -0.4624  0.5790
 5194SOL    HW116328   5.527   2.113   1.508 -0.4311 -0.5623 -0.7231
 5194SOL    HW216329   5.663   2.048   1.507 -0.2083 -0.0999 -2.0571
 5195SOL     OW16330   5.221   0.733   4.005  0.0227  0.2900 -0.3851
 5195SOL    HW116331   5.164   0.766   3.936  0.9166  0.4959 -1.0403
 5195SOL    HW216332   5.263   0.656   3.967  0.2275  0.1730  0.0656
 5196SOL     OW16333   3.835   3.948   3.466  0.3729  0.4752 -0.1110
 5196SOL    HW116334   3.825   3.999   3.385 -0.8195  2.0987  0.9918
 5196SOL    HW216335   3.916   3.979   3.504  1.0237 -0.4130 -0.7371
 5197SOL     OW16336   1.838   2.328   0.331 -0.9997 -0.6603  0.2437
 5197SOL    HW116337   1.758   2.296   0.288 -0.5258 -0.9513 -0.4522
 5197SOL    HW216338   1.807   2.395   0.392 -1.7962 -0.9105  0.1329
 5198SOL     OW16339   3.999   1.144   6.289 -0.3064 -0.2377  0.1406
 5198SOL    HW116340   3.993   1.144   6.194  1.2355  1.3785 -0.0091
 5198SOL    HW216341   3.918   1.103   6.318 -1.4933  0.5817 -1.8180
 5199SOL     OW16342   4.044   1.722   2.708  1.0612  0.0261  0.7378
 5199SOL    HW116343   4.049   1.635   2.748 -1.4575  0.3280  1.8702
 5199SOL    HW216344   3.956   1.727   2.671  2.1668  1.0350 -2.0468
 5200SOL     OW16345   0.960   2.619   5.242 -0.5619  0.3569  0.2743
 5200SOL    HW116346   0.912   2.538   5.256 -1.3196  0.7175 -0.2141
 5200SOL    HW216347   1.006   2.606   5.160 -0.6225  0.3967  0.2347
 5201SOL     OW16348   4.891   6.265   4.211  0.7634  0.0489  0.4804
 5201SOL    HW116349   4.858   6.235   4.295 -0.5122  1.8310  0.6691
 5201SOL    HW216350   4.833   6.337   4.186  1.0113 -0.4981 -2.0008
 5202SOL     OW16351   5.068   0.234   2.617  0.1068 -0.5099  0.0650
 5202SOL    HW116352   5.081   0.143   2.642 -0.3277 -0.6033 -0.0501
 5202SOL    HW216353   5.157   0.270   2.612  0.2271 -0.4910  1.7315
 5203SOL     OW16354   3.890   3.261   0.354 -0.5571  0.0901 -0.3107
 5203SOL    HW116355   3.840   3.239   0.432  0.7961 -1.9980  0.0496
 5203SOL    HW216356   3.924   3.177   0.323 -0.7212  0.9147 -2.9328
 5204SOL     OW16357   5.335   2.595   1.033 -0.0405  0.2745  0.1361
 5204SOL    HW116358   5.254   2.586   1.082  0.1233 -1.4776  0.1282
 5204SOL    HW216359   5.358   2.506   1.006  2.2754  0.5924  0.7867
 5205SOL     OW16360   0.478   5.546   0.308  0.6290 -0.0420  0.0375
 5205SOL    HW116361   0.445   5.558   0.398  2.1770 -1.1470  0.8038
 5205SOL    HW216362   0.510   5.455   0.306  1.3012  0.1979 -1.4078
 5206SOL     OW16363   1.557   3.309   0.490 -0.1334  0.1004  0.0377
 5206SOL    HW116364   1.567   3.327   0.397  1.6676 -1.0261 -0.0290
 5206SOL    HW216365   1.509   3.226   0.493 -0.2698  0.1808  0.1356
 5207SOL     OW16366   3.085   4.888   3.654  0.3968 -0.3228  0.2451
 5207SOL    HW116367   3.114   4.959   3.597  1.3357  0.2417  1.3624
 5207SOL    HW216368   3.081   4.928   3.741 -2.0336 -0.8807  0.4382
 5208SOL     OW16369   5.490   3.875   6.056 -0.2350 -0.0822 -0.3803
 5208SOL    HW116370   5.505   3.789   6.017  0.1627 -0.0727 -0.2566
 5208SOL    HW216371   5.575   3.899   6.094 -0.1021  0.7273 -1.1458
 5209SOL     OW16372   6.007   5.051   0.502  0.2777  0.1955  0.4011
 5209SOL    HW116373   6.043   5.053   0.414 -1.0593  1.4610 -0.1709
 5209SOL    HW216374   6.039   5.131   0.543  0.3855 -0.0736  0.8499
 5210SOL     OW16375   2.489   0.862   5.330  0.0472 -0.0988  0.1178
 5210SOL    HW116376   2.399   0.840   5.352  0.2216 -0.2600  0.7012
 5210SOL    HW216377   2.492   0.861   5.235 -0.7518  0.6642  0.0699
 5211SOL     OW16378   0.623   1.186   4.198  0.2867  0.4363 -0.4758
 5211SOL    HW116379   0.578   1.269   4.215 -1.1664 -0.3912 -0.0778
 5211SOL    HW216380   0.552   1.123   4.187  1.3424 -1.1314  1.1500
 5212SOL     OW16381   4.135   4.127   1.191  0.4073  0.1629 -0.3512
 5212SOL    HW116382   4.084   4.181   1.252 -0.4369 -1.4655  0.4491
 5212SOL    HW216383   4.200   4.085   1.247  1.5049  0.8340 -1.0807
 5213SOL     OW16384   0.798   0.049   5.254  0.3189 -0.2932 -0.3040
 5213SOL    HW116385   0.790   0.090   5.168 -0.5533  1.3747  0.5177
 5213SOL    HW216386   0.741  -0.028   5.249  0.3246 -0.2556 -1.2197
 5214SOL     OW16387   4.103   5.863   1.421 -0.1449  0.2153  0.4105
 5214SOL    HW116388   4.054   5.887   1.342  0.1968 -3.2098 -1.0308
 5214SOL    HW216389   4.194   5.862   1.393  0.1406  0.4489  1.2988
 5215SOL     OW16390   4.568   3.968   1.463  0.1676 -0.0895 -0.3798
 5215SOL    HW116391   4.587   4.062   1.457 -0.8438  0.0916 -0.9464
 5215SOL    HW216392   4.478   3.960   1.432 -0.3625 -1.0313  1.3191
 5216SOL     OW16393   2.682   0.826   0.543  0.3396  0.1161  0.1513
 5216SOL    HW116394   2.772   0.793   0.533  0.6073  0.4358  1.4020
 5216SOL    HW216395   2.635   0.755   0.586  0.2529  0.3480  0.4410
 5217SOL     OW16396   2.770   0.273   2.085 -0.0416 -0.4347  0.0659
 5217SOL    HW116397   2.848   0.322   2.058 -1.2107  0.7937 -1.1911
 5217SOL    HW216398   2.805   0.189   2.116  1.7758  0.0919 -0.4080
 5218SOL     OW16399   4.689   2.363   1.067 -0.0595  0.5884  0.3612
 5218SOL    HW116400   4.784   2.362   1.070 -0.0301  1.9759  2.8227
 5218SOL    HW216401   4.666   2.451   1.037 -0.6072 -0.0407 -1.1511
 5219SOL     OW16402   1.793   4.862   4.042 -0.2122 -0.3465 -0.0716
 5219SOL    HW116403   1.770   4.774   4.070 -2.1713  1.0890  3.5070
 5219SOL    HW216404   1.880   4.878   4.079 -0.1620 -0.5372 -0.1090
 5220SOL     OW16405   0.882   1.914   3.614  0.4295 -0.0717  0.3999
 5220SOL    HW116406   0.963   1.962   3.597 -0.1219  0.9706  0.5910
 5220SOL    HW216407   0.906   1.822   3.606  1.9796  0.1485  2.0224
 5221SOL     OW16408   5.912   4.361   0.472  0.4154 -0.0441 -0.2494
 5221SOL    HW116409   5.988   4.304   0.474  0.8086  0.4438 -0.8542
 5221SOL    HW216410   5.948   4.450   0.475 -0.0425  0.2321 -1.9509
 5222SOL     OW16411   3.592   3.457   4.457 -0.6196 -0.1259  0.8294
 5222SOL    HW116412   3.626   3.446   4.546 -1.4356  1.0869  1.3073
 5222SOL    HW216413   3.577   3.551   4.448  0.6956 -0.0342 -1.0655
 5223SOL     OW16414   4.655   3.418   3.275 -0.5307 -0.2816 -0.4286
 5223SOL    HW116415   4.604   3.344   3.241 -1.7135  0.4092 -0.2287
 5223SOL    HW216416   4.744   3.402   3.245 -1.0400 -1.0594 -1.5822
 5224SOL     OW16417   4.780   5.483   4.876 -0.4750 -0.4911  0.5860
 5224SOL    HW116418   4.787   5.563   4.928  1.2985 -0.8017  0.8942
 5224SOL    HW216419   4.784   5.412   4.940 -1.3916 -0.8517  0.2607
 5225SOL     OW16420   3.707   2.282   1.679 -0.2534 -0.1762 -0.7474
 5225SOL    HW116421   3.788   2.333   1.667  0.4994 -1.0869  0.2625
 5225SOL    HW216422   3.689   2.245   1.592  0.7830 -0.4859 -0.8418
 5226SOL     OW16423   5.285   4.622   4.641 -0.2836  0.5161 -0.3864
 5226SOL    HW116424   5.343   4.579   4.578  1.6560  2.0191  0.2651
 5226SOL    HW216425   5.220   4.666   4.586 -0.4018 -0.6196 -1.1883
 5227SOL     OW16426   3.404   2.358   4.758 -0.0900  0.4987 -0.5843
 5227SOL    HW116427   3.498   2.370   4.774  0.0490  0.9140 -1.5742
 5227SOL    HW216428   3.400   2.320   4.670 -0.7563 -1.9861  0.4329
 5228SOL     OW16429   2.455   3.214   3.273  0.1654 -0.4860 -0.4039
 5228SOL    HW116430   2.452   3.290   3.215  1.7111 -0.8452 -1.0008
 5228SOL    HW216431   2.525   3.159   3.237 -1.7163 -2.8235 -0.7186
 5229SOL     OW16432   1.212   2.531   5.435 -0.1555  0.6813 -0.2368
 5229SOL    HW116433   1.294   2.575   5.461 -0.6743  1.6217 -0.1591
 5229SOL    HW216434   1.178   2.585   5.364 -1.3310  1.0104  0.5504
 5230SOL     OW16435   0.819   4.427   5.759 -0.1115  0.0407 -0.2968
 5230SOL    HW116436   0.835   4.516   5.727 -0.9618  0.1103 -0.5721
 5230SOL    HW216437   0.809   4.375   5.680  2.1164 -0.6743 -0.1680
 5231SOL     OW16438   4.884   2.163   0.297 -0.3617  0.5213  0.0163
 5231SOL    HW116439   4.912   2.167   0.389 -0.4778 -2.4115  0.2796
 5231SOL    HW216440   4.813   2.226   0.291  1.7708  3.2239  1.0373
 5232SOL     OW16441   1.301   3.025   1.883  0.1134  0.2660 -0.0004
 5232SOL    HW116442   1.341   3.056   1.802 -1.1883 -0.4648 -0.9640
 5232SOL    HW216443   1.207   3.021   1.864 -0.1087 -0.9824  1.1664
 5233SOL     OW16444   2.944   0.483   6.273  0.4624  0.1863  0.1433
 5233SOL    HW116445   2.955   0.479   6.368  2.3074  2.5065  0.1210
 5233SOL    HW216446   2.919   0.574   6.256 -1.4615 -0.5817 -1.5141
 5234SOL     OW16447   4.818   3.326   3.484  0.9542 -0.1933  0.4313
 5234SOL    HW116448   4.725   3.303   3.474  0.9409 -0.3058  0.8217
 5234SOL    HW216449   4.817   3.406   3.536  0.9436  1.3133 -1.7639
 5235SOL     OW16450   4.117   3.319   1.800 -0.2740 -0.0965  0.1064
 5235SOL    HW116451   4.091   3.228   1.787  1.1075 -0.2311 -2.2195
 5235SOL    HW216452   4.212   3.319   1.787 -0.2471  1.6928  0.0216
 5236SOL     OW16453   4.711   0.903   5.390 -0.0219 -0.3073 -0.2455
 5236SOL    HW116454   4.688   0.981   5.339  0.3519 -0.4106 -0.5775
 5236SOL    HW216455   4.778   0.934   5.451 -0.3404 -0.2245  0.0645
 5237SOL     OW16456   4.737   5.472   3.218 -0.1052  0.3050  0.1849
 5237SOL    HW116457   4.791   5.400   3.184 -1.9101 -1.4003  0.7633
 5237SOL    HW216458   4.798   5.525   3.270  1.2384 -0.9060 -0.0988
 5238SOL     OW16459   0.427   2.209   3.412  0.2159 -0.2879  0.3750
 5238SOL    HW116460   0.381   2.140   3.364  0.2035  1.1340 -1.8137
 5238SOL    HW216461   0.360   2.275   3.429  0.6929  0.2211  0.3038
 5239SOL     OW16462   4.049   2.229   0.533 -0.1026 -0.4470 -0.1542
 5239SOL    HW116463   4.029   2.321   0.516 -1.3289 -0.4100  1.3165
 5239SOL    HW216464   4.067   2.225   0.627  0.2811 -1.6548 -0.2630
 5240SOL     OW16465   3.822   4.851   5.238 -0.1180  0.2359 -0.1815
 5240SOL    HW116466   3.733   4.818   5.244  0.1175 -0.5568 -0.7953
 5240SOL    HW216467   3.873   4.777   5.204  0.3718  1.3111 -1.9437
 5241SOL     OW16468   2.255   1.230   1.265  0.2527 -0.1740  0.1868
 5241SOL    HW116469   2.260   1.250   1.359 -0.7925 -1.5962  0.5678
 5241SOL    HW216470   2.162   1.221   1.247  0.5276 -2.2936 -0.4389
 5242SOL     OW16471   1.156   3.355   1.163  0.2746 -0.4364  0.1213
 5242SOL    HW116472   1.179   3.267   1.195 -1.1315 -0.1489  2.1635
 5242SOL    HW216473   1.077   3.377   1.212  1.0240  2.2848  0.2290
 5243SOL     OW16474   5.555   5.909   4.696 -0.2048 -0.5622 -0.2296
 5243SOL    HW116475   5.610   5.892   4.620 -0.2971 -1.4760 -0.1030
 5243SOL    HW216476   5.617   5.920   4.768 -0.0561  1.3874 -0.5964
 5244SOL     OW16477   4.132   1.592   3.990  0.6719  0.0745 -0.1478
 5244SOL    HW116478   4.115   1.522   3.928  1.5154  0.6331 -1.0579
 5244SOL    HW216479   4.091   1.669   3.951  0.4396  0.2560  0.4394
 5245SOL     OW16480   2.465   0.943   5.613  0.0209 -0.1002 -0.0002
 5245SOL    HW116481   2.378   0.972   5.638 -0.3853 -1.3933  0.1584
 5245SOL    HW216482   2.458   0.919   5.521 -0.4513 -2.4455  0.5783
 5246SOL     OW16483   3.190   5.098   3.506  0.4748 -0.7741 -0.3578
 5246SOL    HW116484   3.181   5.189   3.477 -1.6541 -0.9982 -0.5576
 5246SOL    HW216485   3.226   5.052   3.431 -0.3610 -0.4416 -0.9846
 5247SOL     OW16486   3.076   2.872   6.089 -0.3453 -0.2532 -0.2760
 5247SOL    HW116487   3.110   2.944   6.037 -0.5439 -0.6495 -0.9719
 5247SOL    HW216488   2.988   2.899   6.114 -0.1705  0.0300  0.0483
 5248SOL     OW16489   5.636   2.552   1.901  0.6541  0.5543 -0.1160
 5248SOL    HW116490   5.639   2.457   1.896 -1.7172  0.3221  1.0197
 5248SOL    HW216491   5.714   2.582   1.855  0.8680 -1.8958 -1.5182
 5249SOL     OW16492   2.439   5.756   5.319  0.1953  0.2335 -0.0110
 5249SOL    HW116493   2.526   5.773   5.282 -0.2324  0.0025 -1.1501
 5249SOL    HW216494   2.456   5.707   5.399  1.1035 -0.2424 -0.4804
 5250SOL     OW16495   0.700   2.852   4.021  0.3321  0.0719 -0.5005
 5250SOL    HW116496   0.760   2.914   4.062  0.5258  0.6960 -1.6846
 5250SOL    HW216497   0.746   2.768   4.024  0.2858  0.0696  0.6449
 5251SOL     OW16498   4.746   5.228   4.175 -0.1327  0.2824  0.2058
 5251SOL    HW116499   4.651   5.225   4.175 -0.1957  1.5917 -0.6050
 5251SOL    HW216500   4.768   5.321   4.166  1.2416  0.1501  1.6987
 5252SOL     OW16501   5.575   2.649   5.769  0.3425 -0.4391  0.4940
 5252SOL    HW116502   5.640   2.578   5.761  1.4771  0.3984  1.8139
 5252SOL    HW216503   5.617   2.725   5.728 -0.9432 -0.5229 -1.0749
 5253SOL     OW16504   2.286   3.489   2.717 -0.7218  0.0494  0.2127
 5253SOL    HW116505   2.337   3.417   2.754 -0.7227 -0.8075 -1.3835
 5253SOL    HW216506   2.345   3.565   2.722 -0.5950 -0.1096  1.5831
 5254SOL     OW16507   1.739   1.606   3.632  0.2120 -0.0652 -0.1295
 5254SOL    HW116508   1.794   1.528   3.636  0.6175  0.2508  0.7157
 5254SOL    HW216509   1.796   1.674   3.597  0.4810  0.3421  1.0408
 5255SOL     OW16510   1.156   1.320   3.339  0.1845 -0.4400  0.3467
 5255SOL    HW116511   1.090   1.275   3.285  1.6395 -0.0856 -1.8591
 5255SOL    HW216512   1.105   1.378   3.396 -1.4444  0.6766 -2.0674
 5256SOL     OW16513   2.778   5.338   4.038  0.1660 -0.6116  0.1936
 5256SOL    HW116514   2.838   5.410   4.059 -0.0877  0.2387 -1.8095
 5256SOL    HW216515   2.822   5.288   3.970 -0.2437 -1.5860  0.6285
 5257SOL     OW16516   1.625   1.175   4.807  0.2034 -0.0828 -0.7246
 5257SOL    HW116517   1.690   1.222   4.860  1.4043 -0.7785 -1.5333
 5257SOL    HW216518   1.664   1.172   4.720 -0.7734 -0.8345 -1.1474
 5258SOL     OW16519   5.402   1.251   1.108  0.0862 -0.4917  0.7333
 5258SOL    HW116520   5.415   1.240   1.014 -0.4232 -0.9592  0.7137
 5258SOL    HW216521   5.336   1.186   1.131 -0.0920 -0.1043  1.3408
 5259SOL     OW16522   3.666   5.914   5.304  0.4812 -0.3424  0.5693
 5259SOL    HW116523   3.670   5.833   5.355  3.3922 -2.4071 -2.5533
 5259SOL    HW216524   3.748   5.958   5.323  0.8839 -0.3606 -1.0154
 5260SOL     OW16525   2.604   3.813   0.870  0.1353  0.4349 -0.5541
 5260SOL    HW116526   2.568   3.726   0.887 -0.9802  0.8224 -0.8626
 5260SOL    HW216527   2.592   3.826   0.776  2.4678 -0.0132 -0.9806
 5261SOL     OW16528   4.458   3.844   0.919 -0.3998 -0.0760 -0.1193
 5261SOL    HW116529   4.465   3.759   0.963  1.4519 -0.7516 -1.6308
 5261SOL    HW216530   4.472   3.908   0.989 -2.0515 -0.9311  1.0910
 5262SOL     OW16531   3.233   1.616   1.747  0.5425  0.2778  0.7870
 5262SOL    HW116532   3.196   1.594   1.832  0.7678  0.0123  0.8163
 5262SOL    HW216533   3.173   1.578   1.683 -0.2601  1.4573  0.7991
 5263SOL     OW16534   0.312   3.504   4.409  0.6800 -0.1368 -0.4551
 5263SOL    HW116535   0.346   3.571   4.350  0.7729 -0.3150 -0.6060
 5263SOL    HW216536   0.223   3.487   4.377  0.4833  0.2592 -0.1209
 5264SOL     OW16537   4.902   0.683   1.508 -0.1572  0.0368  0.5695
 5264SOL    HW116538   4.927   0.655   1.420 -2.7243 -0.1720 -0.1722
 5264SOL    HW216539   4.892   0.778   1.502  2.3301  0.4154  1.4180
 5265SOL     OW16540   1.209   5.673   0.560  0.3996 -0.2863  0.0600
 5265SOL    HW116541   1.262   5.745   0.594  1.0734 -1.0585  0.7155
 5265SOL    HW216542   1.152   5.713   0.496  0.1486  0.9848  1.0318
 5266SOL     OW16543   5.357   0.534   2.320  0.2972 -0.0242 -0.0125
 5266SOL    HW116544   5.270   0.499   2.341 -0.3052  0.7532 -1.0613
 5266SOL    HW216545   5.340   0.598   2.251  1.8100 -0.4264 -0.8037
 5267SOL     OW16546   3.983   1.508   3.104  0.6702  0.0991 -0.4412
 5267SOL    HW116547   3.909   1.485   3.048  1.2389 -1.1892 -0.7131
 5267SOL    HW216548   4.024   1.583   3.061 -0.2846  0.6297 -0.4491
 5268SOL     OW16549   3.535   1.237   6.139 -0.2439 -0.2580 -0.1253
 5268SOL    HW116550   3.520   1.163   6.080  1.6887 -1.0504  0.2790
 5268SOL    HW216551   3.478   1.220   6.214  0.3341 -1.5195  0.0612
 5269SOL     OW16552   3.062   1.788   3.333 -0.0221  0.0351  0.0955
 5269SOL    HW116553   3.068   1.722   3.264  0.1193  0.2206 -0.0713
 5269SOL    HW216554   3.069   1.872   3.287 -1.3995  0.2146  0.1620
 5270SOL     OW16555   5.028   2.022   0.779  0.0640  0.0811 -0.1620
 5270SOL    HW116556   5.090   1.950   0.788 -1.3168 -0.8978  2.3647
 5270SOL    HW216557   5.064   2.092   0.834  0.2844  0.5484 -0.8782
 5271SOL     OW16558   4.676   6.203   5.535 -0.3861  0.3517 -0.3961
 5271SOL    HW116559   4.665   6.238   5.623  1.6256  2.1205 -0.7730
 5271SOL    HW216560   4.752   6.145   5.541 -0.8734 -0.3404 -0.7702
 5272SOL     OW16561   1.850   6.229   5.657 -0.5065 -0.3741 -0.2056
 5272SOL    HW116562   1.879   6.314   5.692 -2.0660 -0.6917  2.0661
 5272SOL    HW216563   1.768   6.249   5.612 -0.1719 -0.4929 -0.8846
 5273SOL     OW16564   0.100   3.377   2.317 -0.3652  0.1101  0.3309
 5273SOL    HW116565   0.086   3.282   2.307 -0.1823 -0.0948  1.7946
 5273SOL    HW216566   0.011   3.413   2.322 -0.4468  0.1106 -0.8519
 5274SOL     OW16567   4.291   6.155   4.385 -0.5533  0.8888  0.7861
 5274SOL    HW116568   4.365   6.198   4.342 -0.1233  0.9618  1.5692
 5274SOL    HW216569   4.286   6.069   4.343 -0.2934  1.0459  0.4285
 5275SOL     OW16570   2.565   2.079   5.097  0.1533  0.1000 -0.3330
 5275SOL    HW116571   2.592   1.987   5.096 -1.6816 -0.4839  0.1203
 5275SOL    HW216572   2.643   2.127   5.126  1.0164 -1.3462 -0.1838
 5276SOL     OW16573   1.059   3.157   5.982  0.2133 -0.6561 -0.1160
 5276SOL    HW116574   1.095   3.078   6.021  3.0390 -0.0456 -1.2410
 5276SOL    HW216575   1.096   3.160   5.894 -0.2319  1.6193 -0.2987
 5277SOL     OW16576   4.549   1.191   5.558  0.3602 -0.0515 -0.6700
 5277SOL    HW116577   4.563   1.272   5.509 -1.7775  1.2015  0.6214
 5277SOL    HW216578   4.601   1.201   5.637  1.4829 -0.7707 -1.2882
 5278SOL     OW16579   5.098   4.747   5.212 -0.1239  0.0377  0.7047
 5278SOL    HW116580   5.182   4.729   5.169  0.1658 -1.3702  1.7940
 5278SOL    HW216581   5.033   4.711   5.151  0.0682  0.8774 -0.0109
 5279SOL     OW16582   3.440   3.735   0.334 -0.2172 -0.3420 -0.5103
 5279SOL    HW116583   3.451   3.753   0.241 -0.9426 -0.6481 -0.6562
 5279SOL    HW216584   3.448   3.640   0.342  0.2181 -0.2847 -0.2057
 5280SOL     OW16585   2.415   0.904   1.736  0.0623 -0.0876 -0.7643
 5280SOL    HW116586   2.360   0.870   1.665  0.9927  0.7039 -1.9182
 5280SOL    HW216587   2.356   0.915   1.810 -0.7244 -1.9572 -1.0746
 5281SOL     OW16588   0.690   5.658   3.828 -0.2875  0.1204  0.1203
 5281SOL    HW116589   0.742   5.658   3.748 -0.8086 -0.4284 -0.2194
 5281SOL    HW216590   0.628   5.730   3.816 -2.3459 -1.7741 -1.2884
 5282SOL     OW16591   4.402   0.885   0.160  0.7884  0.5475  0.4697
 5282SOL    HW116592   4.348   0.962   0.147  0.2262  0.3988  1.7682
 5282SOL    HW216593   4.390   0.862   0.252  1.8152 -0.4346  0.3899
 5283SOL     OW16594   0.245   5.777   0.481  0.0567  0.2721  0.7626
 5283SOL    HW116595   0.206   5.711   0.539 -1.2179  0.1754 -0.1612
 5283SOL    HW216596   0.183   5.784   0.408  1.1032  1.1562 -0.0657
 5284SOL     OW16597   3.634   5.873   1.082 -0.5075  0.0313  0.7151
 5284SOL    HW116598   3.626   5.812   1.009  1.9005  0.2862  0.1547
 5284SOL    HW216599   3.664   5.819   1.155 -0.6522  0.1648  0.8748
 5285SOL     OW16600   1.812   3.212   3.896 -0.6876 -1.0038  0.2105
 5285SOL    HW116601   1.874   3.190   3.827 -0.3239  0.4201  0.0529
 5285SOL    HW216602   1.733   3.238   3.850 -0.0976  0.9908  0.2499
 5286SOL     OW16603   3.432   0.439   5.578  0.4991 -0.1300  0.1357
 5286SOL    HW116604   3.525   0.440   5.552  0.2115  0.8176 -0.9025
 5286SOL    HW216605   3.390   0.501   5.519 -0.8465 -0.7126  0.4558
 5287SOL     OW16606   3.004   3.940   2.803 -0.5153 -0.0524 -0.1088
 5287SOL    HW116607   3.098   3.935   2.822 -0.3106 -0.5620 -1.2171
 5287SOL    HW216608   2.976   4.023   2.843  0.3457 -0.0246  0.4559
 5288SOL     OW16609   0.910   0.652   1.840 -0.4172 -0.2406 -0.2889
 5288SOL    HW116610   0.953   0.616   1.762 -0.5890  2.9313 -2.0170
 5288SOL    HW216611   0.974   0.714   1.876 -2.1670  2.1268 -1.0047
 5289SOL     OW16612   5.246   3.616   5.114 -0.4329 -0.4704 -0.2576
 5289SOL    HW116613   5.234   3.525   5.140 -1.5668  0.0685  1.3320
 5289SOL    HW216614   5.296   3.655   5.186 -1.2362  0.4790 -0.1895
 5290SOL     OW16615   1.264   0.230   4.306  0.3009 -0.1869  0.0457
 5290SOL    HW116616   1.327   0.302   4.302  1.3994 -1.0936  0.4794
 5290SOL    HW216617   1.240   0.225   4.398  0.4626 -0.5707  0.0672
 5291SOL     OW16618   0.185   0.962   2.739 -0.3558 -0.6205 -0.5039
 5291SOL    HW116619   0.239   0.903   2.792 -0.5266 -0.3616 -0.0332
 5291SOL    HW216620   0.111   0.984   2.796 -0.7502 -0.6473 -0.9912
 5292SOL     OW16621   4.317   5.777   1.822 -0.4224  0.5018  0.9285
 5292SOL    HW116622   4.252   5.721   1.779 -0.2444  0.9903  0.0056
 5292SOL    HW216623   4.293   5.773   1.915 -0.1243 -1.4782  0.9693
 5293SOL     OW16624   4.329   1.279   1.178  0.4294 -0.5315  0.4257
 5293SOL    HW116625   4.306   1.253   1.089  1.9547  1.3548 -0.5893
 5293SOL    HW216626   4.246   1.305   1.218 -0.2383 -1.1686 -0.5006
 5294SOL     OW16627   1.776   6.133   5.015  0.0350 -1.0119 -0.1149
 5294SOL    HW116628   1.696   6.084   5.001  0.4446 -1.8355  0.3729
 5294SOL    HW216629   1.778   6.198   4.944  0.1213 -2.5255 -1.5430
 5295SOL     OW16630   0.514   1.220   4.658 -0.2054 -0.0455 -0.2528
 5295SOL    HW116631   0.479   1.154   4.598 -0.2735 -1.5987  1.3815
 5295SOL    HW216632   0.585   1.174   4.704  0.2162  1.2604  0.4373
 5296SOL     OW16633   1.130   0.883   5.214  0.3751  0.5868  0.1614
 5296SOL    HW116634   1.109   0.939   5.289 -0.0155 -0.0547  0.5416
 5296SOL    HW216635   1.116   0.939   5.138  0.2073  1.0762  0.5463
 5297SOL     OW16636   4.077   0.962   2.343 -0.1451  0.2598 -0.1568
 5297SOL    HW116637   4.017   1.011   2.398 -0.9199 -0.5370 -0.2722
 5297SOL    HW216638   4.055   0.987   2.253  1.0955  1.5328 -0.1370
 5298SOL     OW16639   4.272   6.205   6.112  0.0474  0.0736  0.6095
 5298SOL    HW116640   4.338   6.248   6.166 -0.4530  0.3334  1.0250
 5298SOL    HW216641   4.268   6.115   6.145  2.0965 -0.7323 -1.1779
 5299SOL     OW16642   5.765   4.742   3.884 -0.5206 -0.0716  0.2957
 5299SOL    HW116643   5.757   4.718   3.792 -1.0722  0.0344  0.3132
 5299SOL    HW216644   5.759   4.658   3.931 -0.7091 -0.0792  0.2598
 5300SOL     OW16645   2.530   5.345   4.307  0.6118 -0.1494  0.2579
 5300SOL    HW116646   2.474   5.414   4.342  0.9404  0.4001 -0.2686
 5300SOL    HW216647   2.544   5.370   4.216  0.6089 -1.0016  0.0139
 5301SOL     OW16648   2.564   3.897   5.732 -0.3399  0.2799 -0.0032
 5301SOL    HW116649   2.491   3.837   5.746  0.0034  0.2296  1.7999
 5301SOL    HW216650   2.526   3.984   5.742 -0.1428  0.2494  1.1351
 5302SOL     OW16651   1.177   3.681   5.935 -0.0496  0.3639  0.1750
 5302SOL    HW116652   1.211   3.668   5.847  1.4700  1.8079  0.4791
 5302SOL    HW216653   1.179   3.776   5.947  0.3713  0.1663  1.9738
 5303SOL     OW16654   3.817   4.720   3.791 -0.1242  1.1246 -0.9184
 5303SOL    HW116655   3.737   4.757   3.826 -0.6383  0.3866 -1.2771
 5303SOL    HW216656   3.813   4.627   3.814  0.6134  1.0722 -0.9644
 5304SOL     OW16657   6.278   6.293   4.880  0.1998 -0.3363  0.0250
 5304SOL    HW116658   6.234   6.237   4.944 -0.8796  1.5598  1.0571
 5304SOL    HW216659   6.372   6.280   4.896 -0.0483 -1.0460  0.9473
 5305SOL     OW16660   4.182   4.815   2.978 -0.2829 -0.3252  1.1171
 5305SOL    HW116661   4.261   4.866   2.964 -1.4560  1.9045  2.1659
 5305SOL    HW216662   4.173   4.810   3.073 -0.7561 -1.6552  1.0306
 5306SOL     OW16663   2.562   2.816   4.489 -0.8603 -0.4603  0.0005
 5306SOL    HW116664   2.654   2.809   4.465 -0.8120 -0.7968  0.2684
 5306SOL    HW216665   2.562   2.860   4.574 -0.8208 -1.9427  0.8136
 5307SOL     OW16666   0.533   1.060   2.796 -0.4642  0.6993 -0.7780
 5307SOL    HW116667   0.470   1.033   2.863 -0.5018  1.2292 -0.5921
 5307SOL    HW216668   0.618   1.028   2.828 -0.7709 -0.9862 -1.5699
 5308SOL     OW16669   4.798   2.565   5.583 -0.0974 -0.6184  0.5634
 5308SOL    HW116670   4.704   2.585   5.584 -0.1866 -0.4825 -1.9604
 5308SOL    HW216671   4.803   2.480   5.539  0.9356 -0.7796  0.9774
 5309SOL     OW16672   1.201   5.254   0.333  0.3659 -0.2354  0.1805
 5309SOL    HW116673   1.122   5.308   0.328  0.1506 -0.2610  2.3475
 5309SOL    HW216674   1.254   5.294   0.401  2.8477  0.4559 -1.9881
 5310SOL     OW16675   1.523   4.171   0.956 -0.0971  0.4533  0.1285
 5310SOL    HW116676   1.554   4.166   0.865 -0.0990  1.3329  0.0707
 5310SOL    HW216677   1.496   4.082   0.977  0.1595  0.1849 -0.6478
 5311SOL     OW16678   0.241   0.650   4.430 -0.4919 -0.5427 -0.1668
 5311SOL    HW116679   0.334   0.628   4.428 -0.0458  1.1718 -0.0562
 5311SOL    HW216680   0.218   0.668   4.339 -0.1120  1.1530  0.0216
 5312SOL     OW16681   6.140   2.596   4.857 -0.0980  0.7294 -0.3086
 5312SOL    HW116682   6.092   2.676   4.877 -3.5564 -1.1981 -0.0859
 5312SOL    HW216683   6.170   2.564   4.942 -1.9627  0.0113  0.1393
 5313SOL     OW16684   2.453   1.246   2.476  0.0118  0.3409 -0.5603
 5313SOL    HW116685   2.429   1.176   2.537  1.3572 -0.1715 -0.5807
 5313SOL    HW216686   2.382   1.310   2.484 -0.8316 -0.6377  0.0672
 5314SOL     OW16687   0.476   4.398   0.633 -0.3417 -0.5824  0.4087
 5314SOL    HW116688   0.476   4.335   0.560 -2.7409  0.5637 -0.7171
 5314SOL    HW216689   0.438   4.349   0.706 -0.3727 -1.0138  0.1115
 5315SOL     OW16690   3.517   1.962   6.150 -0.2203  0.3788 -0.1204
 5315SOL    HW116691   3.559   2.042   6.182  0.3432 -0.1407  0.4734
 5315SOL    HW216692   3.576   1.928   6.084  0.2951 -0.3300  0.6851
 5316SOL     OW16693   5.828   2.052   3.956 -0.2507  0.2427 -0.3252
 5316SOL    HW116694   5.862   2.102   4.030  0.2041 -0.4169 -0.0878
 5316SOL    HW216695   5.862   2.098   3.879 -2.3617  2.1385 -0.2261
 5317SOL     OW16696   3.229   3.278   4.732  0.2379 -0.1123 -0.0466
 5317SOL    HW116697   3.253   3.296   4.641  1.0497 -2.8276 -0.4545
 5317SOL    HW216698   3.144   3.233   4.727  0.6069 -0.8956  0.4496
 5318SOL     OW16699   0.179   0.767   0.923 -0.4267 -0.1308  0.2462
 5318SOL    HW116700   0.124   0.701   0.964 -1.0167  0.0014 -0.3133
 5318SOL    HW216701   0.117   0.827   0.881  0.1607 -0.4492 -1.1207
 5319SOL     OW16702   2.517   4.423   4.996  0.1682  0.7277  0.0976
 5319SOL    HW116703   2.480   4.336   4.985 -0.8626  1.2714 -1.0404
 5319SOL    HW216704   2.445   4.475   5.032  0.5618  1.2615  0.1265
 5320SOL     OW16705   4.124   2.333   6.234 -0.2482 -0.5738  0.3508
 5320SOL    HW116706   4.150   2.403   6.175  0.6123 -0.2912  1.0487
 5320SOL    HW216707   4.061   2.281   6.184  0.4564 -0.3366 -0.8066
 5321SOL     OW16708   0.777   0.224   0.214  0.3889 -0.2595  0.3129
 5321SOL    HW116709   0.757   0.188   0.300 -0.0662  1.0807  0.7944
 5321SOL    HW216710   0.862   0.187   0.191  0.0784 -1.3736  0.9063
 5322SOL     OW16711   2.813   4.344   1.385 -0.0188 -0.6417 -0.2717
 5322SOL    HW116712   2.904   4.317   1.371 -0.0159 -0.4712 -0.5968
 5322SOL    HW216713   2.761   4.275   1.344  0.0127  0.7462 -2.8320
 5323SOL     OW16714   3.252   2.887   2.501  0.0399 -0.2862  0.8013
 5323SOL    HW116715   3.304   2.824   2.451 -1.4079 -0.2390 -0.8374
 5323SOL    HW216716   3.176   2.837   2.531 -0.0529  0.1729  1.3616
 5324SOL     OW16717   1.428   0.111   1.506 -0.1715 -0.2641 -0.6668
 5324SOL    HW116718   1.425   0.154   1.420  0.6344  2.1394  0.4045
 5324SOL    HW216719   1.521   0.104   1.526 -0.3430 -1.1433 -0.1242
 5325SOL     OW16720   4.878   3.672   0.059  0.0675 -0.2053  0.0586
 5325SOL    HW116721   4.850   3.735   0.125 -0.1863  0.0020 -0.2434
 5325SOL    HW216722   4.965   3.703   0.032  0.2599 -0.4078  0.4401
 5326SOL     OW16723   1.463   0.002   6.020  0.4496  0.2911 -0.1368
 5326SOL    HW116724   1.415   0.059   5.960  1.2755  0.7760 -0.3590
 5326SOL    HW216725   1.397  -0.029   6.082 -0.0067  1.5313  0.0247
 5327SOL     OW16726   0.112   0.071   5.827 -0.0911 -0.0518  0.8881
 5327SOL    HW116727   0.075   0.119   5.901 -2.1415 -0.9866  0.5246
 5327SOL    HW216728   0.037   0.047   5.774  1.2557 -0.2252 -1.0362
 5328SOL     OW16729   1.549   5.582   2.896  0.0499 -0.4886 -0.2602
 5328SOL    HW116730   1.562   5.509   2.836  1.1729  2.1395 -3.5199
 5328SOL    HW216731   1.485   5.639   2.852  0.1743  1.1114  1.5045
 5329SOL     OW16732   3.892   3.848   1.656 -0.6052 -0.6474  0.2117
 5329SOL    HW116733   3.876   3.792   1.580  0.0060  0.8851 -1.1076
 5329SOL    HW216734   3.810   3.897   1.667 -0.4841 -0.4186  0.1181
 5330SOL     OW16735   6.106   2.816   5.114  0.7698 -0.0824  0.1093
 5330SOL    HW116736   6.047   2.744   5.137 -1.7995  0.6362 -3.4282
 5330SOL    HW216737   6.079   2.888   5.172 -0.0589 -0.5358  0.3119
 5331SOL     OW16738   5.407   2.979   3.138 -0.8670 -0.5451  0.0346
 5331SOL    HW116739   5.441   2.970   3.227  0.4143  0.8810 -0.2737
 5331SOL    HW216740   5.355   3.060   3.141 -0.3382 -0.1709 -0.6318
 5332SOL     OW16741   3.061   5.728   2.162 -0.0047 -0.2505  0.1119
 5332SOL    HW116742   3.142   5.752   2.116  0.2931  0.0446  0.7797
 5332SOL    HW216743   3.091   5.684   2.242 -0.4043  2.2328  1.7257
 5333SOL     OW16744   0.095   2.839   4.777 -0.7306 -0.5627 -0.0201
 5333SOL    HW116745   0.113   2.916   4.832 -0.1577 -1.5728  1.2467
 5333SOL    HW216746   0.005   2.814   4.799 -0.3881 -1.1638  0.7195
 5334SOL     OW16747   2.325   6.220   4.052 -0.4256  0.2341  0.2916
 5334SOL    HW116748   2.357   6.306   4.079 -0.7073  0.7054 -0.8238
 5334SOL    HW216749   2.246   6.239   4.001 -0.6523 -0.7074  0.2745
 5335SOL     OW16750   2.185   4.828   0.009  0.4296 -0.3464  0.0683
 5335SOL    HW116751   2.188   4.733   0.013  1.5925 -0.6159 -3.8290
 5335SOL    HW216752   2.107   4.848  -0.042  0.4314  0.7844  0.4780
 5336SOL     OW16753   6.214   0.693   0.555 -0.1682 -0.2280  0.5772
 5336SOL    HW116754   6.131   0.664   0.517  0.1653 -2.1508  1.2292
 5336SOL    HW216755   6.188   0.742   0.633 -0.6895 -0.2316  0.4118
 5337SOL     OW16756   5.323   4.192   1.373 -0.0886  0.1112 -0.7152
 5337SOL    HW116757   5.363   4.263   1.422 -0.0756  1.2528 -2.2851
 5337SOL    HW216758   5.396   4.136   1.346 -0.1357 -0.7426  0.8269
 5338SOL     OW16759   3.053   0.378   5.331  0.6572  0.2798 -0.3940
 5338SOL    HW116760   3.085   0.466   5.354 -0.9723  0.5336  1.1060
 5338SOL    HW216761   3.095   0.320   5.395 -0.8871  0.4771  0.8823
 5339SOL     OW16762   3.040   5.611   5.332 -0.0457 -0.1279  0.1998
 5339SOL    HW116763   3.079   5.607   5.244  0.0609  0.3876  0.2251
 5339SOL    HW216764   3.104   5.567   5.388  0.9004  1.4322  0.3822
 5340SOL     OW16765   1.153   2.319   5.590 -0.4926 -0.0467 -0.1513
 5340SOL    HW116766   1.170   2.400   5.543  0.4932 -0.6421 -0.8557
 5340SOL    HW216767   1.239   2.293   5.624 -1.0885  0.1092  1.5775
 5341SOL     OW16768   2.483   5.968   2.964 -0.0847  0.1036  0.3891
 5341SOL    HW116769   2.528   5.919   2.896 -0.3206 -1.3631  1.2420
 5341SOL    HW216770   2.549   5.984   3.031 -0.2240  0.1680  0.5131
 5342SOL     OW16771   6.151   4.323   0.658 -0.3614 -0.0631  0.1416
 5342SOL    HW116772   6.117   4.280   0.737 -0.4120 -0.7656 -0.2480
 5342SOL    HW216773   6.147   4.255   0.591  1.6959 -0.1418  0.0379
 5343SOL     OW16774   1.863   2.515   6.174  0.0218  0.1000  0.3422
 5343SOL    HW116775   1.805   2.585   6.146 -2.4095 -0.8537  2.5505
 5343SOL    HW216776   1.811   2.435   6.162  1.0269 -0.8562  2.0027
 5344SOL     OW16777   1.727   5.440   1.645  0.5400  0.2033  0.1344
 5344SOL    HW116778   1.815   5.428   1.608  0.6506 -2.6451  1.0776
 5344SOL    HW216779   1.734   5.520   1.697  2.0093  1.0580 -1.2686
 5345SOL     OW16780   4.666   2.292   1.755 -0.1742 -0.4222 -0.3715
 5345SOL    HW116781   4.604   2.255   1.818 -0.1384  0.9130  0.5075
 5345SOL    HW216782   4.611   2.325   1.684 -0.3459 -0.5979 -0.3212
 5346SOL     OW16783   3.398   0.789   2.636  0.3617  0.0216 -0.1414
 5346SOL    HW116784   3.380   0.697   2.614  0.7763  0.2545 -1.5459
 5346SOL    HW216785   3.467   0.784   2.703 -0.6736 -0.7012  0.9201
 5347SOL     OW16786   2.212   5.018   0.220 -0.2482 -0.0972  0.1197
 5347SOL    HW116787   2.232   4.993   0.129 -1.3857 -0.5214 -0.0244
 5347SOL    HW216788   2.167   4.943   0.257  0.5883 -0.0963  1.1948
 5348SOL     OW16789   3.414   5.715   4.531  0.0728 -0.6723 -0.0970
 5348SOL    HW116790   3.383   5.802   4.555 -0.3689 -0.3370 -1.7256
 5348SOL    HW216791   3.506   5.714   4.557 -0.2978 -0.2822  1.2902
 5349SOL     OW16792   1.332   0.600   2.509 -0.1307 -0.6244  0.6570
 5349SOL    HW116793   1.386   0.673   2.481 -0.2268 -1.3937 -1.8198
 5349SOL    HW216794   1.346   0.593   2.603 -0.2053  2.5963  0.9899
 5350SOL     OW16795   4.382   3.059   5.829  0.3596 -0.3550 -0.5770
 5350SOL    HW116796   4.418   3.016   5.752 -0.7184 -0.8419 -0.8378
 5350SOL    HW216797   4.383   3.152   5.808 -0.1326 -0.5030 -1.2810
 5351SOL     OW16798   4.499   6.228   3.143 -0.1856  0.3398 -0.2314
 5351SOL    HW116799   4.444   6.251   3.218  0.5700  1.5573 -0.0249
 5351SOL    HW216800   4.574   6.183   3.180 -1.0012 -1.3150 -0.5141
 5352SOL     OW16801   2.840   0.923   5.426  0.1144 -0.5350 -0.1538
 5352SOL    HW116802   2.844   1.006   5.474  1.5435 -0.6023 -0.1087
 5352SOL    HW216803   2.753   0.887   5.446  0.6508 -0.5550  2.3750
 5353SOL     OW16804   5.256   2.663   2.968 -0.6300 -0.1342 -0.7384
 5353SOL    HW116805   5.208   2.731   3.016 -0.4937 -0.6448  0.1481
 5353SOL    HW216806   5.218   2.663   2.881 -2.2652 -0.5377 -0.0570
 5354SOL     OW16807   4.420   4.359   1.579 -0.4672  0.2295  0.1761
 5354SOL    HW116808   4.502   4.322   1.547 -1.3750 -1.2010 -0.5872
 5354SOL    HW216809   4.390   4.416   1.507 -0.8310 -0.3432 -0.1293
 5355SOL     OW16810   4.161   5.451   0.632 -0.2809  0.1548  0.0953
 5355SOL    HW116811   4.143   5.526   0.689 -1.0031 -1.4877  2.1346
 5355SOL    HW216812   4.253   5.461   0.607  0.4608  0.2568  2.6525
 5356SOL     OW16813   5.138   4.288   2.678  0.5306  0.2486  0.1063
 5356SOL    HW116814   5.117   4.307   2.770  0.7630  0.7696  0.0532
 5356SOL    HW216815   5.233   4.282   2.676  0.5447  0.5349 -0.1540
 5357SOL     OW16816   5.633   4.106   4.396  0.1615  0.1344 -0.5115
 5357SOL    HW116817   5.723   4.074   4.407 -0.1466 -1.0863 -1.2992
 5357SOL    HW216818   5.630   4.188   4.445  1.0085 -1.0347  1.6122
 5358SOL     OW16819   0.020   4.632   2.700  0.0355  0.1596 -0.2553
 5358SOL    HW116820  -0.014   4.548   2.669  0.2215  0.1089 -0.3259
 5358SOL    HW216821   0.062   4.610   2.784 -3.4993  0.8596  1.9174
 5359SOL     OW16822   2.089   0.380   0.122 -0.2853 -0.0752  0.0960
 5359SOL    HW116823   2.149   0.360   0.050  0.3147 -3.6424  1.4153
 5359SOL    HW216824   2.005   0.396   0.079  0.8038  1.7730 -1.5560
 5360SOL     OW16825   5.426   4.393   1.518  0.4177 -0.1718  0.1703
 5360SOL    HW116826   5.453   4.463   1.458 -0.6007 -0.8591 -1.1388
 5360SOL    HW216827   5.489   4.398   1.590 -0.0124  2.5189  0.4693
 5361SOL     OW16828   2.207   3.970   2.658 -0.1407 -0.3722  0.4792
 5361SOL    HW116829   2.159   3.968   2.575  0.4654 -0.4718  0.1244
 5361SOL    HW216830   2.141   3.950   2.724 -0.9069  0.9991  0.1634
 5362SOL     OW16831   1.466   2.150   2.330  0.3488 -0.1605 -0.1791
 5362SOL    HW116832   1.555   2.155   2.295  1.1204 -0.0521  1.6935
 5362SOL    HW216833   1.473   2.094   2.407 -0.9345  0.9592  0.8055
 5363SOL     OW16834   5.098   4.007   0.985  0.4856  0.0586 -0.6127
 5363SOL    HW116835   5.185   4.048   0.983  0.1062  0.9301 -0.0551
 5363SOL    HW216836   5.102   3.945   1.058  0.4573  0.5430 -0.1939
 5364SOL     OW16837   5.360   3.890   0.123  0.1045  0.5766  0.3689
 5364SOL    HW116838   5.453   3.868   0.130  0.1216  0.6425  0.3531
 5364SOL    HW216839   5.359   3.981   0.092  0.0513 -0.0840 -1.7715
 5365SOL     OW16840   2.413   3.295   1.934 -0.0547  0.3482  0.1115
 5365SOL    HW116841   2.384   3.211   1.968  0.1875  1.0847  2.3173
 5365SOL    HW216842   2.506   3.301   1.959  0.5723  0.3437 -2.0148
 5366SOL     OW16843   1.974   0.740   0.281 -0.2554 -0.3558 -0.1781
 5366SOL    HW116844   1.970   0.747   0.377 -0.1480  0.1680 -0.2108
 5366SOL    HW216845   1.934   0.655   0.262  1.0214 -1.1284  0.4311
 5367SOL     OW16846   2.635   5.649   2.311  0.1109  0.1243  0.4845
 5367SOL    HW116847   2.690   5.673   2.385  0.0106 -1.0645  0.9660
 5367SOL    HW216848   2.685   5.675   2.234  0.4651  0.8499  0.9526
 5368SOL     OW16849   4.003   3.579   1.888  0.3030  0.4171  0.0856
 5368SOL    HW116850   4.091   3.550   1.911 -0.3046  0.1754  2.2778
 5368SOL    HW216851   3.964   3.503   1.843  0.8564  0.1379  0.0674
 5369SOL     OW16852   0.625   1.658   5.520  0.4671  0.3590  0.3592
 5369SOL    HW116853   0.574   1.592   5.567 -0.1170  0.3687 -0.2476
 5369SOL    HW216854   0.701   1.610   5.487 -1.4471 -0.8838 -2.7878
 5370SOL     OW16855   3.143   4.076   0.341  0.0836 -0.3469 -0.1615
 5370SOL    HW116856   3.115   4.122   0.419 -0.5714 -1.6915  0.4367
 5370SOL    HW216857   3.086   4.109   0.271 -0.0077  0.1287  0.1377
 5371SOL     OW16858   4.645   0.631   0.687  0.0247  0.4570 -0.2276
 5371SOL    HW116859   4.591   0.561   0.652  1.1254 -1.0094  0.8809
 5371SOL    HW216860   4.618   0.709   0.638  0.2345 -1.1016 -3.0092
 5372SOL     OW16861   0.155   1.859   0.679 -0.2258 -0.0257 -0.1308
 5372SOL    HW116862   0.239   1.901   0.696 -0.2208  0.0962 -0.4546
 5372SOL    HW216863   0.136   1.878   0.587 -1.3176  1.2261  0.3267
 5373SOL     OW16864   4.242   5.658   0.105  0.6105  0.0562  0.3996
 5373SOL    HW116865   4.186   5.722   0.060 -0.5376 -1.1160  0.1187
 5373SOL    HW216866   4.278   5.707   0.179 -1.9776  0.4935  1.4833
 5374SOL     OW16867   5.557   2.042   5.658 -0.0313 -0.5766 -0.1861
 5374SOL    HW116868   5.565   2.083   5.744  0.3103  0.1811 -0.5658
 5374SOL    HW216869   5.624   2.086   5.604 -0.7462 -0.4890 -1.0330
 5375SOL     OW16870   4.529   4.317   1.965  0.4268  0.1260 -0.3217
 5375SOL    HW116871   4.574   4.397   1.939 -0.9731  0.3716 -2.2209
 5375SOL    HW216872   4.438   4.345   1.977 -0.0255 -1.1136 -0.7546
 5376SOL     OW16873   3.914   2.604   3.850  0.4568  0.0423 -0.2299
 5376SOL    HW116874   3.949   2.693   3.845  0.2306  0.3197  2.0068
 5376SOL    HW216875   3.821   2.617   3.869  0.4638 -0.6800  0.3021
 5377SOL     OW16876   0.627   1.013   3.375  0.1927  0.3043  0.1464
 5377SOL    HW116877   0.694   1.076   3.404  0.0713 -0.3705  1.9977
 5377SOL    HW216878   0.553   1.067   3.348  1.3932  1.0635 -1.8135
 5378SOL     OW16879   3.251   1.991   5.364 -0.0098  0.5724 -0.0881
 5378SOL    HW116880   3.245   2.078   5.324 -0.8212  0.3429 -0.4934
 5378SOL    HW216881   3.331   1.993   5.415  0.3905  1.3037 -0.7271
 5379SOL     OW16882   4.486   4.427   2.589 -0.1589 -0.1802 -0.7451
 5379SOL    HW116883   4.426   4.499   2.609  0.9235  0.2476  1.2207
 5379SOL    HW216884   4.564   4.446   2.641  0.4216 -2.4329 -0.6956
 5380SOL     OW16885   1.612   1.152   3.130 -0.1541  0.3117  0.0599
 5380SOL    HW116886   1.524   1.123   3.103 -0.4663  1.1020  0.2130
 5380SOL    HW216887   1.632   1.225   3.072  0.6071 -0.1529 -0.2782
 5381SOL     OW16888   5.789   5.693   2.613  0.3860 -0.3516 -0.3701
 5381SOL    HW116889   5.845   5.622   2.584  2.9787  1.4551 -0.1597
 5381SOL    HW216890   5.775   5.677   2.706  0.4614 -0.8853 -0.4519
 5382SOL     OW16891   5.911   6.009   0.150  0.7199  0.3650 -0.6749
 5382SOL    HW116892   5.877   6.096   0.169 -0.2255  0.1589 -1.3415
 5382SOL    HW216893   5.932   5.973   0.236 -4.2079 -0.8364  0.3773
 5383SOL     OW16894   5.228   0.703   0.989 -0.0961 -0.1081 -0.1509
 5383SOL    HW116895   5.319   0.726   1.007 -0.2074  1.1374 -1.0690
 5383SOL    HW216896   5.234   0.627   0.930  0.3339 -0.2571  0.0788
 5384SOL     OW16897   4.870   0.840   2.318  0.0385 -0.6651 -0.0458
 5384SOL    HW116898   4.878   0.745   2.310 -0.3571 -0.6232 -0.9932
 5384SOL    HW216899   4.905   0.859   2.405  2.0451 -1.4561 -0.6078
 5385SOL     OW16900   3.801   3.344   5.740 -0.5284 -0.1191 -0.2377
 5385SOL    HW116901   3.720   3.378   5.702 -0.6896 -0.0928  0.1285
 5385SOL    HW216902   3.806   3.254   5.708 -1.6033 -0.6932  1.1255
 5386SOL     OW16903   1.580   4.365   4.402  0.0095 -0.2977 -0.0312
 5386SOL    HW116904   1.506   4.389   4.457 -0.2667 -1.4091  0.1028
 5386SOL    HW216905   1.556   4.280   4.365  1.6943 -1.2315  0.9235
 5387SOL     OW16906   5.638   5.729   3.189  0.3639  0.6222 -0.1953
 5387SOL    HW116907   5.586   5.712   3.268  1.2213  0.5738  0.3712
 5387SOL    HW216908   5.588   5.796   3.141 -1.7551 -1.4945 -1.1674
 5388SOL     OW16909   3.927   2.564   2.232 -0.0137  0.3797  0.4657
 5388SOL    HW116910   3.899   2.560   2.141 -0.5390  0.5709  0.6173
 5388SOL    HW216911   3.995   2.632   2.233 -0.0079  0.3781  0.2208
 5389SOL     OW16912   3.715   2.040   5.572  0.0320 -0.0935 -0.1540
 5389SOL    HW116913   3.779   2.027   5.641  0.7841  0.1976 -0.7870
 5389SOL    HW216914   3.766   2.065   5.495 -0.6972 -1.5028 -1.1305
 5390SOL     OW16915   2.374   5.230   2.963  0.3138  0.1857  0.1965
 5390SOL    HW116916   2.309   5.161   2.977  0.6402 -0.3889 -0.9354
 5390SOL    HW216917   2.454   5.182   2.939 -0.0839  0.9334 -3.1219
 5391SOL     OW16918   3.992   3.585   3.441 -0.1384  0.2363 -0.0417
 5391SOL    HW116919   4.071   3.567   3.493 -0.3876 -0.8986 -0.0283
 5391SOL    HW216920   4.024   3.595   3.351  0.1952  1.3856  0.1823
 5392SOL     OW16921   0.522   1.409   2.135 -0.1461 -0.5407  0.0064
 5392SOL    HW116922   0.599   1.463   2.116  0.0630 -1.1706 -0.9788
 5392SOL    HW216923   0.542   1.324   2.097 -0.4457 -1.3537  1.6127
 5393SOL     OW16924   0.245   0.733   2.883  0.8289  0.6842 -0.6464
 5393SOL    HW116925   0.329   0.722   2.928  1.5103  0.6284 -1.8762
 5393SOL    HW216926   0.180   0.698   2.944  1.9209 -1.2589 -0.5041
 5394SOL     OW16927   5.998   5.865   5.901 -0.2810  0.1241  0.4167
 5394SOL    HW116928   5.915   5.910   5.886 -0.9441 -1.0445  0.3990
 5394SOL    HW216929   6.001   5.850   5.995 -0.0849  0.1688  0.4185
 5395SOL     OW16930   5.769   3.552   3.205  0.2824  0.8312 -0.0901
 5395SOL    HW116931   5.802   3.573   3.118 -1.2576  0.4315 -0.7948
 5395SOL    HW216932   5.712   3.625   3.228 -2.9642 -1.0851 -1.4179
 5396SOL     OW16933   5.092   5.008   0.815 -0.3979  0.0504  0.1089
 5396SOL    HW116934   5.010   4.963   0.834  0.2666 -1.4425 -0.3745
 5396SOL    HW216935   5.142   5.002   0.897  0.0146 -0.8712 -0.1929
 5397SOL     OW16936   0.933   0.018   0.649  0.3896  0.0959  0.4524
 5397SOL    HW116937   0.975   0.102   0.669  0.8262 -0.2591  1.0919
 5397SOL    HW216938   0.859   0.014   0.710  0.4692 -0.0518  0.5402
 5398SOL     OW16939   4.555   2.787   5.912  0.1219  0.0554  0.3925
 5398SOL    HW116940   4.570   2.826   5.826 -0.3701 -0.1472  0.2090
 5398SOL    HW216941   4.617   2.714   5.916 -0.0644 -0.1245  0.0782
 5399SOL     OW16942   2.046   0.150   6.048 -0.3096  0.4292 -0.4097
 5399SOL    HW116943   2.038   0.099   6.129  0.6102  2.4455  1.0609
 5399SOL    HW216944   2.140   0.145   6.027 -0.0948  1.9325  0.1017
 5400SOL     OW16945   4.721   3.319   0.174 -0.1134 -0.5012  0.5357
 5400SOL    HW116946   4.693   3.237   0.135 -0.3086 -0.7760  1.2469
 5400SOL    HW216947   4.641   3.360   0.206 -0.0308  0.0219  0.1017
 5401SOL     OW16948   5.784   5.951   1.606 -0.2570 -0.5363 -0.0418
 5401SOL    HW116949   5.738   6.012   1.664 -0.1565 -0.0400 -0.4751
 5401SOL    HW216950   5.763   5.981   1.518 -0.1366 -1.0815 -0.2625
 5402SOL     OW16951   1.206   4.106   2.340  0.4643 -0.1451  0.0305
 5402SOL    HW116952   1.182   4.197   2.322 -0.1116 -0.5802 -1.6713
 5402SOL    HW216953   1.198   4.063   2.255  2.6493 -1.3827  0.3737
 5403SOL     OW16954   4.155   5.244   4.719 -0.0849 -0.8010  0.5663
 5403SOL    HW116955   4.236   5.223   4.673 -0.3662  0.1190 -0.3846
 5403SOL    HW216956   4.109   5.305   4.661 -0.2676  0.7406  2.2477
 5404SOL     OW16957   0.211   3.747   2.892 -0.2753 -0.8624  0.5380
 5404SOL    HW116958   0.122   3.750   2.856  0.2370  0.7719 -0.6590
 5404SOL    HW216959   0.197   3.734   2.986 -1.8679  0.9678  0.6200
 5405SOL     OW16960   1.904   3.147   2.283 -0.1891  0.0804 -0.4431
 5405SOL    HW116961   1.822   3.194   2.296  0.0987  0.1276  1.6659
 5405SOL    HW216962   1.953   3.162   2.365  1.0082 -1.6993 -0.7765
 5406SOL     OW16963   5.005   0.019   5.662  0.0712  0.0213  0.1135
 5406SOL    HW116964   5.084   0.073   5.658  1.5260 -2.0433 -1.4962
 5406SOL    HW216965   4.938   0.071   5.618  0.6637  1.5525  0.9280
 5407SOL     OW16966   1.258   4.922   5.192 -0.2069  0.1687  0.0124
 5407SOL    HW116967   1.259   4.908   5.287 -0.3377  1.6815  0.2695
 5407SOL    HW216968   1.341   4.887   5.161  0.6537  1.2658  0.9720
 5408SOL     OW16969   4.479   5.257   0.051  0.4809 -0.0349 -0.6903
 5408SOL    HW116970   4.433   5.314  -0.011 -1.3800 -3.1333 -2.4087
 5408SOL    HW216971   4.552   5.222   0.000 -0.4346 -1.7793 -0.8580
 5409SOL     OW16972   3.412   1.922   0.263 -0.0257 -0.3417 -0.2123
 5409SOL    HW116973   3.392   1.949   0.173 -0.0507  0.9981  0.1725
 5409SOL    HW216974   3.505   1.901   0.261 -0.1769 -1.0002 -0.7011
 5410SOL     OW16975   2.058   3.730   6.032  0.1678 -0.4456  0.1948
 5410SOL    HW116976   2.064   3.798   5.966  1.5796 -2.5729 -2.0632
 5410SOL    HW216977   1.987   3.673   6.001  1.3173 -1.8550  0.0648
 5411SOL     OW16978   3.365   3.703   5.918  0.7635 -0.0779 -0.2268
 5411SOL    HW116979   3.438   3.762   5.932  1.4668 -0.7633 -0.8717
 5411SOL    HW216980   3.403   3.615   5.927  0.0518 -0.4446 -0.6820
 5412SOL     OW16981   4.758   0.262   0.444  0.1014 -0.2307  0.0690
 5412SOL    HW116982   4.780   0.170   0.436 -1.1534 -0.4445 -1.5415
 5412SOL    HW216983   4.680   0.264   0.499 -0.8937 -0.3333 -1.2904
 5413SOL     OW16984   3.696   2.908   1.507  0.5423 -0.3465  0.0886
 5413SOL    HW116985   3.624   2.845   1.515 -0.0357  0.3504  0.5181
 5413SOL    HW216986   3.750   2.893   1.584 -0.8759  1.2337  1.4553
 5414SOL     OW16987   1.632   2.847   2.792 -0.1357  0.4253  0.0903
 5414SOL    HW116988   1.629   2.757   2.761  0.0643  0.4111  0.1166
 5414SOL    HW216989   1.702   2.849   2.856  0.1994  0.7151 -0.2751
 5415SOL     OW16990   5.732   1.633   0.511  0.1187  0.6063 -0.5896
 5415SOL    HW116991   5.639   1.656   0.503 -0.0161  0.3393  0.1348
 5415SOL    HW216992   5.776   1.689   0.446 -0.5993  0.3439 -1.3287
 5416SOL     OW16993   0.822   5.858   2.673  0.4227 -0.5723  0.5389
 5416SOL    HW116994   0.885   5.917   2.715  0.0386  1.6061 -1.6682
 5416SOL    HW216995   0.750   5.915   2.647  0.5516 -1.6948 -2.7975
 5417SOL     OW16996   1.093   2.910   1.534  0.1250 -0.2791  0.0426
 5417SOL    HW116997   1.056   2.968   1.468  0.0212  1.3129  1.4483
 5417SOL    HW216998   1.064   2.822   1.507 -0.6479  0.4147 -1.5132
 5418SOL     OW16999   4.869   4.711   2.836  0.1992 -0.6201 -0.4684
 5418SOL    HW117000   4.858   4.806   2.841 -0.4207 -0.7375  0.8699
 5418SOL    HW217001   4.884   4.693   2.743 -0.1532  0.7352 -0.8055
 5419SOL     OW17002   1.600   0.428   1.758  0.6000  0.0558 -0.2417
 5419SOL    HW117003   1.683   0.454   1.797  0.5201 -1.0539  0.7160
 5419SOL    HW217004   1.540   0.420   1.833 -0.0987 -0.1193 -0.8115
 5420SOL     OW17005   1.306   5.131   2.306  0.0654  0.1281 -0.0669
 5420SOL    HW117006   1.252   5.109   2.381  1.1061 -0.5319  0.5229
 5420SOL    HW217007   1.393   5.096   2.328  0.1544 -1.0317 -2.0220
 5421SOL     OW17008   1.538   2.334   6.084  0.4333  0.0938 -0.1502
 5421SOL    HW117009   1.507   2.423   6.068  0.7402  0.2849  0.2876
 5421SOL    HW217010   1.527   2.321   6.178 -1.0505 -0.8910 -0.4178
 5422SOL     OW17011   2.184   3.128   4.125  0.3779  0.2377 -0.2142
 5422SOL    HW117012   2.099   3.171   4.126 -0.3456 -1.1342 -0.7775
 5422SOL    HW217013   2.228   3.161   4.203 -1.1079  0.0961  0.7113
 5423SOL     OW17014   4.222   2.222   2.456  0.2688  0.6779  0.4502
 5423SOL    HW117015   4.142   2.228   2.403  0.1051  0.2783  0.6457
 5423SOL    HW217016   4.217   2.136   2.497  2.2015 -0.5896 -1.7838
 5424SOL     OW17017   4.932   3.370   4.635 -0.2200 -0.0300  0.5010
 5424SOL    HW117018   5.009   3.364   4.692  0.3088 -1.2017 -0.2942
 5424SOL    HW217019   4.934   3.288   4.585 -0.1941  1.2993 -1.7891
 5425SOL     OW17020   1.837   5.827   4.405  0.2426  0.3152  0.3153
 5425SOL    HW117021   1.785   5.779   4.469 -0.8703  1.1713  0.0681
 5425SOL    HW217022   1.872   5.902   4.453  1.3042 -0.2576  0.4847
 5426SOL     OW17023   3.749   0.499   4.219 -0.4514 -0.6767 -0.1133
 5426SOL    HW117024   3.749   0.533   4.129 -0.1554  1.9574  0.7923
 5426SOL    HW217025   3.842   0.498   4.244 -0.5557 -1.1792  0.2685
 5427SOL     OW17026   3.469   0.559   4.952  0.5055  0.2697  0.0956
 5427SOL    HW117027   3.474   0.469   4.986  0.8359  0.8668  1.7448
 5427SOL    HW217028   3.406   0.603   5.010 -0.2271  0.9322 -1.1562
 5428SOL     OW17029   3.331   5.225   5.026  0.2097 -0.4912 -0.6005
 5428SOL    HW117030   3.411   5.240   5.077 -0.0414 -1.8429  0.2189
 5428SOL    HW217031   3.297   5.142   5.058 -2.1858  0.5944 -0.0686
 5429SOL     OW17032   5.807   0.778   3.343  0.1896 -0.1908 -0.6025
 5429SOL    HW117033   5.712   0.783   3.352 -0.0441 -3.1875 -0.3640
 5429SOL    HW217034   5.833   0.864   3.312 -2.6247  0.6561 -0.8743
 5430SOL     OW17035   2.384   0.775   3.744  0.4239  0.0594 -0.2019
 5430SOL    HW117036   2.303   0.824   3.734  1.8137  2.5455 -0.0595
 5430SOL    HW217037   2.425   0.779   3.657  0.9615 -0.1328  0.0391
 5431SOL     OW17038   5.994   5.525   0.618  0.2030 -0.0144 -0.7510
 5431SOL    HW117039   5.990   5.548   0.525  0.3193 -0.3328 -0.8374
 5431SOL    HW217040   5.990   5.429   0.618  0.2499 -0.0147 -0.4301
 5432SOL     OW17041   4.808   2.008   4.877  0.2458 -0.3594 -0.0038
 5432SOL    HW117042   4.751   2.037   4.806 -0.2646  1.5811  1.1178
 5432SOL    HW217043   4.870   2.081   4.889  0.5457 -0.7994  1.2843
 5433SOL     OW17044   6.109   3.456   5.611 -0.1060  0.2713 -0.1263
 5433SOL    HW117045   6.162   3.431   5.687 -0.1100 -0.7093 -0.4281
 5433SOL    HW217046   6.132   3.548   5.595  1.9043 -0.2462 -0.5555
 5434SOL     OW17047   3.888   3.892   2.471  0.5327  0.1951 -0.3398
 5434SOL    HW117048   3.952   3.945   2.517  0.9125  0.5817 -1.3008
 5434SOL    HW217049   3.812   3.949   2.462 -0.0547 -0.3256  0.9706
 5435SOL     OW17050   4.504   3.703   5.764  0.0521  0.3450  0.2118
 5435SOL    HW117051   4.496   3.719   5.858  0.2659  0.1491  0.2628
 5435SOL    HW217052   4.418   3.669   5.738  0.2982 -0.5592  0.5295
 5436SOL     OW17053   1.297   1.702   5.513 -0.0656  0.5320 -0.2552
 5436SOL    HW117054   1.257   1.764   5.575 -1.0033 -1.9049  1.7426
 5436SOL    HW217055   1.378   1.675   5.555  0.7582  0.9825 -1.5062
 5437SOL     OW17056   0.276   0.107   2.997  0.3645 -0.3726 -0.6058
 5437SOL    HW117057   0.307   0.188   2.956  0.5222  0.1162  0.4464
 5437SOL    HW217058   0.286   0.122   3.091 -3.6882  0.0944 -0.0672
 5438SOL     OW17059   0.397   2.097   4.476  0.2923 -0.5394 -0.6784
 5438SOL    HW117060   0.379   2.112   4.383 -0.3270  0.5451 -0.4096
 5438SOL    HW217061   0.420   2.004   4.482 -0.8434 -0.9215 -1.7454
 5439SOL     OW17062   0.034   5.149   2.953  0.1438  0.1396  0.0412
 5439SOL    HW117063  -0.045   5.093   2.954  0.2773 -0.1902  3.5740
 5439SOL    HW217064  -0.000   5.238   2.947 -0.6759  0.0719  2.6707
 5440SOL     OW17065   6.133   3.638   3.069 -0.2820  0.0306  0.1967
 5440SOL    HW117066   6.183   3.577   3.124  1.8289  0.4959 -1.0856
 5440SOL    HW217067   6.091   3.582   3.004  0.9125 -0.1848 -0.4265
 5441SOL     OW17068   5.212   0.150   4.889 -0.1607 -0.0971 -0.5522
 5441SOL    HW117069   5.263   0.069   4.891 -2.1785 -1.4235  0.9447
 5441SOL    HW217070   5.173   0.156   4.976  0.9363  3.2245 -0.1804
 5442SOL     OW17071   5.851   1.775   3.951  0.1298  0.0760 -0.2441
 5442SOL    HW117072   5.825   1.760   4.042 -1.8388 -1.6733 -1.0225
 5442SOL    HW217073   5.850   1.871   3.942 -0.5777  0.2544  1.3361
 5443SOL     OW17074   3.991   3.753   2.857  0.1061  0.6298  0.5687
 5443SOL    HW117075   3.955   3.840   2.837 -1.1333  0.2465  0.9948
 5443SOL    HW217076   3.921   3.710   2.908  1.1281 -0.2216  1.2983
 5444SOL     OW17077   1.715   2.662   5.556 -0.0468 -0.5851  0.5018
 5444SOL    HW117078   1.630   2.648   5.599 -1.5271 -0.9732 -2.3151
 5444SOL    HW217079   1.750   2.574   5.543  0.7536 -0.4313  1.5081
 5445SOL     OW17080   0.271   2.587   4.953  0.2234  0.0669 -0.2133
 5445SOL    HW117081   0.342   2.592   5.016  0.5668  1.8473 -0.6862
 5445SOL    HW217082   0.199   2.636   4.993 -0.2135 -0.4195 -0.3926
 5446SOL     OW17083   3.256   2.392   3.813  0.1234 -0.3716 -0.6708
 5446SOL    HW117084   3.252   2.307   3.769  1.0271 -1.2023  0.7298
 5446SOL    HW217085   3.350   2.411   3.819 -0.0555  0.5015 -0.5689
 5447SOL     OW17086   1.172   0.273   2.691 -0.1778  0.3677  0.7342
 5447SOL    HW117087   1.188   0.292   2.599  0.6087  0.0100  0.7897
 5447SOL    HW217088   1.253   0.232   2.722 -0.2440  0.9292  1.7050
 5448SOL     OW17089   1.869   4.691   3.347  0.0121 -0.1560 -0.5524
 5448SOL    HW117090   1.922   4.625   3.301  1.1230  0.4025 -0.1173
 5448SOL    HW217091   1.866   4.765   3.287 -0.7750 -0.3957 -0.8141
 5449SOL     OW17092   5.757   2.878   2.111  0.0130 -0.2792 -0.2543
 5449SOL    HW117093   5.796   2.882   2.023 -3.7272  1.7338 -2.0653
 5449SOL    HW217094   5.792   2.954   2.157 -0.0560  0.2576 -1.0607
 5450SOL     OW17095   0.558   5.974   0.216  0.1719 -0.3709  0.7098
 5450SOL    HW117096   0.611   5.998   0.293  0.0855  1.6901  0.1966
 5450SOL    HW217097   0.491   5.916   0.250  2.4923 -2.7949  1.4622
 5451SOL     OW17098   1.506   2.091   4.084 -0.0353 -0.3093  0.2868
 5451SOL    HW117099   1.486   2.045   4.166 -1.2795 -0.4075 -0.0572
 5451SOL    HW217100   1.447   2.052   4.020  0.1021  0.5890 -0.3970
 5452SOL     OW17101   0.851   0.689   0.393 -0.0103 -0.0926  0.2677
 5452SOL    HW117102   0.885   0.687   0.303 -0.3341  2.3528  0.0094
 5452SOL    HW217103   0.765   0.730   0.384 -0.1600 -0.0771  1.6637
 5453SOL     OW17104   2.332   6.073   0.597 -0.3622  0.4053 -0.4063
 5453SOL    HW117105   2.365   6.022   0.523  0.1421  0.5841 -0.3099
 5453SOL    HW217106   2.296   6.152   0.558  0.5825  0.8480 -0.4138
 5454SOL     OW17107   1.829   4.751   2.760  0.0597  0.2507  0.3416
 5454SOL    HW117108   1.747   4.736   2.714  0.1340  0.8199  0.0072
 5454SOL    HW217109   1.871   4.822   2.711  0.0331  1.0393  1.4133
 5455SOL     OW17110   3.415   2.477   5.315  0.2002  0.0789 -0.1988
 5455SOL    HW117111   3.429   2.464   5.221 -2.2393  0.6303 -0.7162
 5455SOL    HW217112   3.488   2.533   5.342  2.1561 -1.8033 -1.2370
 5456SOL     OW17113   4.653   4.694   4.465  0.0161  0.5768  0.3385
 5456SOL    HW117114   4.677   4.757   4.397 -0.5703  0.6901  0.2295
 5456SOL    HW217115   4.651   4.745   4.546  0.5218  0.4833  0.4117
 5457SOL     OW17116   5.393   3.819   1.308  0.4175 -0.4047 -0.2704
 5457SOL    HW117117   5.438   3.898   1.276  2.3099 -0.8979  1.0487
 5457SOL    HW217118   5.304   3.849   1.329  0.3212  0.7928 -2.1414
 5458SOL     OW17119   0.908   1.203   3.248 -0.3269 -0.3536 -0.6475
 5458SOL    HW117120   0.836   1.264   3.266 -0.1941 -0.2270 -0.5365
 5458SOL    HW217121   0.904   1.140   3.320 -2.6478 -2.5789 -2.5549
 5459SOL     OW17122   0.342   3.609   0.588  0.4786 -1.0600  0.3138
 5459SOL    HW117123   0.276   3.566   0.534 -0.3464  0.7103 -0.1560
 5459SOL    HW217124   0.320   3.584   0.678 -2.1868  1.1101  0.3796
 5460SOL     OW17125   1.949   0.360   2.116 -0.5354 -0.3666  0.4768
 5460SOL    HW117126   1.946   0.282   2.171 -0.2100 -0.0777  0.9038
 5460SOL    HW217127   1.938   0.326   2.027  1.9911 -1.1942  0.3960
 5461SOL     OW17128   5.463   3.198   6.104  0.1840  0.0821  0.0186
 5461SOL    HW117129   5.389   3.227   6.052  0.7461  0.0285 -0.8297
 5461SOL    HW217130   5.511   3.278   6.125  0.2284  0.0543  0.0252
 5462SOL     OW17131   5.558   4.170   4.768 -0.0193 -0.4489 -0.4121
 5462SOL    HW117132   5.611   4.090   4.775  2.0819  0.7358 -1.5315
 5462SOL    HW217133   5.486   4.146   4.710  0.5697 -1.5321 -0.7328
 5463SOL     OW17134   1.868   5.694   5.069 -0.6249 -0.2698 -0.3369
 5463SOL    HW117135   1.952   5.662   5.102 -0.3531 -1.1050 -1.7819
 5463SOL    HW217136   1.871   5.788   5.086  0.2690 -0.4026  0.3385
 5464SOL     OW17137   3.582   2.924   4.328  0.7444 -0.4344  0.3699
 5464SOL    HW117138   3.589   2.956   4.418  1.5780  0.3657  0.0384
 5464SOL    HW217139   3.636   2.846   4.326  0.2200 -0.8096  0.7150
 5465SOL     OW17140   4.391   1.792   5.996 -0.3234 -0.5482 -0.5849
 5465SOL    HW117141   4.436   1.709   5.984  0.7946 -0.0053 -0.2723
 5465SOL    HW217142   4.410   1.817   6.086 -1.4704 -0.4205 -0.3606
 5466SOL     OW17143   5.848   0.015   2.302  0.1384  0.9308 -0.4220
 5466SOL    HW117144   5.797  -0.031   2.369  1.3649  0.7122  0.4056
 5466SOL    HW217145   5.849  -0.045   2.227 -1.2585  1.1816 -0.6643
 5467SOL     OW17146   1.356   2.757   5.833  0.3977  0.5105 -0.0824
 5467SOL    HW117147   1.391   2.812   5.903  0.3611  0.8184 -0.3030
 5467SOL    HW217148   1.309   2.688   5.879 -1.2146  1.7417  0.2004
 5468SOL     OW17149   0.016   6.049   1.717  0.3693  0.5047 -0.1101
 5468SOL    HW117150   0.083   6.002   1.668  0.9189  0.3556  0.7836
 5468SOL    HW217151  -0.064   6.037   1.665  0.9614  0.4359 -1.0204
 5469SOL     OW17152   0.256   0.760   2.469 -0.5438 -0.1915  0.9484
 5469SOL    HW117153   0.192   0.827   2.494 -0.5207  0.5204 -0.6987
 5469SOL    HW217154   0.217   0.678   2.497 -2.0449  0.2558  0.3293
 5470SOL     OW17155   4.748   2.464   2.456 -0.4050  0.4088 -0.1444
 5470SOL    HW117156   4.712   2.530   2.516  0.7348  0.7965  0.1359
 5470SOL    HW217157   4.713   2.489   2.371 -0.9046  0.7032  0.1425
 5471SOL     OW17158   2.609   5.708   1.085  0.4921  0.4188 -0.3885
 5471SOL    HW117159   2.531   5.741   1.039 -0.7487 -0.7267  0.7936
 5471SOL    HW217160   2.619   5.766   1.160  1.5694  1.3249 -1.1961
 5472SOL     OW17161   5.670   0.602   3.590 -0.2445 -0.8354  0.2029
 5472SOL    HW117162   5.618   0.561   3.521  1.2623 -1.7917 -0.4151
 5472SOL    HW217163   5.756   0.614   3.550  0.0233  0.7221  1.1881
 5473SOL     OW17164   5.592   2.638   0.930  0.1938 -0.4292 -0.0731
 5473SOL    HW117165   5.614   2.725   0.962 -2.0236  0.3886 -0.5582
 5473SOL    HW217166   5.501   2.625   0.955 -0.0703 -1.8640 -1.5538
 5474SOL     OW17167   4.666   4.317   3.963 -0.4417  0.0570  0.7165
 5474SOL    HW117168   4.630   4.375   3.897 -1.7443 -1.1075  0.3411
 5474SOL    HW217169   4.692   4.375   4.034  0.1666  1.2521 -0.4406
 5475SOL     OW17170   0.376   2.109   0.748  0.5920  0.1042  0.1834
 5475SOL    HW117171   0.452   2.062   0.713  1.3908  1.5500 -0.1417
 5475SOL    HW217172   0.401   2.202   0.742 -0.9287  0.5815  0.7332
 5476SOL     OW17173   4.240   3.068   3.881 -0.3868 -0.0525 -0.1868
 5476SOL    HW117174   4.289   3.011   3.940  0.0251  0.1442 -0.3392
 5476SOL    HW217175   4.185   3.121   3.940  1.3535  1.4360  0.1834
 5477SOL     OW17176   5.574   3.543   0.560  0.0083  0.9938  0.1333
 5477SOL    HW117177   5.505   3.599   0.525  1.9757  3.0189 -0.7107
 5477SOL    HW217178   5.577   3.565   0.653 -0.4540  0.8959  0.1764
 5478SOL     OW17179   5.710   0.102   0.664 -0.2586 -0.1401 -0.4816
 5478SOL    HW117180   5.793   0.074   0.702 -0.3306  1.9675  1.4123
 5478SOL    HW217181   5.655   0.023   0.666  0.9936 -1.0285  0.2344
 5479SOL     OW17182   5.393   3.590   2.585 -0.4451 -0.2661 -0.5638
 5479SOL    HW117183   5.405   3.522   2.519  1.6683 -0.0069 -0.5127
 5479SOL    HW217184   5.386   3.543   2.668  1.2723 -0.4652 -0.4980
 5480SOL     OW17185   2.352   2.206   0.348  0.7398  0.4545 -0.5462
 5480SOL    HW117186   2.384   2.284   0.394 -0.8221  0.8529 -0.0810
 5480SOL    HW217187   2.260   2.200   0.372  0.9383 -1.8737 -0.1238
 5481SOL     OW17188   4.041   2.029   5.380 -0.0622  0.3427  0.1046
 5481SOL    HW117189   4.070   2.015   5.290  4.4968  0.4244  1.3334
 5481SOL    HW217190   4.036   1.942   5.418  2.4293  0.4233  0.8089
 5482SOL     OW17191   5.231   1.924   6.241 -0.5179 -0.0297  0.1718
 5482SOL    HW117192   5.243   1.830   6.251 -0.0124  0.0478  0.2990
 5482SOL    HW217193   5.243   1.959   6.329  2.3576  0.4860 -0.3209
 5483SOL     OW17194   6.265   1.505   1.607  0.3258 -0.7447  0.5209
 5483SOL    HW117195   6.263   1.600   1.596 -0.1859 -0.8783 -0.6342
 5483SOL    HW217196   6.320   1.474   1.536 -1.7220 -1.5129 -0.8015
 5484SOL     OW17197   0.922   4.611   1.684 -0.6103 -0.2010 -0.4763
 5484SOL    HW117198   0.941   4.654   1.768  0.2275 -0.7339 -0.3874
 5484SOL    HW217199   0.966   4.666   1.619  1.2786 -1.3795 -0.2795
 5485SOL     OW17200   2.297   3.877   1.157 -0.0692  0.8478 -0.1636
 5485SOL    HW117201   2.352   3.813   1.203  0.6261  1.9798  0.6072
 5485SOL    HW217202   2.332   3.878   1.068  0.3484  0.6538 -0.0057
 5486SOL     OW17203   2.956   6.297   4.147  0.3933 -0.0048 -0.3853
 5486SOL    HW117204   2.946   6.391   4.165  2.7903 -0.1866  2.7659
 5486SOL    HW217205   3.008   6.294   4.066  1.1950  1.4680  0.0256
 5487SOL     OW17206   5.974   5.670   1.133  0.5756  0.4231 -0.2598
 5487SOL    HW117207   6.011   5.715   1.058  0.5484 -0.8925 -1.0982
 5487SOL    HW217208   5.960   5.580   1.103  0.4042 -0.0953  1.2656
 5488SOL     OW17209   5.995   3.537   6.216  0.4516  0.0400 -0.5320
 5488SOL    HW117210   6.073   3.563   6.266  0.8697 -0.4375 -0.9159
 5488SOL    HW217211   5.941   3.490   6.279  1.0182 -0.6389 -0.5383
 5489SOL     OW17212   5.109   3.140   5.309 -0.5021  0.2220  0.0040
 5489SOL    HW117213   5.071   3.052   5.317 -1.4186  0.6457  0.5620
 5489SOL    HW217214   5.044   3.197   5.350  0.7962  0.9880  1.0831
 5490SOL     OW17215   0.241   1.235   6.100  1.0762  0.2238 -0.4318
 5490SOL    HW117216   0.203   1.171   6.040  0.5960 -0.3761  0.4981
 5490SOL    HW217217   0.315   1.190   6.141  1.0942  0.4550 -0.2019
 5491SOL     OW17218   0.840   1.004   5.017  0.7105  0.1299  0.3096
 5491SOL    HW117219   0.828   0.910   5.001  2.7965 -0.5633  2.1738
 5491SOL    HW217220   0.935   1.016   5.012  0.4072  2.4349 -1.0539
 5492SOL     OW17221   0.075   0.132   1.299  0.9597  0.3355  0.0173
 5492SOL    HW117222   0.094   0.131   1.206  0.5585 -2.0335 -0.0969
 5492SOL    HW217223   0.003   0.193   1.308 -0.5273 -1.0644 -1.6128
 5493SOL     OW17224   3.823   0.186   2.943  0.2372 -0.2630 -0.0355
 5493SOL    HW117225   3.732   0.173   2.969  0.7577 -1.0313  1.5091
 5493SOL    HW217226   3.873   0.125   2.997  1.6852  0.2013 -0.7897
 5494SOL     OW17227   4.852   2.673   3.839  0.1159 -0.1432 -0.3280
 5494SOL    HW117228   4.840   2.748   3.782  0.3872 -1.3127 -1.9995
 5494SOL    HW217229   4.808   2.601   3.793 -0.9978 -0.8233  1.6806
 5495SOL     OW17230   0.574   5.363   6.216 -0.4345 -0.0328 -0.2104
 5495SOL    HW117231   0.579   5.358   6.312  0.5412  1.8217 -0.1083
 5495SOL    HW217232   0.487   5.328   6.195 -1.4917  1.3231  1.5389
 5496SOL     OW17233   3.975   5.079   1.845 -0.6459 -0.5839  0.3924
 5496SOL    HW117234   3.894   5.060   1.891  0.9147 -1.2612  3.0837
 5496SOL    HW217235   4.020   4.994   1.838 -0.2767 -0.2897 -1.3685
 5497SOL     OW17236   2.383   5.243   1.076 -0.4856 -0.2708  0.5316
 5497SOL    HW117237   2.355   5.323   1.032  1.5998  0.5961  0.6940
 5497SOL    HW217238   2.447   5.204   1.018 -1.6204 -1.9982  0.3495
 5498SOL     OW17239   1.309   0.182   4.844  0.0790  0.7036  0.9488
 5498SOL    HW117240   1.306   0.243   4.770  0.8288 -1.8953 -1.4067
 5498SOL    HW217241   1.367   0.223   4.908  0.3980  2.5047 -0.4305
 5499SOL     OW17242   6.140   4.155   4.389  0.1126 -0.6687 -0.5147
 5499SOL    HW117243   6.227   4.185   4.362 -0.8225 -0.0300 -3.1443
 5499SOL    HW217244   6.157   4.078   4.444  2.3597  0.7026  0.8689
 5500SOL     OW17245   3.525   4.837   3.134  0.0880 -0.3394 -0.1678
 5500SOL    HW117246   3.607   4.849   3.181  0.1223 -0.0935 -0.2856
 5500SOL    HW217247   3.472   4.913   3.160 -0.8647 -1.4969  1.4678
 5501SOL     OW17248   2.732   1.985   3.331  0.0615 -0.3343 -0.0518
 5501SOL    HW117249   2.761   2.073   3.308 -1.5567  0.0537 -0.7144
 5501SOL    HW217250   2.728   1.938   3.247  0.5155 -0.9193  0.2469
 5502SOL     OW17251   2.283   4.636   4.461  0.8415  0.8987  0.6794
 5502SOL    HW117252   2.289   4.556   4.408  1.3436  0.2482  1.6917
 5502SOL    HW217253   2.353   4.628   4.525  0.4378  1.8132  1.2615
 5503SOL     OW17254   5.561   0.761   4.910  0.1998 -0.2951 -0.8133
 5503SOL    HW117255   5.548   0.824   4.839 -0.4000  1.1521  0.5399
 5503SOL    HW217256   5.640   0.791   4.955 -0.6012  0.0578  0.3965
 5504SOL     OW17257   4.129   5.265   0.442  0.3085 -0.2652 -0.5161
 5504SOL    HW117258   4.110   5.303   0.356 -0.8096  0.3195 -0.0271
 5504SOL    HW217259   4.131   5.339   0.502  0.3928 -0.7378  0.0831
 5505SOL     OW17260   1.816   3.947   3.784  0.4027  0.0551  0.1131
 5505SOL    HW117261   1.792   3.910   3.869  3.3017  2.0009  1.9533
 5505SOL    HW217262   1.733   3.978   3.747 -1.9695 -5.8333 -0.6573
 5506SOL     OW17263   6.055   1.336   5.599  0.1988 -0.5584  0.1754
 5506SOL    HW117264   5.982   1.275   5.597  0.3093 -0.7823  1.6928
 5506SOL    HW217265   6.128   1.288   5.559  0.4605 -1.7327  1.8990
 5507SOL     OW17266   6.260   1.159   5.503 -0.1864 -0.0239 -0.3254
 5507SOL    HW117267   6.295   1.071   5.489 -1.6211 -0.5312 -0.8699
 5507SOL    HW217268   6.319   1.215   5.452 -0.7452 -0.9835 -2.1271
 5508SOL     OW17269   4.537   0.097   5.084  0.3316  0.2614  0.4329
 5508SOL    HW117270   4.496   0.019   5.047 -0.0897  0.3052  0.7900
 5508SOL    HW217271   4.558   0.152   5.008 -0.9619  0.5654  0.2652
 5509SOL     OW17272   0.968   4.098   4.590  0.2885 -0.1807 -0.0239
 5509SOL    HW117273   1.030   4.032   4.623 -0.7315 -1.0421  0.2086
 5509SOL    HW217274   0.963   4.080   4.496  1.8555  1.1516 -0.4057
 5510SOL     OW17275   4.702   4.210   4.562  0.1004  0.4567  0.2967
 5510SOL    HW117276   4.645   4.142   4.600  1.6176 -1.1474 -0.1814
 5510SOL    HW217277   4.750   4.245   4.637  0.1335  0.1822  0.4062
 5511SOL     OW17278   4.441   3.876   4.072 -0.2197  0.5733 -0.2439
 5511SOL    HW117279   4.503   3.945   4.051 -0.4100  0.5338 -0.9661
 5511SOL    HW217280   4.364   3.896   4.019 -0.1988 -0.3025 -0.6266
 5512SOL     OW17281   2.613   2.548   1.050 -0.1091  0.3017 -0.0846
 5512SOL    HW117282   2.575   2.463   1.072 -2.6847  1.7242  1.5905
 5512SOL    HW217283   2.693   2.554   1.102 -0.4188 -0.7077  0.5257
 5513SOL     OW17284   0.155   1.847   3.059  0.2433 -0.6231 -0.4878
 5513SOL    HW117285   0.211   1.771   3.039  1.8202 -0.1026  1.5326
 5513SOL    HW217286   0.109   1.865   2.978  1.4523 -2.4154 -1.6562
 5514SOL     OW17287   1.301   2.796   2.637 -0.1923  0.0744 -0.3415
 5514SOL    HW117288   1.342   2.829   2.557 -1.9311 -1.2986 -1.8700
 5514SOL    HW217289   1.244   2.868   2.666 -0.5927  0.0795 -1.1254
 5515SOL     OW17290   1.530   1.533   2.808  0.1748 -0.1094 -0.3155
 5515SOL    HW117291   1.491   1.620   2.805  1.2373  0.4300  0.4531
 5515SOL    HW217292   1.546   1.517   2.902  2.1956 -0.0720 -0.5974
 5516SOL     OW17293   0.709   1.380   3.281 -0.9148 -0.7330  0.2239
 5516SOL    HW117294   0.673   1.370   3.369 -0.8777  0.0736  0.3373
 5516SOL    HW217295   0.686   1.469   3.255 -0.9248 -0.9599 -0.5856
 5517SOL     OW17296   0.967   4.347   5.097  0.0987 -0.0743 -0.5454
 5517SOL    HW117297   1.002   4.300   5.021 -0.0030  1.0425 -1.3088
 5517SOL    HW217298   0.873   4.353   5.080 -0.3662 -2.0901  0.9602
 5518SOL     OW17299   2.435   4.676   0.867 -0.0791  0.4918  0.1694
 5518SOL    HW117300   2.458   4.704   0.956  2.4957  1.0694 -0.5810
 5518SOL    HW217301   2.519   4.663   0.823 -1.2230 -2.1152 -1.5316
 5519SOL     OW17302   3.438   3.600   5.112 -0.3251 -0.2887  0.0228
 5519SOL    HW117303   3.477   3.685   5.127 -0.2174 -0.1122 -1.1739
 5519SOL    HW217304   3.425   3.563   5.200 -1.4300  1.4148  0.6173
 5520SOL     OW17305   6.067   1.840   0.458 -0.4280 -0.1875  0.2682
 5520SOL    HW117306   6.075   1.820   0.551 -0.0474 -1.8601 -0.0899
 5520SOL    HW217307   6.147   1.804   0.419  0.6604  2.7304 -0.4039
 5521SOL     OW17308   2.297   6.123   0.868 -0.6354 -0.5418 -0.0429
 5521SOL    HW117309   2.330   6.087   0.785 -1.5687  0.9053 -1.0789
 5521SOL    HW217310   2.202   6.119   0.859 -0.8533  2.9192 -0.6283
 5522SOL     OW17311   1.749   1.146   3.371 -0.0303  0.2792  0.4547
 5522SOL    HW117312   1.706   1.147   3.285 -0.4171 -1.6651  0.5804
 5522SOL    HW217313   1.841   1.160   3.352  0.1064 -1.5431 -0.4816
 5523SOL     OW17314   4.129   4.854   1.873  0.2811 -0.1981 -0.9996
 5523SOL    HW117315   4.116   4.804   1.953  0.0480 -0.0298 -0.9308
 5523SOL    HW217316   4.138   4.788   1.804  0.0479 -0.3328 -0.9003
 5524SOL     OW17317   1.400   0.776   5.130 -0.2457 -0.3122 -0.1446
 5524SOL    HW117318   1.308   0.802   5.145 -0.8077 -1.9680 -0.5599
 5524SOL    HW217319   1.432   0.839   5.065 -2.1750 -1.7465 -2.6644
 5525SOL     OW17320   3.969   0.359   1.983 -0.6527  0.2368 -0.1369
 5525SOL    HW117321   4.026   0.281   1.984  1.0789  1.3960 -1.9612
 5525SOL    HW217322   3.902   0.339   1.918 -0.5883  0.0089 -0.1350
 5526SOL     OW17323   0.547   6.187   5.353  1.1579  0.0889 -0.1286
 5526SOL    HW117324   0.572   6.156   5.267  0.0340 -0.2479 -0.3570
 5526SOL    HW217325   0.533   6.108   5.404 -0.5648  0.1949 -0.3676
 5527SOL     OW17326   0.970   4.350   2.741 -0.4926 -0.1450 -0.2931
 5527SOL    HW117327   0.936   4.337   2.652  0.1424 -0.3508 -0.5082
 5527SOL    HW217328   1.058   4.386   2.728 -0.0194 -1.0746  0.2345
 5528SOL     OW17329   0.194   1.151   1.423  0.1942  0.0079 -0.2044
 5528SOL    HW117330   0.255   1.146   1.497  0.2147 -0.4454 -0.2468
 5528SOL    HW217331   0.222   1.080   1.365 -0.1835 -0.0056 -0.3682
 5529SOL     OW17332   2.156   4.048   5.960  0.3275 -0.4050  0.2797
 5529SOL    HW117333   2.245   4.069   5.986  0.2824 -1.3920  1.2953
 5529SOL    HW217334   2.102   4.077   6.033 -0.0762 -0.6969  0.1040
 5530SOL     OW17335   1.111   1.041   2.696 -0.1387 -0.0007 -0.2748
 5530SOL    HW117336   1.040   0.993   2.653 -0.5262 -1.6506  2.0490
 5530SOL    HW217337   1.080   1.055   2.786  0.3641  3.8761 -0.5195
 5531SOL     OW17338   6.135   4.354   2.852 -0.0467 -0.5025 -0.4268
 5531SOL    HW117339   6.164   4.356   2.761  1.0183 -1.2901 -0.1207
 5531SOL    HW217340   6.058   4.411   2.853  1.2885  1.4319 -1.3344
 5532SOL     OW17341   6.223   1.775   1.583  0.2217  0.7050 -0.4303
 5532SOL    HW117342   6.296   1.816   1.630 -0.5125  0.1916  1.2287
 5532SOL    HW217343   6.148   1.787   1.640 -0.1679 -2.3987 -0.1288
 5533SOL     OW17344   3.040   1.522   1.413 -0.3238 -0.1172 -0.0314
 5533SOL    HW117345   3.062   1.458   1.481 -0.4424 -1.1630 -0.9517
 5533SOL    HW217346   2.945   1.515   1.403 -0.3704  0.3930  0.0392
 5534SOL     OW17347   0.326   3.617   1.225 -0.2679  0.8098 -0.0287
 5534SOL    HW117348   0.304   3.524   1.236 -0.7898  0.9412  0.0629
 5534SOL    HW217349   0.384   3.618   1.149  0.0250  0.3682  0.1825
 5535SOL     OW17350   5.321   3.282   0.160  0.2994  0.4549  0.3628
 5535SOL    HW117351   5.393   3.223   0.138 -0.9723 -0.2369 -2.3935
 5535SOL    HW217352   5.279   3.242   0.236  0.6101 -1.1840 -0.2826
 5536SOL     OW17353   5.042   0.548   3.724  0.5392 -0.1205 -0.0425
 5536SOL    HW117354   5.116   0.508   3.679  0.5177 -0.6644  0.4102
 5536SOL    HW217355   4.998   0.476   3.769 -0.2243  0.2041 -0.2413
 5537SOL     OW17356   6.000   2.545   3.732 -0.6291  0.2359  0.3459
 5537SOL    HW117357   6.084   2.503   3.716 -0.7374 -1.0362  2.7115
 5537SOL    HW217358   5.937   2.493   3.682 -0.2308  0.1708 -0.0940
 5538SOL     OW17359   4.205   3.605   3.628 -0.3585 -0.2235 -1.0436
 5538SOL    HW117360   4.289   3.648   3.643 -0.1245 -1.4207  1.8821
 5538SOL    HW217361   4.227   3.524   3.581 -0.0562  0.1427 -1.5281
 5539SOL     OW17362   2.549   3.081   4.173 -0.6280  0.1471  0.5846
 5539SOL    HW117363   2.583   3.170   4.167  0.5272 -0.2309  1.3564
 5539SOL    HW217364   2.482   3.085   4.241  0.1975  0.2065  1.4101
 5540SOL     OW17365   4.747   3.356   1.282  0.0476  0.3480  0.1994
 5540SOL    HW117366   4.667   3.304   1.281  0.2687  0.0130 -0.3991
 5540SOL    HW217367   4.761   3.376   1.375 -0.2086 -0.3948  0.4042
 5541SOL     OW17368   2.686   5.760   5.198  0.2228  0.5208  0.3885
 5541SOL    HW117369   2.663   5.667   5.199 -1.9532  0.9661 -1.1438
 5541SOL    HW217370   2.762   5.766   5.141 -0.9541 -0.1291 -1.3487
 5542SOL     OW17371   4.338   1.327   0.767  0.3875  0.3557  0.1843
 5542SOL    HW117372   4.304   1.414   0.788  0.2977  0.2865  0.3237
 5542SOL    HW217373   4.283   1.267   0.816 -0.1527  0.1606 -0.6268
 5543SOL     OW17374   0.837   4.295   4.780 -0.2993 -0.7154  0.1532
 5543SOL    HW117375   0.870   4.242   4.707 -0.9834 -0.3060 -0.4705
 5543SOL    HW217376   0.766   4.242   4.818  0.0359 -0.9145  0.5097
 5544SOL     OW17377   1.770   4.982   5.339  0.4517  0.0238 -0.1611
 5544SOL    HW117378   1.685   5.026   5.344 -1.4809 -3.4195  1.1421
 5544SOL    HW217379   1.833   5.048   5.366 -2.2693  1.7944  2.5439
 5545SOL     OW17380   3.266   1.620   4.957  0.1439 -0.1542 -0.9612
 5545SOL    HW117381   3.221   1.543   4.992  0.5743 -0.8012 -1.8004
 5545SOL    HW217382   3.266   1.682   5.030 -1.8034 -0.2495 -0.8320
 5546SOL     OW17383   3.290   4.375   1.540  0.0542  0.6249 -0.4503
 5546SOL    HW117384   3.270   4.448   1.599 -1.2624 -0.3980  0.4423
 5546SOL    HW217385   3.219   4.312   1.555  0.8331 -0.5905 -1.6142
 5547SOL     OW17386   3.441   2.557   5.023  0.3140  0.1301 -0.5359
 5547SOL    HW117387   3.431   2.590   4.933 -2.5017  1.8267  0.2808
 5547SOL    HW217388   3.451   2.636   5.076 -0.5214 -0.7046  0.9012
 5548SOL     OW17389   1.090   4.197   4.918  0.2123  0.7183 -0.5900
 5548SOL    HW117390   1.065   4.174   4.828 -0.6853 -0.4978 -0.0534
 5548SOL    HW217391   1.183   4.216   4.912  1.1046 -2.9696 -1.2109
 5549SOL     OW17392   6.145   5.099   0.238  0.2782  0.3206  0.5193
 5549SOL    HW117393   6.207   5.031   0.209  1.2092  0.6634  1.6162
 5549SOL    HW217394   6.079   5.102   0.169 -0.1070 -2.0941  0.6829
 5550SOL     OW17395   3.705   2.470   4.987 -0.5382  0.2429 -0.4103
 5550SOL    HW117396   3.701   2.420   4.906 -0.6762 -1.5428  0.6421
 5550SOL    HW217397   3.614   2.495   5.004 -0.4476  0.9921 -1.0240
 5551SOL     OW17398   0.598   3.836   4.197  0.0992 -0.0721 -0.2379
 5551SOL    HW117399   0.566   3.747   4.186 -0.3199 -0.0021  0.3616
 5551SOL    HW217400   0.542   3.889   4.141 -0.6718  0.0139  0.5952
 5552SOL     OW17401   4.610   0.262   0.731  0.0006  0.3901 -0.4376
 5552SOL    HW117402   4.554   0.184   0.731  0.4071  0.0619 -1.7749
 5552SOL    HW217403   4.550   0.335   0.719 -0.2000  0.0636 -1.5867
 5553SOL     OW17404   1.727   3.134   3.223  0.2751  0.1696  0.3436
 5553SOL    HW117405   1.726   3.112   3.130  0.4142 -0.9082  0.5923
 5553SOL    HW217406   1.727   3.050   3.269  0.1696  0.6837  1.3237
 5554SOL     OW17407   6.003   4.989   3.804 -0.2822  0.2963  0.6049
 5554SOL    HW117408   6.003   5.051   3.731 -0.6091  0.1493  0.4759
 5554SOL    HW217409   5.925   5.011   3.854 -0.3867  0.0120  0.5737
 5555SOL     OW17410   3.966   4.443   0.171 -0.0082 -0.2707 -0.0998
 5555SOL    HW117411   3.884   4.491   0.157  0.1720  0.1962  0.3904
 5555SOL    HW217412   3.939   4.361   0.212 -0.1861  0.1129  0.5553
 5556SOL     OW17413   0.832   3.618   0.250 -0.1339 -0.4667  0.1795
 5556SOL    HW117414   0.765   3.560   0.288 -1.1339  0.1522 -0.5849
 5556SOL    HW217415   0.805   3.629   0.159  1.1231 -0.3364 -0.1951
 5557SOL     OW17416   4.635   3.375   5.592 -0.7259 -0.1090 -0.2203
 5557SOL    HW117417   4.557   3.332   5.627 -1.2961  0.3603 -0.9095
 5557SOL    HW217418   4.708   3.330   5.635 -1.3262 -1.3816 -0.5061
 5558SOL     OW17419   2.719   2.800   1.769 -0.7892  0.0788  0.8393
 5558SOL    HW117420   2.756   2.819   1.855 -0.4550 -0.1771  0.7553
 5558SOL    HW217421   2.793   2.814   1.708 -0.8851 -0.2416  0.6480
 5559SOL     OW17422   0.687   5.879   4.532  0.3337  0.7604 -0.3391
 5559SOL    HW117423   0.774   5.857   4.565  0.8100  0.5475 -1.6715
 5559SOL    HW217424   0.638   5.798   4.538  0.3300  0.7928  0.0936
 5560SOL     OW17425   1.800   5.644   0.803  0.0148  0.4320  0.2666
 5560SOL    HW117426   1.827   5.592   0.728  3.2693  1.1357  0.8159
 5560SOL    HW217427   1.741   5.710   0.766 -0.3600 -0.7030 -1.2280
 5561SOL     OW17428   3.775   6.270   1.822 -0.2360 -0.1593 -0.2330
 5561SOL    HW117429   3.718   6.207   1.778 -0.9000 -0.5991  1.1754
 5561SOL    HW217430   3.855   6.220   1.843  0.1521  0.0980 -1.0592
 5562SOL     OW17431   3.881   4.406   2.209 -0.2081 -0.9499 -0.2745
 5562SOL    HW117432   3.957   4.449   2.248 -1.0049  0.7869 -0.5465
 5562SOL    HW217433   3.843   4.472   2.152 -2.4820 -1.4209  0.5827
 5563SOL     OW17434   4.347   1.969   5.778  0.0511 -0.1240 -0.1554
 5563SOL    HW117435   4.405   1.920   5.719 -0.2396 -0.4527 -0.1716
 5563SOL    HW217436   4.349   1.919   5.860 -0.0643 -0.0337 -0.0978
 5564SOL     OW17437   4.250   4.720   5.134 -0.1759 -0.0272  0.0250
 5564SOL    HW117438   4.323   4.701   5.074  0.1571 -0.5431  0.5726
 5564SOL    HW217439   4.252   4.814   5.146 -0.7979  0.1991 -1.4546
 5565SOL     OW17440   0.294   5.008   0.278 -0.1268  0.4404 -0.2118
 5565SOL    HW117441   0.247   5.054   0.347 -0.3057 -0.0938  0.0248
 5565SOL    HW217442   0.239   4.932   0.258  0.3133  0.1674 -0.3901
 5566SOL     OW17443   5.395   3.736   0.533 -0.2676  0.0063 -0.4381
 5566SOL    HW117444   5.337   3.766   0.603 -0.7333 -0.7280 -0.4963
 5566SOL    HW217445   5.340   3.737   0.454 -0.3823 -1.2104 -0.3984
 5567SOL     OW17446   5.505   0.350   5.438 -0.3079 -0.7578 -0.2423
 5567SOL    HW117447   5.531   0.270   5.394  2.1135  1.0062 -2.2893
 5567SOL    HW217448   5.451   0.397   5.374 -0.8753 -0.2841  0.5520
 5568SOL     OW17449   1.011   5.726   4.466 -0.1692  0.4799  0.3846
 5568SOL    HW117450   1.024   5.638   4.432 -0.2957  0.6250 -0.0486
 5568SOL    HW217451   1.012   5.782   4.388 -0.1470  0.8538  0.6502
 5569SOL     OW17452   3.900   4.801   4.586 -0.3550 -0.2373  0.1188
 5569SOL    HW117453   3.887   4.746   4.664 -1.5971 -0.6443 -0.3438
 5569SOL    HW217454   3.881   4.890   4.616 -0.7862 -0.3849  0.2938
 5570SOL     OW17455   4.136   3.114   5.726  0.0148  0.4634 -0.2841
 5570SOL    HW117456   4.222   3.110   5.767  0.1953  0.3719 -0.6666
 5570SOL    HW217457   4.082   3.161   5.789  0.2201  0.0992  0.1713
 5571SOL     OW17458   6.178   2.053   4.335 -0.1014 -0.2985  0.3160
 5571SOL    HW117459   6.253   2.108   4.314  0.2171 -1.0480 -0.6240
 5571SOL    HW217460   6.161   2.005   4.254 -2.6404  1.0196 -0.0130
 5572SOL     OW17461   4.083   0.747   1.371 -0.0380 -1.1531  0.1925
 5572SOL    HW117462   4.043   0.699   1.444 -0.0951 -2.1979 -0.5092
 5572SOL    HW217463   4.177   0.730   1.380 -0.1671 -2.6680 -0.8975
 5573SOL     OW17464   3.296   5.151   5.919 -0.2227 -0.2850  0.0672
 5573SOL    HW117465   3.296   5.216   5.989  1.7772 -0.1895  0.0336
 5573SOL    HW217466   3.233   5.185   5.855 -0.5738  0.6651  0.8871
 5574SOL     OW17467   3.934   5.566   3.438 -0.2634 -0.2585 -0.2819
 5574SOL    HW117468   3.867   5.560   3.507 -1.2445 -0.8950 -1.2479
 5574SOL    HW217469   4.008   5.517   3.473 -0.0157  1.0249  1.0943
 5575SOL     OW17470   2.025   0.087   2.192  0.3169 -0.3879  0.3542
 5575SOL    HW117471   2.023   0.036   2.112 -2.5385 -1.7617  1.1785
 5575SOL    HW217472   2.087   0.042   2.249  0.1907 -1.0859 -0.0623
 5576SOL     OW17473   0.303   4.045   5.560 -0.1874 -0.1501 -0.2950
 5576SOL    HW117474   0.238   3.981   5.591 -0.5300  0.3462  0.0351
 5576SOL    HW217475   0.353   3.998   5.494 -1.9124 -0.0689 -1.7268
 5577SOL     OW17476   3.505   0.654   0.749 -0.4890  0.0453  0.5955
 5577SOL    HW117477   3.573   0.604   0.794  1.3241  0.0873 -1.8511
 5577SOL    HW217478   3.448   0.587   0.711 -0.5628 -0.0460  0.8638
 5578SOL     OW17479   1.248   1.695   5.915  0.4152  0.4859  0.3880
 5578SOL    HW117480   1.312   1.728   5.851  0.6073 -1.2026 -0.3429
 5578SOL    HW217481   1.301   1.670   5.991  0.0507  3.9245  1.9670
 5579SOL     OW17482   5.465   2.842   0.512  0.5180 -0.0725 -0.1949
 5579SOL    HW117483   5.466   2.908   0.581 -0.1320  0.0100 -0.2547
 5579SOL    HW217484   5.476   2.759   0.559  0.1951 -0.0083  0.0029
 5580SOL     OW17485   2.938   0.287   2.625  0.0247 -0.1105  0.0280
 5580SOL    HW117486   2.992   0.293   2.704  0.6551 -0.4462 -0.3672
 5580SOL    HW217487   2.998   0.307   2.553 -0.8643  1.6450 -0.2777
 5581SOL     OW17488   3.729   4.933   0.549  0.1735 -0.6592 -0.2335
 5581SOL    HW117489   3.768   5.015   0.576 -0.0213 -0.5928 -0.1548
 5581SOL    HW217490   3.676   4.955   0.472  0.9123 -0.8853 -0.8239
 5582SOL     OW17491   5.518   1.759   2.919 -0.1611 -0.0021 -0.5478
 5582SOL    HW117492   5.551   1.810   2.845 -0.5861  0.4351 -0.4434
 5582SOL    HW217493   5.580   1.777   2.989 -0.6405  0.8797 -0.3301
 5583SOL     OW17494   2.949   0.253   4.240  0.5086  0.1129  0.2455
 5583SOL    HW117495   2.913   0.228   4.325 -1.4729  0.0104 -0.5628
 5583SOL    HW217496   3.038   0.283   4.260 -0.5701  2.1348  2.7045
 5584SOL     OW17497   0.712   3.910   3.885  0.2026 -0.3089 -0.0317
 5584SOL    HW117498   0.742   3.998   3.861 -3.3481  1.2771  0.5176
 5584SOL    HW217499   0.791   3.863   3.911  2.6835  1.6707 -3.2348
 5585SOL     OW17500   6.209   3.684   2.501 -0.0554 -0.0401 -0.4486
 5585SOL    HW117501   6.155   3.619   2.455 -1.0270  1.7523 -1.9543
 5585SOL    HW217502   6.295   3.678   2.459  0.1906 -1.0621  0.1602
 5586SOL     OW17503   3.146   0.509   1.452 -0.5381  0.1650  0.9100
 5586SOL    HW117504   3.217   0.513   1.387  0.1804  0.7291  1.7016
 5586SOL    HW217505   3.070   0.478   1.403  0.5616 -1.7612  0.2907
 5587SOL     OW17506   3.993   3.146   5.944 -0.2975  0.3887 -0.1014
 5587SOL    HW117507   3.983   3.240   5.957 -1.5930 -0.0177  2.5457
 5587SOL    HW217508   3.904   3.113   5.930 -0.1101 -0.6552  1.0014
 5588SOL     OW17509   1.520   2.985   1.403  0.2814 -0.4718 -0.0218
 5588SOL    HW117510   1.584   2.980   1.332 -0.3603  0.2754 -0.6805
 5588SOL    HW217511   1.571   3.007   1.481  0.8918 -0.4505 -0.4241
 5589SOL     OW17512   2.352   2.453   0.513  0.3093  1.0569  0.3943
 5589SOL    HW117513   2.429   2.490   0.471  0.2524 -0.7874 -1.4918
 5589SOL    HW217514   2.280   2.510   0.485  0.5768  1.0696 -0.2847
 5590SOL     OW17515   1.789   6.043   3.521  0.5631  0.5786  0.1763
 5590SOL    HW117516   1.844   6.115   3.490  0.8241  0.6321  0.7531
 5590SOL    HW217517   1.850   5.976   3.549  0.3309  0.4452  0.3731
 5591SOL     OW17518   3.571   5.948   2.807  0.7837  0.0511 -0.1100
 5591SOL    HW117519   3.650   6.001   2.810  1.0590 -0.4221  1.2013
 5591SOL    HW217520   3.595   5.865   2.848 -0.6913  0.3328  1.4382
 5592SOL     OW17521   4.211   5.071   2.637 -0.4078  0.2856 -0.2549
 5592SOL    HW117522   4.291   5.090   2.687 -0.9200  1.4861  0.1317
 5592SOL    HW217523   4.156   5.022   2.698  0.1416 -0.8277 -0.6267
 5593SOL     OW17524   0.046   1.074   5.152  0.1709  0.0832  0.6560
 5593SOL    HW117525   0.059   1.156   5.200 -0.4358 -0.2477  1.4026
 5593SOL    HW217526   0.118   1.071   5.089  0.5093  0.9212  0.9935
 5594SOL     OW17527   5.662   5.445   2.141  0.0170  0.7457 -0.0860
 5594SOL    HW117528   5.623   5.526   2.108  1.7865  1.0922 -1.5022
 5594SOL    HW217529   5.636   5.378   2.077 -1.2857  0.1968  0.9810
 5595SOL     OW17530   1.626   0.778   2.856 -0.1902 -0.3608  0.2929
 5595SOL    HW117531   1.631   0.782   2.951  2.1918  0.7053  0.2050
 5595SOL    HW217532   1.649   0.867   2.827  0.5058 -1.0213 -1.2860
 5596SOL     OW17533   2.767   1.476   2.779  0.4170  0.0356 -0.2045
 5596SOL    HW117534   2.754   1.382   2.786  0.6957  0.0049 -0.0850
 5596SOL    HW217535   2.843   1.494   2.834 -0.6281  0.5607  1.1408
 5597SOL     OW17536   3.049   0.380   1.857 -0.5121 -0.3945 -0.0408
 5597SOL    HW117537   3.130   0.338   1.827 -1.6399 -1.9142 -1.0864
 5597SOL    HW217538   3.056   0.379   1.952  1.3207  0.8215 -0.0980
 5598SOL     OW17539   4.529   4.006   2.156  0.1328 -0.2832 -0.2393
 5598SOL    HW117540   4.483   3.970   2.233  0.2930  0.7773  0.3769
 5598SOL    HW217541   4.592   4.068   2.193 -1.8565  2.5682 -1.3261
 5599SOL     OW17542   3.961   3.001   4.366 -0.0315  0.2913 -0.3345
 5599SOL    HW117543   3.988   2.981   4.276  1.4247  0.3351  0.0669
 5599SOL    HW217544   3.915   3.084   4.359  0.4063  0.4884 -0.9971
 5600SOL     OW17545   2.683   3.226   6.300  0.4062  0.5211  0.2125
 5600SOL    HW117546   2.650   3.312   6.279  0.7394  0.9272  1.2603
 5600SOL    HW217547   2.746   3.206   6.231 -0.5295  0.5987 -0.6748
 5601SOL     OW17548   1.509   2.925   3.891 -0.2853  0.0934  0.1299
 5601SOL    HW117549   1.420   2.912   3.926  0.4056 -1.1927  1.5227
 5601SOL    HW217550   1.530   2.841   3.849  0.4686  0.2009  0.2875
 5602SOL     OW17551   1.917   2.861   2.248  0.5398 -0.0953 -0.1508
 5602SOL    HW117552   1.892   2.954   2.248  1.2238  0.1397 -2.2737
 5602SOL    HW217553   1.863   2.822   2.317 -1.6130  1.4105 -0.8677
 5603SOL     OW17554   2.193   1.061   0.333  0.0565 -0.1089 -0.0560
 5603SOL    HW117555   2.217   1.151   0.356 -1.4734 -0.1661  2.0776
 5603SOL    HW217556   2.104   1.051   0.367  0.7236 -2.8878  1.1082
 5604SOL     OW17557   2.956   0.608   4.160  0.4425  0.3135 -0.0307
 5604SOL    HW117558   2.985   0.550   4.230 -0.9691 -3.5909 -2.3945
 5604SOL    HW217559   2.861   0.617   4.173  0.3783  0.6850 -0.6797
 5605SOL     OW17560   4.104   2.842   5.758  0.2788  1.1161 -0.3914
 5605SOL    HW117561   4.159   2.837   5.836 -0.8903  2.5190  0.5791
 5605SOL    HW217562   4.088   2.936   5.746 -0.0321  0.8836 -1.9943
 5606SOL     OW17563   2.919   5.971   1.336 -0.5464 -0.3056 -0.1380
 5606SOL    HW117564   3.004   6.016   1.331  0.1298 -1.6287 -1.1808
 5606SOL    HW217565   2.867   6.009   1.265 -1.0845  0.9301  0.8696
 5607SOL     OW17566   4.758   1.861   5.390  0.0685 -0.4707 -0.4716
 5607SOL    HW117567   4.779   1.952   5.368  0.3522 -0.7137 -1.2201
 5607SOL    HW217568   4.809   1.808   5.328 -1.9748 -1.0922 -1.7387
 5608SOL     OW17569   0.395   1.874   4.647 -0.0408 -0.0932  1.0546
 5608SOL    HW117570   0.413   1.935   4.719  1.5075 -0.1173  0.7205
 5608SOL    HW217571   0.453   1.800   4.663  0.7702  0.1624 -0.5210
 5609SOL     OW17572   0.319   5.107   1.728  0.0701 -0.6596 -0.0620
 5609SOL    HW117573   0.359   5.043   1.786 -0.5771 -0.5026  0.5645
 5609SOL    HW217574   0.229   5.113   1.757  0.1184  0.5409 -0.1166
 5610SOL     OW17575   3.091   0.632   5.715  0.4094 -0.2477 -0.4659
 5610SOL    HW117576   3.099   0.539   5.736 -2.4039 -0.8313 -1.4232
 5610SOL    HW217577   3.180   0.661   5.697  1.8163 -1.8772  3.0447
 5611SOL     OW17578   4.726   3.263   4.427  0.1981 -0.2858  0.3166
 5611SOL    HW117579   4.752   3.187   4.479 -1.4233 -0.4524  0.9318
 5611SOL    HW217580   4.690   3.325   4.491 -2.7732 -0.8951 -0.5884
 5612SOL     OW17581   3.454   1.279   5.553  0.1386  0.4049 -0.5829
 5612SOL    HW117582   3.364   1.311   5.559 -0.0361 -0.2545  1.0687
 5612SOL    HW217583   3.508   1.358   5.550 -0.5059  0.7996 -2.1047
 5613SOL     OW17584   4.555   5.059   0.526 -0.1085  0.0707 -0.0438
 5613SOL    HW117585   4.473   5.011   0.539 -0.1427  0.3696  0.9080
 5613SOL    HW217586   4.538   5.146   0.563  0.9076 -0.1356  0.9592
 5614SOL     OW17587   0.552   3.228   0.861  0.3867 -0.1238 -0.8471
 5614SOL    HW117588   0.646   3.207   0.860  0.5457  0.4313  0.3613
 5614SOL    HW217589   0.544   3.298   0.926 -0.6044  1.2321 -2.3523
 5615SOL     OW17590   4.028   4.084   2.609  0.2468 -0.0134  0.3777
 5615SOL    HW117591   3.968   4.114   2.678 -1.3078 -0.6510 -0.6524
 5615SOL    HW217592   4.115   4.102   2.645 -0.4815 -0.6676  2.6851
 5616SOL     OW17593   5.031   1.938   0.276 -0.0417 -0.1242 -0.3852
 5616SOL    HW117594   4.995   1.874   0.214  1.5865  1.0162 -2.6475
 5616SOL    HW217595   4.976   2.015   0.265  0.4806  0.2073 -0.7123
 5617SOL     OW17596   0.832   3.932   5.888  0.5133 -0.3788  1.0248
 5617SOL    HW117597   0.857   3.996   5.822 -3.0596  0.1073 -0.1020
 5617SOL    HW217598   0.834   3.848   5.841  0.1199 -0.3374  0.9287
 5618SOL     OW17599   5.993   2.544   5.170 -0.1032 -0.4595 -0.0747
 5618SOL    HW117600   6.082   2.541   5.135 -0.5582 -1.9775 -1.1968
 5618SOL    HW217601   5.954   2.461   5.144 -2.5876  1.0423 -1.5861
 5619SOL     OW17602   5.574   1.073   3.459  0.5058  0.4865 -0.0583
 5619SOL    HW117603   5.583   1.069   3.554 -0.1948  2.9627  0.1857
 5619SOL    HW217604   5.665   1.073   3.427  0.7619  0.2437  0.6349
 5620SOL     OW17605   5.325   6.190   2.115 -0.8075 -0.3095 -0.3737
 5620SOL    HW117606   5.244   6.150   2.146  0.3309 -1.0812  1.8156
 5620SOL    HW217607   5.357   6.241   2.190  1.5359 -1.3382 -0.5697
 5621SOL     OW17608   1.382   4.812   1.007  0.2252 -0.0775 -0.6952
 5621SOL    HW117609   1.467   4.819   1.051 -1.1339  1.8144  1.9164
 5621SOL    HW217610   1.386   4.879   0.938  0.9080 -0.1535 -0.7453
 5622SOL     OW17611   5.418   5.332   0.609  0.1188 -0.5244  0.4984
 5622SOL    HW117612   5.415   5.320   0.514  0.5870 -3.4430  0.7426
 5622SOL    HW217613   5.326   5.338   0.636 -0.2653 -3.2751  0.1038
 5623SOL     OW17614   2.269   4.562   4.762 -0.3242 -0.7174  0.5434
 5623SOL    HW117615   2.359   4.591   4.779 -0.6559  0.8617 -0.2813
 5623SOL    HW217616   2.246   4.509   4.839  0.3178  1.2282  2.1383
 5624SOL     OW17617   1.693   3.749   1.972 -0.1534  0.9842 -0.1990
 5624SOL    HW117618   1.741   3.766   2.053 -0.9352  1.6643  0.1364
 5624SOL    HW217619   1.742   3.679   1.929 -0.5767 -0.4732  1.5740
 5625SOL     OW17620   4.285   1.099   4.891 -0.3559  0.0009 -0.2980
 5625SOL    HW117621   4.280   1.029   4.826  0.5560  0.0287 -0.4095
 5625SOL    HW217622   4.375   1.132   4.885 -0.7023  1.0287 -0.0877
 5626SOL     OW17623   5.949   1.704   3.302 -0.2574 -0.2980 -0.4832
 5626SOL    HW117624   5.988   1.688   3.387  0.5936 -1.5831 -1.0792
 5626SOL    HW217625   6.019   1.683   3.239 -0.9898  0.2217 -1.5070
 5627SOL     OW17626   2.673   0.124   1.536  0.5231 -0.0732 -0.4507
 5627SOL    HW117627   2.639   0.112   1.447 -0.8484 -0.1095  0.0576
 5627SOL    HW217628   2.702   0.037   1.563 -1.5239 -0.6295  0.0947
 5628SOL     OW17629   3.386   4.208   1.875  0.7099  0.3844 -0.3416
 5628SOL    HW117630   3.416   4.299   1.877  2.7813 -0.2381 -0.6671
 5628SOL    HW217631   3.399   4.180   1.785  1.2407 -0.5855  0.0264
 5629SOL     OW17632   4.599   0.755   2.606 -0.3352 -0.2478 -0.1618
 5629SOL    HW117633   4.686   0.763   2.643 -0.2348  1.3606 -0.6444
 5629SOL    HW217634   4.602   0.676   2.552  1.2870  0.5745 -1.3439
 5630SOL     OW17635   4.722   1.001   0.036  0.1260  0.1656 -0.4830
 5630SOL    HW117636   4.638   0.991  -0.010 -1.2380 -0.4509  1.9661
 5630SOL    HW217637   4.731   1.095   0.051 -1.8561  0.0559  2.0512
 5631SOL     OW17638   0.960   4.229   4.071 -0.3646  0.4733  0.2694
 5631SOL    HW117639   0.936   4.246   3.980  2.5032  1.8089 -0.3766
 5631SOL    HW217640   1.035   4.288   4.087 -1.0625  0.6379  3.6640
 5632SOL     OW17641   3.858   4.508   2.521  0.2995  0.0790 -0.1181
 5632SOL    HW117642   3.952   4.491   2.526  0.4042  0.8917  1.1124
 5632SOL    HW217643   3.820   4.426   2.490  1.4894  0.0063 -1.4557
 5633SOL     OW17644   1.131   3.230   4.219 -0.1739  0.1606 -0.6002
 5633SOL    HW117645   1.198   3.260   4.158  1.6991 -0.4768  1.0254
 5633SOL    HW217646   1.136   3.135   4.217 -0.9631  0.1059 -0.3882
 5634SOL     OW17647   1.873   2.922   0.398 -0.2039  0.3055 -0.6058
 5634SOL    HW117648   1.887   2.839   0.442 -1.8250  0.0003 -0.6406
 5634SOL    HW217649   1.849   2.899   0.308  1.3995  0.8843 -1.2318
 5635SOL     OW17650   6.276   5.308   0.873 -0.3685 -0.0789  0.1215
 5635SOL    HW117651   6.310   5.352   0.951 -0.6626  0.7843 -0.2220
 5635SOL    HW217652   6.270   5.216   0.898 -1.0220  0.2684  1.3186
 5636SOL     OW17653   1.708   6.151   6.003  0.3495  0.6060  0.5781
 5636SOL    HW117654   1.747   6.235   5.981  0.6165  0.4490  0.4421
 5636SOL    HW217655   1.620   6.173   6.034 -0.0932  0.8446 -0.7728
 5637SOL     OW17656   2.978   0.758   5.280  0.4617  0.0251  0.9197
 5637SOL    HW117657   2.923   0.813   5.336  0.6570  0.2882  0.8491
 5637SOL    HW217658   2.953   0.782   5.191  0.4830 -0.0667  0.8891
 5638SOL     OW17659   5.875   4.722   4.921 -0.6680 -0.0833  0.3257
 5638SOL    HW117660   5.926   4.795   4.886  1.1684 -2.3549 -2.0897
 5638SOL    HW217661   5.802   4.712   4.861 -1.3215  0.1955  1.0615
 5639SOL     OW17662   1.186   2.562   1.044 -0.1934 -0.1533 -0.5387
 5639SOL    HW117663   1.257   2.502   1.020 -0.8846 -1.0176 -0.4930
 5639SOL    HW217664   1.108   2.524   1.003 -1.0345 -0.4900  1.2485
 5640SOL     OW17665   2.936   0.150   3.737 -0.6040 -0.0057 -0.2065
 5640SOL    HW117666   2.858   0.095   3.746 -0.9333  0.8679  3.9013
 5640SOL    HW217667   2.989   0.131   3.814  2.5707  0.6354 -2.0442
 5641SOL     OW17668   1.204   6.261   4.941 -0.0794 -0.0129  0.1539
 5641SOL    HW117669   1.162   6.213   4.869  0.4654 -0.4778  0.1439
 5641SOL    HW217670   1.230   6.344   4.902 -1.4613  0.5142  0.2887
 5642SOL     OW17671   1.903   1.090   1.484  0.5834 -0.1729  0.7765
 5642SOL    HW117672   1.828   1.145   1.507  0.6908  0.6799 -0.7702
 5642SOL    HW217673   1.866   1.001   1.479 -0.5902  0.3413 -0.8089
 5643SOL     OW17674   0.562   4.815   0.367  0.0628 -0.4063  0.7474
 5643SOL    HW117675   0.602   4.760   0.434  1.4749  0.3937  0.6122
 5643SOL    HW217676   0.470   4.820   0.391  0.9050  2.0672  4.2982
 5644SOL     OW17677   3.498   3.363   2.603  0.9022  0.4905  0.2381
 5644SOL    HW117678   3.511   3.413   2.684 -0.1111 -0.2876  0.9210
 5644SOL    HW217679   3.586   3.341   2.573  1.2900  0.5282  1.3099
 5645SOL     OW17680   4.815   6.002   4.080 -0.5941 -0.3560  0.4305
 5645SOL    HW117681   4.820   6.080   4.135  1.4944 -0.8792  1.0534
 5645SOL    HW217682   4.769   6.032   4.001 -0.5242  1.2981  0.9808
 5646SOL     OW17683   1.589   2.271   3.500 -0.8177  0.1972 -0.0321
 5646SOL    HW117684   1.607   2.360   3.472  0.1015 -0.2359 -0.9047
 5646SOL    HW217685   1.555   2.280   3.589 -0.0653  1.3733  0.1657
 5647SOL     OW17686   4.187   5.554   0.920 -0.4848 -0.1694  0.4296
 5647SOL    HW117687   4.222   5.465   0.917  1.3835  0.3622  2.9100
 5647SOL    HW217688   4.121   5.551   0.990  0.7076  0.6977  1.6237
 5648SOL     OW17689   1.153   3.210   3.303  0.3475 -0.2270 -0.1028
 5648SOL    HW117690   1.169   3.252   3.387  0.1560  0.0899 -0.2214
 5648SOL    HW217691   1.174   3.277   3.238  1.5373 -0.8193 -0.3442
 5649SOL     OW17692   0.712   6.051   0.421  0.4027 -0.1191 -0.2839
 5649SOL    HW117693   0.806   6.038   0.411  0.9360  1.0528  2.2395
 5649SOL    HW217694   0.705   6.117   0.490 -2.2767  0.0654 -0.6433
 5650SOL     OW17695   3.564   2.435   3.051 -0.2681 -0.4402  0.2836
 5650SOL    HW117696   3.641   2.482   3.082 -0.2755  0.8011 -1.4280
 5650SOL    HW217697   3.511   2.420   3.130  1.1174 -0.2142  1.2933
 5651SOL     OW17698   3.522   2.834   0.168  0.5554  0.4917  0.0037
 5651SOL    HW117699   3.472   2.757   0.140 -1.5280  1.7204  0.1116
 5651SOL    HW217700   3.536   2.884   0.087 -0.6334  1.3503  0.2940
 5652SOL     OW17701   1.007   2.262   2.343 -0.4813 -0.2657 -0.1695
 5652SOL    HW117702   1.074   2.257   2.411  1.1649  0.3456 -1.6676
 5652SOL    HW217703   1.023   2.347   2.301 -0.7455 -1.0604 -1.9770
 5653SOL     OW17704   4.287   1.595   1.990  0.5064  0.1178 -0.3837
 5653SOL    HW117705   4.286   1.691   1.995  0.4216  0.0696  0.8034
 5653SOL    HW217706   4.358   1.568   2.049  0.1289 -0.5677 -0.2315
 5654SOL     OW17707   0.626   3.307   0.457 -0.4093  0.0140 -0.5521
 5654SOL    HW117708   0.642   3.361   0.535 -0.9853 -0.7368  0.0983
 5654SOL    HW217709   0.702   3.250   0.452 -0.3050  0.1578 -0.6299
 5655SOL     OW17710   3.821   0.343   0.554  0.5734 -0.2318 -0.2695
 5655SOL    HW117711   3.789   0.254   0.534 -2.0507  0.6301 -0.2514
 5655SOL    HW217712   3.788   0.397   0.482  1.6226  0.8697  0.0357
 5656SOL     OW17713   5.727   4.895   5.279 -0.3682  0.3424 -0.4471
 5656SOL    HW117714   5.747   4.934   5.194  1.5224  0.6737  0.1143
 5656SOL    HW217715   5.771   4.810   5.279 -2.3300 -0.7389 -0.6657
 5657SOL     OW17716   3.039   1.125   2.921 -0.0563 -0.5356 -0.0819
 5657SOL    HW117717   3.127   1.088   2.922  0.9578  1.6867  1.2780
 5657SOL    HW217718   2.982   1.054   2.951  1.5496 -1.4374  0.9192
 5658SOL     OW17719   1.042   2.833   0.130 -0.2679  0.4872 -0.1790
 5658SOL    HW117720   1.029   2.923   0.102 -1.3701  0.9452  1.6205
 5658SOL    HW217721   1.057   2.840   0.224 -1.5792 -1.2806  0.2099
 5659SOL     OW17722   1.222   2.020   2.729  0.7969  0.4710  0.3606
 5659SOL    HW117723   1.199   1.940   2.778 -1.4667  1.4457  1.0552
 5659SOL    HW217724   1.240   2.085   2.797 -1.6874  1.6581  0.0120
 5660SOL     OW17725   4.487   5.547   5.480 -0.2380  0.5821 -0.6305
 5660SOL    HW117726   4.561   5.539   5.421 -0.3339 -0.2078 -0.6639
 5660SOL    HW217727   4.420   5.490   5.442  0.0982 -0.8899  0.8255
 5661SOL     OW17728   1.375   1.605   2.165  0.1804  0.1167  0.1414
 5661SOL    HW117729   1.325   1.555   2.230 -1.4509  1.2915 -0.1547
 5661SOL    HW217730   1.394   1.541   2.095 -1.0734 -0.3303  0.1811
 5662SOL     OW17731   0.352   2.716   2.059 -0.1319  0.1551 -0.2038
 5662SOL    HW117732   0.371   2.785   2.122  0.6085  1.3866 -1.6967
 5662SOL    HW217733   0.282   2.752   2.004 -1.7272 -1.4261  0.6905
 5663SOL     OW17734   1.187   3.657   1.877 -0.1439  0.1983 -0.2278
 5663SOL    HW117735   1.117   3.667   1.941  0.0964  1.4598 -0.1352
 5663SOL    HW217736   1.266   3.645   1.930 -0.0478  0.5421 -0.2873
 5664SOL     OW17737   4.568   4.101   5.430 -0.3391  0.2412  0.0179
 5664SOL    HW117738   4.503   4.171   5.432 -0.0304  0.5207  1.6246
 5664SOL    HW217739   4.565   4.062   5.517 -0.4306 -1.7147 -0.8020
 5665SOL     OW17740   0.155   4.476   2.907  0.0608  0.5287  0.7206
 5665SOL    HW117741   0.146   4.384   2.884  0.8942  0.8402 -1.0155
 5665SOL    HW217742   0.109   4.485   2.991 -2.7073 -0.8171 -0.5309
 5666SOL     OW17743   1.057   1.420   2.937  0.5718 -0.4721  0.0186
 5666SOL    HW117744   1.142   1.413   2.980  1.1185 -0.3060 -0.9919
 5666SOL    HW217745   1.010   1.487   2.986  2.2553  1.7878 -1.2859
 5667SOL     OW17746   4.821   1.466   5.327 -0.2390  0.1105 -0.5332
 5667SOL    HW117747   4.894   1.528   5.336 -0.6927  0.6137 -0.2426
 5667SOL    HW217748   4.825   1.436   5.237  0.0257  0.5221 -0.6586
 5668SOL     OW17749   3.469   2.502   0.635  0.0481  0.3291 -0.1963
 5668SOL    HW117750   3.517   2.488   0.553  1.8859  2.0563  0.5232
 5668SOL    HW217751   3.475   2.596   0.652 -1.2761  0.1857  1.3639
 5669SOL     OW17752   3.180   0.598   5.322 -0.8009  0.1144  0.6774
 5669SOL    HW117753   3.119   0.664   5.291 -1.2516 -0.1815  0.9274
 5669SOL    HW217754   3.236   0.644   5.385  1.3678  1.2365 -1.8511
 5670SOL     OW17755   4.493   4.041   6.198  0.1412  0.0163 -0.2762
 5670SOL    HW117756   4.571   4.026   6.145  1.2412  0.0782  1.2858
 5670SOL    HW217757   4.519   4.107   6.262 -1.5252  0.8520 -0.3954
 5671SOL     OW17758   5.273   5.649   5.512  0.1725 -0.0407  0.0301
 5671SOL    HW117759   5.292   5.653   5.419 -0.2172  0.0349 -0.0480
 5671SOL    HW217760   5.330   5.580   5.546  1.3575  0.8977 -0.0036
 5672SOL     OW17761   5.597   5.717   1.436  0.7053  0.2801 -0.1854
 5672SOL    HW117762   5.675   5.759   1.400 -0.6427  2.3195 -0.9191
 5672SOL    HW217763   5.560   5.669   1.363  1.7768 -1.6349  0.4389
 5673SOL     OW17764   4.938   4.838   5.760 -0.5795 -0.1036 -0.4985
 5673SOL    HW117765   5.018   4.881   5.789 -1.2712  0.4424  0.6451
 5673SOL    HW217766   4.957   4.811   5.669 -0.3265  3.1499 -1.5351
 5674SOL     OW17767   3.200   0.620   1.697 -0.1608 -0.2792 -0.7274
 5674SOL    HW117768   3.183   0.560   1.624 -2.1451 -0.1811 -0.3869
 5674SOL    HW217769   3.149   0.698   1.677  0.7604  0.4994 -0.1394
 5675SOL     OW17770   5.551   4.167   3.551  0.3277  0.3848 -0.5312
 5675SOL    HW117771   5.554   4.129   3.464  0.9270  0.6574 -0.6351
 5675SOL    HW217772   5.489   4.241   3.543 -3.2503 -2.2334  0.3854
 5676SOL     OW17773   3.948   1.384   2.493  0.0716 -0.7327 -0.2319
 5676SOL    HW117774   3.967   1.477   2.479 -3.0130 -0.1443 -1.3840
 5676SOL    HW217775   3.921   1.352   2.407 -2.0354 -1.8180  0.7568
 5677SOL     OW17776   5.416   0.585   3.216  0.5745 -0.0106  0.0565
 5677SOL    HW117777   5.441   0.568   3.306 -2.1580  0.0387  0.9154
 5677SOL    HW217778   5.384   0.501   3.183 -0.8568  0.5170  0.0273
 5678SOL     OW17779   6.273   5.908   4.918 -0.7322  0.8054 -0.4924
 5678SOL    HW117780   6.231   5.910   4.832  0.2264  1.1291 -0.9742
 5678SOL    HW217781   6.355   5.956   4.905  0.8891 -1.6903 -0.1701
 5679SOL     OW17782   4.018   0.302   3.781  0.1248  0.1277  0.0412
 5679SOL    HW117783   3.976   0.363   3.843 -0.4978 -0.0414 -0.2054
 5679SOL    HW217784   4.045   0.228   3.835 -0.9382 -0.2845  0.0420
 5680SOL     OW17785   2.600   4.244   6.181 -0.6881  0.0002 -0.2347
 5680SOL    HW117786   2.595   4.186   6.256 -2.1038 -1.2963 -1.2832
 5680SOL    HW217787   2.662   4.312   6.208  3.2476 -3.3180  0.1272
 5681SOL     OW17788   2.943   3.492   4.736  0.8549 -0.5680 -0.7890
 5681SOL    HW117789   3.027   3.518   4.698  1.2776  0.6940  0.9235
 5681SOL    HW217790   2.899   3.575   4.757 -0.2009 -1.2191 -0.3466
 5682SOL     OW17791   2.273   1.603   1.263 -0.0850  0.3125  0.2107
 5682SOL    HW117792   2.346   1.550   1.232  0.7144  1.6488 -0.2936
 5682SOL    HW217793   2.273   1.591   1.358 -1.1535 -2.0568 -0.0108
 5683SOL     OW17794   0.363   1.334   5.883  0.2776 -0.0959 -0.1233
 5683SOL    HW117795   0.311   1.319   5.961  0.9936 -1.3554  0.1473
 5683SOL    HW217796   0.314   1.290   5.813  1.1353 -1.6323  0.2051
 5684SOL     OW17797   0.583   0.110   4.655  0.0487  0.4288 -0.0347
 5684SOL    HW117798   0.569   0.075   4.567  2.5092 -2.3459  0.5162
 5684SOL    HW217799   0.495   0.121   4.690 -0.9633  0.0565 -2.2440
 5685SOL     OW17800   3.345   4.913   1.501 -0.3637  0.7752 -0.2095
 5685SOL    HW117801   3.381   4.927   1.413 -0.0304 -0.6293 -0.3205
 5685SOL    HW217802   3.421   4.906   1.557 -0.4927 -0.5382 -0.1761
 5686SOL     OW17803   4.763   2.915   3.744 -0.9115 -0.1068  0.0130
 5686SOL    HW117804   4.752   3.004   3.779 -0.1881  0.5673 -1.3930
 5686SOL    HW217805   4.691   2.905   3.682 -2.9315 -1.7511  2.3890
 5687SOL     OW17806   3.404   2.853   0.435 -0.5432  0.5490 -0.3881
 5687SOL    HW117807   3.318   2.884   0.409 -0.8251 -1.0118 -1.4790
 5687SOL    HW217808   3.449   2.836   0.353 -0.2381 -1.3284  0.1221
 5688SOL     OW17809   0.056   5.530   0.390  0.1083  0.0251  0.0589
 5688SOL    HW117810  -0.015   5.591   0.408  0.0944  0.2896 -0.8463
 5688SOL    HW217811   0.018   5.443   0.407  0.0816  0.2384  1.1868
 5689SOL     OW17812   3.791   1.609   6.084  0.1108  0.5215 -0.2553
 5689SOL    HW117813   3.854   1.616   6.155  1.4193 -1.7029 -1.0753
 5689SOL    HW217814   3.787   1.515   6.066 -1.0245  0.9226 -2.3624
 5690SOL     OW17815   3.664   1.168   1.034  0.3049 -0.1215  0.3821
 5690SOL    HW117816   3.648   1.262   1.044  2.8447  0.2642  1.8126
 5690SOL    HW217817   3.638   1.129   1.118 -3.2981 -1.2469 -1.0846
 5691SOL     OW17818   6.272   2.007   3.365  0.0003 -0.0247  0.1011
 5691SOL    HW117819   6.286   1.922   3.406  0.4983  0.7241  1.5475
 5691SOL    HW217820   6.342   2.062   3.398 -0.2087  0.9217 -0.9456
 5692SOL     OW17821   5.636   2.659   2.159  0.2827 -0.0731  0.2783
 5692SOL    HW117822   5.627   2.625   2.070  1.1955 -0.5829  0.3656
 5692SOL    HW217823   5.663   2.750   2.149  1.8044 -0.5349  0.0148
 5693SOL     OW17824   5.877   5.645   3.765  0.3685  0.2863  0.5133
 5693SOL    HW117825   5.959   5.597   3.769  0.3566  0.0749 -1.0516
 5693SOL    HW217826   5.901   5.733   3.735  0.0995  0.4018  0.6291
 5694SOL     OW17827   4.881   5.422   2.010 -0.1439  0.4916  0.3265
 5694SOL    HW117828   4.796   5.379   2.012  0.8991 -1.6954  0.9505
 5694SOL    HW217829   4.940   5.357   1.971  1.3965  1.6257  0.6667
 5695SOL     OW17830   2.563   3.497   0.410 -0.3975 -0.2925 -0.1761
 5695SOL    HW117831   2.614   3.450   0.344 -1.1232 -0.2068 -0.8172
 5695SOL    HW217832   2.491   3.537   0.360 -0.8280 -0.0382  0.6345
 5696SOL     OW17833   1.462   0.741   0.515  0.3650  0.2779 -0.5064
 5696SOL    HW117834   1.441   0.652   0.488  0.7821 -0.1039  0.4008
 5696SOL    HW217835   1.424   0.749   0.603 -1.9689  1.8748 -1.5418
 5697SOL     OW17836   4.265   0.990   3.228  0.8461 -0.4961  0.3171
 5697SOL    HW117837   4.255   0.963   3.137 -0.0084  0.4279  0.1238
 5697SOL    HW217838   4.349   1.036   3.231  0.9027 -0.5823  0.0145
 5698SOL     OW17839   3.441   0.211   5.764 -0.9024  0.1263  0.0493
 5698SOL    HW117840   3.427   0.285   5.705  1.2649 -1.0776 -2.2056
 5698SOL    HW217841   3.536   0.210   5.778 -1.2601 -0.0076  3.2106
 5699SOL     OW17842   0.628   5.073   1.766 -0.6816  0.3282 -0.2872
 5699SOL    HW117843   0.599   4.987   1.795 -2.1127  0.5970 -0.8203
 5699SOL    HW217844   0.712   5.057   1.723 -0.7726 -0.7535 -0.0949
 5700SOL     OW17845   0.362   2.391   3.087 -0.2077  0.3052  0.0486
 5700SOL    HW117846   0.301   2.322   3.061 -0.6064  0.4135  0.6537
 5700SOL    HW217847   0.307   2.454   3.134 -0.2211  2.0054 -2.1224
 5701SOL     OW17848   1.423   1.237   1.776 -0.3884  0.7939  0.2480
 5701SOL    HW117849   1.466   1.242   1.690  0.0852  0.6983  0.4775
 5701SOL    HW217850   1.477   1.176   1.826 -0.6870  0.8196  0.6054
 5702SOL     OW17851   0.437   1.560   6.194 -0.0469  0.3127 -0.6816
 5702SOL    HW117852   0.529   1.534   6.205 -0.3499 -0.3636  0.4016
 5702SOL    HW217853   0.437   1.614   6.115  1.3881  0.8066 -0.3815
 5703SOL     OW17854   1.373   1.135   2.670  0.0765 -0.2547  0.3079
 5703SOL    HW117855   1.299   1.083   2.700 -0.4152 -0.2193 -0.7872
 5703SOL    HW217856   1.347   1.226   2.688 -0.4449 -0.1970 -0.6487
 5704SOL     OW17857   3.729   4.355   4.096  0.0440 -0.1065  0.1770
 5704SOL    HW117858   3.651   4.302   4.078 -0.0286  0.2064 -0.4757
 5704SOL    HW217859   3.773   4.310   4.168 -1.1745  0.1806  1.1225
 5705SOL     OW17860   5.487   4.204   0.115 -0.7254  0.6731  0.1990
 5705SOL    HW117861   5.475   4.165   0.029 -0.8026 -0.4232  0.6897
 5705SOL    HW217862   5.582   4.213   0.125 -0.6327 -0.4421  0.5115
 5706SOL     OW17863   4.368   6.045   0.741 -0.0070  0.1712  0.4788
 5706SOL    HW117864   4.403   5.974   0.688 -1.3269 -0.6017  0.6074
 5706SOL    HW217865   4.313   6.095   0.680  0.8214  1.0334  0.4161
 5707SOL     OW17866   0.514   1.626   5.146  0.3453 -0.0829  0.3459
 5707SOL    HW117867   0.441   1.633   5.085  0.4738  3.0831  0.4097
 5707SOL    HW217868   0.472   1.607   5.230 -0.3089  0.4367  0.1510
 5708SOL     OW17869   2.582   3.117   5.612 -0.3015 -0.1514 -0.1674
 5708SOL    HW117870   2.635   3.078   5.542 -1.7221 -1.8886 -0.3442
 5708SOL    HW217871   2.494   3.123   5.574 -1.1127 -1.1984  1.4667
 5709SOL     OW17872   1.102   0.006   1.715 -0.2633  0.1079 -0.2742
 5709SOL    HW117873   1.062   0.082   1.756 -0.8840 -0.2403 -0.2220
 5709SOL    HW217874   1.029  -0.042   1.675 -0.0216 -0.9039  0.4290
 5710SOL     OW17875   1.543   0.661   0.897 -0.3034 -0.0155 -0.2699
 5710SOL    HW117876   1.559   0.587   0.956 -0.7094  0.5170  0.5170
 5710SOL    HW217877   1.533   0.736   0.954 -1.7695  0.3314 -0.9440
 5711SOL     OW17878   2.434   0.389   0.735  0.0284  0.4026  0.0183
 5711SOL    HW117879   2.499   0.325   0.763 -0.2443 -0.3388 -1.0122
 5711SOL    HW217880   2.383   0.407   0.814 -0.3642 -1.2140  0.1633
 5712SOL     OW17881   5.041   0.657   5.217  0.0765  0.5481 -0.1556
 5712SOL    HW117882   4.976   0.724   5.197 -0.4311 -0.2990 -1.5138
 5712SOL    HW217883   5.079   0.635   5.132 -0.0969 -1.1943  0.1755
 5713SOL     OW17884   6.183   1.970   5.357 -0.3281  0.4691 -0.0758
 5713SOL    HW117885   6.275   1.983   5.380  0.3868 -1.1322 -1.7354
 5713SOL    HW217886   6.142   1.943   5.439  0.6134  1.4285  0.7471
 5714SOL     OW17887   4.052   1.868   6.301 -0.5669 -0.4339 -0.4806
 5714SOL    HW117888   4.009   1.791   6.338 -1.2921 -0.4689 -1.3625
 5714SOL    HW217889   4.141   1.838   6.280 -1.5321 -1.7913 -3.0590
 5715SOL     OW17890   5.950   3.200   4.609  0.3586 -0.6213 -0.8053
 5715SOL    HW117891   5.932   3.106   4.614 -0.3773 -0.4286  1.2850
 5715SOL    HW217892   6.042   3.208   4.636 -0.0696 -0.6408  0.7600
 5716SOL     OW17893   5.735   5.679   0.755  0.2215  0.0193  0.0242
 5716SOL    HW117894   5.673   5.661   0.684  0.0890 -0.7464  0.3247
 5716SOL    HW217895   5.816   5.635   0.728  0.1284 -0.3926  0.4107
 5717SOL     OW17896   0.543   5.509   5.060  0.2002 -0.5394  0.2472
 5717SOL    HW117897   0.578   5.564   4.990 -1.1960 -0.0518 -0.1087
 5717SOL    HW217898   0.525   5.569   5.131 -1.5052 -0.4563 -0.2071
 5718SOL     OW17899   4.232   1.510   5.844  0.2557  0.1117 -0.4121
 5718SOL    HW117900   4.320   1.531   5.875 -0.2946  0.8403  0.7097
 5718SOL    HW217901   4.185   1.482   5.923 -0.7177  0.4260 -0.8665
 5719SOL     OW17902   1.673   1.170   2.459  0.3235 -0.4882 -0.5909
 5719SOL    HW117903   1.661   1.207   2.371  0.4248  0.9219 -0.0436
 5719SOL    HW217904   1.621   1.227   2.516  3.2740  1.0488  0.7826
 5720SOL     OW17905   5.686   2.908   5.670 -0.2093 -0.4334  0.0602
 5720SOL    HW117906   5.692   2.987   5.724 -3.3372  0.4922 -0.7555
 5720SOL    HW217907   5.746   2.924   5.596  4.0762 -1.6802  2.8607
 5721SOL     OW17908   5.726   3.735   2.954 -0.8476  0.0289  0.1393
 5721SOL    HW117909   5.649   3.685   2.927 -2.6310  2.9574 -0.7472
 5721SOL    HW217910   5.690   3.808   3.005  1.4834  0.8223  0.7876
 5722SOL     OW17911   4.179   0.236   1.074 -0.0016 -0.2736 -0.0477
 5722SOL    HW117912   4.110   0.236   1.141  0.0012 -0.2995 -0.0450
 5722SOL    HW217913   4.133   0.216   0.992  0.1777 -1.5067  0.1357
 5723SOL     OW17914   2.263   3.165   3.863 -0.0236 -0.4066 -0.6626
 5723SOL    HW117915   2.320   3.237   3.890 -0.8216 -0.1746  0.4394
 5723SOL    HW217916   2.229   3.129   3.945 -3.6256  1.1914 -1.3060
 5724SOL     OW17917   4.786   1.520   0.134 -0.0478  0.1907  0.3807
 5724SOL    HW117918   4.870   1.495   0.094 -0.3424 -1.4926  0.7515
 5724SOL    HW217919   4.800   1.508   0.228 -1.0015 -1.1207  0.3763
 5725SOL     OW17920   2.092   0.964   4.871  0.0022 -0.1837 -0.1224
 5725SOL    HW117921   2.073   1.019   4.795 -0.4046 -0.8594 -0.5226
 5725SOL    HW217922   2.132   0.885   4.833  1.1591  0.0964  0.4920
 5726SOL     OW17923   5.565   3.718   3.771 -0.4474 -0.1653 -0.0456
 5726SOL    HW117924   5.564   3.675   3.857  2.7015 -1.3474 -0.4616
 5726SOL    HW217925   5.485   3.688   3.728 -0.3711 -2.3894  1.1974
 5727SOL     OW17926   2.740   5.860   5.653 -0.2205 -0.4921 -0.0301
 5727SOL    HW117927   2.745   5.882   5.560 -2.0482 -0.3501 -0.1341
 5727SOL    HW217928   2.773   5.770   5.659  1.8912  0.2127 -0.4679
 5728SOL     OW17929   5.204   5.705   0.440  0.7247  0.1173 -0.8661
 5728SOL    HW117930   5.198   5.610   0.424  0.9085 -0.1858  0.6803
 5728SOL    HW217931   5.113   5.734   0.449  0.6987 -0.5030  1.5706
 5729SOL     OW17932   4.417   1.830   3.683  0.3908 -0.2199  0.5441
 5729SOL    HW117933   4.323   1.845   3.684  0.3639 -0.3346  0.1001
 5729SOL    HW217934   4.426   1.736   3.664  0.5700 -0.5370  2.1223
 5730SOL     OW17935   2.290   0.312   6.215 -0.1336  0.0776  0.1634
 5730SOL    HW117936   2.337   0.395   6.213  1.4184 -0.7394  0.7575
 5730SOL    HW217937   2.293   0.280   6.125  0.4002  0.0794  0.1746
 5731SOL     OW17938   5.573   3.594   0.826  0.3833  0.5353  0.5953
 5731SOL    HW117939   5.507   3.657   0.853 -0.3101 -1.1071  3.0538
 5731SOL    HW217940   5.645   3.606   0.887  2.3284  2.0392 -1.8154
 5732SOL     OW17941   4.430   5.390   5.150  0.3299 -0.5232 -0.3493
 5732SOL    HW117942   4.420   5.483   5.129  0.2046 -0.3288  0.5210
 5732SOL    HW217943   4.363   5.374   5.217  1.4728 -0.8049  0.7650
 5733SOL     OW17944   1.503   3.293   4.928  0.3493  0.6804  0.7429
 5733SOL    HW117945   1.433   3.228   4.929  1.0942 -0.2544 -1.2072
 5733SOL    HW217946   1.576   3.250   4.974 -0.1389  1.4009  2.2139
 5734SOL     OW17947   0.085   1.895   6.221  0.4128  0.2352 -0.3511
 5734SOL    HW117948   0.042   1.978   6.242  0.2750  0.0710  0.0042
 5734SOL    HW217949   0.172   1.921   6.190  0.3280  0.5189 -0.3552
 5735SOL     OW17950   2.625   4.808   3.512  0.2027 -0.0832 -0.1065
 5735SOL    HW117951   2.542   4.814   3.464 -0.3525  0.5561  0.8880
 5735SOL    HW217952   2.646   4.715   3.514  0.5004 -0.0871 -1.9890
 5736SOL     OW17953   1.952   2.594   4.462 -0.6726  0.4155  0.0749
 5736SOL    HW117954   1.994   2.512   4.488 -1.1937 -0.5197 -1.9134
 5736SOL    HW217955   2.024   2.651   4.437 -0.4013 -0.1318 -0.4134
 5737SOL     OW17956   0.145   2.262   3.042  0.1020 -0.0530  0.0609
 5737SOL    HW117957   0.114   2.205   3.112 -2.1978  0.3703 -0.5227
 5737SOL    HW217958   0.065   2.286   2.993  1.4113  0.9705 -1.7085
 5738SOL     OW17959   3.901   4.214   6.179  0.6591  0.3174  0.0883
 5738SOL    HW117960   3.900   4.161   6.100 -0.2012 -1.1225  1.0281
 5738SOL    HW217961   3.979   4.185   6.227 -0.6626 -1.3750  1.3699
 5739SOL     OW17962   0.221   5.250   2.168  0.2136  0.0224  0.2144
 5739SOL    HW117963   0.300   5.250   2.115  0.0688  2.1240 -0.1009
 5739SOL    HW217964   0.181   5.335   2.150 -0.9015 -0.0489  2.1392
 5740SOL     OW17965   4.062   6.047   2.879 -0.4943  0.1138 -0.0536
 5740SOL    HW117966   4.136   6.047   2.939 -0.8102 -0.0430  0.3442
 5740SOL    HW217967   4.092   5.999   2.803  0.0572  0.6932 -0.2042
 5741SOL     OW17968   1.180   6.159   4.669 -0.3646  0.0575  0.2027
 5741SOL    HW117969   1.274   6.141   4.673 -0.5007 -0.7394 -0.0261
 5741SOL    HW217970   1.171   6.230   4.605  0.2655  1.5867  1.7453
 5742SOL     OW17971   3.449   5.378   0.086 -0.1108  0.1062 -0.2539
 5742SOL    HW117972   3.481   5.334   0.008 -2.4553 -0.2204 -1.1219
 5742SOL    HW217973   3.380   5.437   0.053  0.2433  1.4816  1.3403
 5743SOL     OW17974   3.673   1.434   3.347 -0.4803 -0.0728 -0.1311
 5743SOL    HW117975   3.762   1.399   3.359 -0.2404  0.4712 -0.3122
 5743SOL    HW217976   3.626   1.363   3.304  0.6114  0.6293 -2.6235
 5744SOL     OW17977   3.688   2.409   1.089  0.5276 -0.3847  0.0492
 5744SOL    HW117978   3.620   2.370   1.035 -1.4942  0.1054  2.0878
 5744SOL    HW217979   3.718   2.485   1.039 -0.1015 -0.8638 -1.0805
 5745SOL     OW17980   1.169   0.755   2.977 -0.1146  0.3403  0.0444
 5745SOL    HW117981   1.089   0.756   3.031  0.6992 -0.1278  1.3068
 5745SOL    HW217982   1.221   0.827   3.012  1.2060 -1.0948  1.1545
 5746SOL     OW17983   1.316   4.838   0.663  0.2522  0.2236  0.4544
 5746SOL    HW117984   1.339   4.749   0.692  1.6623 -0.4740 -2.4667
 5746SOL    HW217985   1.373   4.895   0.715 -0.1578 -0.5755  1.8580
 5747SOL     OW17986   0.127   5.550   1.603 -0.3171 -0.0940  0.5536
 5747SOL    HW117987   0.046   5.579   1.645  0.2247  1.4038  0.6102
 5747SOL    HW217988   0.171   5.497   1.670 -1.6890 -1.8057  0.1722
 5748SOL     OW17989   2.176   2.836   0.070 -0.0036 -0.2230 -0.0281
 5748SOL    HW117990   2.244   2.850   0.004 -1.2101  1.0795 -1.0489
 5748SOL    HW217991   2.225   2.831   0.153  1.4741 -1.2272 -0.9229
 5749SOL     OW17992   0.786   0.644   2.825 -0.2383  0.2901  0.0283
 5749SOL    HW117993   0.881   0.647   2.815 -0.1800  0.2569  0.5555
 5749SOL    HW217994   0.755   0.721   2.777  0.1519  1.0375  0.9286
 5750SOL     OW17995   3.640   3.967   0.959 -0.4705  0.5267 -0.6526
 5750SOL    HW117996   3.708   4.034   0.968  0.4875 -0.4339 -0.4779
 5750SOL    HW217997   3.636   3.925   1.044  1.0206 -1.5317 -1.5138
 5751SOL     OW17998   1.214   3.418   3.131  0.0326 -0.1640 -0.0946
 5751SOL    HW117999   1.302   3.444   3.105  0.5961 -0.1619  1.6711
 5751SOL    HW218000   1.183   3.363   3.059  1.7626 -0.7573 -0.4471
 5752SOL     OW18001   0.413   4.027   4.809  0.6525  0.2498  0.4236
 5752SOL    HW118002   0.422   4.031   4.713 -2.3138 -0.6759 -0.0081
 5752SOL    HW218003   0.378   4.113   4.833  1.4760  0.5100  0.6986
 5753SOL     OW18004   3.682   3.655   5.377 -0.4718 -0.4330  0.2228
 5753SOL    HW118005   3.609   3.595   5.387 -0.8359 -0.0427 -0.0825
 5753SOL    HW218006   3.655   3.716   5.308  0.3521 -0.6048 -0.2707
 5754SOL     OW18007   3.412   4.378   4.226 -0.4593 -0.5782  0.6727
 5754SOL    HW118008   3.356   4.455   4.233  1.2059  0.6418  0.9761
 5754SOL    HW218009   3.432   4.370   4.133 -0.4230 -0.4908  0.6733
 5755SOL     OW18010   0.139   4.511   6.006  0.0487 -0.1624  0.1522
 5755SOL    HW118011   0.219   4.460   5.988 -0.5057 -0.8145 -0.5248
 5755SOL    HW218012   0.169   4.602   6.005  0.5030 -0.2812 -1.9279
 5756SOL     OW18013   1.889   5.380   3.255  0.2059 -0.0432 -0.0216
 5756SOL    HW118014   1.837   5.335   3.188 -0.5736  0.6561  0.0921
 5756SOL    HW218015   1.936   5.448   3.208  0.2269 -0.0227  0.0289
 5757SOL     OW18016   3.587   4.015   0.244  0.2090  0.0464  0.7664
 5757SOL    HW118017   3.492   4.019   0.240  0.0859 -1.5757  1.0645
 5757SOL    HW218018   3.615   4.008   0.153  0.2941  3.3559  0.4363
 5758SOL     OW18019   1.575   1.292   4.477 -0.0701  0.5733  0.2530
 5758SOL    HW118020   1.618   1.353   4.536  3.4310  0.5344 -1.9416
 5758SOL    HW218021   1.536   1.348   4.409  2.0494  0.5318 -1.0788
 5759SOL     OW18022   2.455   2.348   2.704 -0.0892  0.8802  0.0867
 5759SOL    HW118023   2.480   2.427   2.657 -0.6851  0.7735 -0.4242
 5759SOL    HW218024   2.371   2.369   2.744 -0.4930  0.3462 -0.4656
 5760SOL     OW18025   1.739   5.548   5.301  0.0704 -0.2065 -0.2514
 5760SOL    HW118026   1.731   5.643   5.293 -0.2473 -0.1201  0.9561
 5760SOL    HW218027   1.699   5.514   5.220 -0.2030  0.6713 -0.4953
 5761SOL     OW18028   4.314   0.596   1.447  0.7794 -0.0870  0.2415
 5761SOL    HW118029   4.312   0.545   1.366 -0.0448 -0.0870  0.2616
 5761SOL    HW218030   4.404   0.629   1.452  1.2357 -1.2628  0.0633
 5762SOL     OW18031   1.871   1.088   5.552  0.4905 -0.4396 -0.0430
 5762SOL    HW118032   1.777   1.099   5.543  0.5661 -1.2140 -2.2651
 5762SOL    HW218033   1.901   1.170   5.592 -0.9561  0.3604 -0.5499
 5763SOL     OW18034   1.363   0.783   2.165  0.0735  0.2948  0.3450
 5763SOL    HW118035   1.317   0.703   2.188  1.5886 -0.1652  2.0503
 5763SOL    HW218036   1.443   0.754   2.121 -0.8626  1.0477 -1.9965
 5764SOL     OW18037   0.540   1.862   3.751 -0.2406  0.3050 -0.2310
 5764SOL    HW118038   0.600   1.836   3.822 -0.0889  0.2633 -0.3744
 5764SOL    HW218039   0.538   1.786   3.693 -2.1200 -0.5614  0.8652
 5765SOL     OW18040   2.944   0.403   4.662 -0.3009  0.2308 -0.4413
 5765SOL    HW118041   2.935   0.493   4.629  0.2212  0.4707  0.0475
 5765SOL    HW218042   2.895   0.403   4.744  0.9048  0.4801  0.2936
 5766SOL     OW18043   5.438   4.814   1.317  0.0824 -0.1476  0.1268
 5766SOL    HW118044   5.441   4.892   1.261  0.8952 -1.5064 -1.8446
 5766SOL    HW218045   5.345   4.792   1.322 -0.0456  0.2591 -0.3499
 5767SOL     OW18046   3.290   5.402   3.475  0.0023  0.3496 -0.0077
 5767SOL    HW118047   3.334   5.467   3.530 -0.2367 -0.0938  0.7212
 5767SOL    HW218048   3.360   5.365   3.421  0.1667  1.0971 -0.3260
 5768SOL     OW18049   3.910   5.652   5.456 -0.4449  0.0224  0.0913
 5768SOL    HW118050   3.940   5.586   5.519 -0.7047 -0.4365 -0.2610
 5768SOL    HW218051   3.991   5.685   5.416 -0.2504  0.6202  0.9560
 5769SOL     OW18052   5.929   5.924   4.735  0.0934 -0.1405  0.6749
 5769SOL    HW118053   5.870   5.966   4.797 -0.0898  0.8203 -0.1308
 5769SOL    HW218054   5.872   5.882   4.672  0.2709 -2.0299  1.7132
 5770SOL     OW18055   4.060   2.601   3.447  0.0679  0.3433  0.0117
 5770SOL    HW118056   4.079   2.693   3.427  1.3187  0.0771 -0.1431
 5770SOL    HW218057   4.145   2.558   3.442 -0.2105 -0.5133  1.7908
 5771SOL     OW18058   3.288   4.499   5.408 -0.3782  0.5207 -0.1459
 5771SOL    HW118059   3.262   4.482   5.499  0.4020 -1.3189 -0.2199
 5771SOL    HW218060   3.207   4.494   5.358 -0.5952 -0.0812  0.2547
 5772SOL     OW18061   5.133   0.115   1.179  0.0014  0.2276 -0.5627
 5772SOL    HW118062   5.138   0.171   1.102  0.5371  0.3915 -0.4126
 5772SOL    HW218063   5.140   0.026   1.144 -1.5168  0.2001 -0.8653
 5773SOL     OW18064   6.011   3.345   1.317  0.3049  0.0406 -0.2073
 5773SOL    HW118065   5.936   3.402   1.333  0.7480  1.5346 -2.8869
 5773SOL    HW218066   6.067   3.358   1.393 -1.5980 -0.2631  1.3187
 5774SOL     OW18067   1.359   5.808   4.798  0.2418  0.1341  0.0420
 5774SOL    HW118068   1.443   5.787   4.758 -0.2362 -0.9960 -0.3993
 5774SOL    HW218069   1.317   5.867   4.735  1.1498  1.6785  0.8021
 5775SOL     OW18070   0.411   0.231   3.828  0.6313 -0.1415 -0.3329
 5775SOL    HW118071   0.376   0.227   3.917 -0.1548 -2.0156 -0.6857
 5775SOL    HW218072   0.505   0.244   3.841  0.1581  3.7351  0.6351
 5776SOL     OW18073   3.798   4.480   3.496 -0.1033 -0.2358  0.3568
 5776SOL    HW118074   3.881   4.529   3.498  0.1545 -0.6874  1.6949
 5776SOL    HW218075   3.815   4.403   3.549 -1.5418 -0.0939  1.0526
 5777SOL     OW18076   4.905   5.642   2.151  0.2178 -0.3899  0.2140
 5777SOL    HW118077   4.996   5.660   2.174  0.2083  0.1924 -0.1673
 5777SOL    HW218078   4.910   5.572   2.086  0.4163 -0.2135  0.0345
 5778SOL     OW18079   2.157   2.952   0.946 -0.0467 -0.3036  0.1703
 5778SOL    HW118080   2.185   2.969   1.036  0.2721  0.9373 -0.1379
 5778SOL    HW218081   2.175   3.034   0.900 -0.1518 -0.9382 -1.0398
 5779SOL     OW18082   4.935   0.568   3.196  0.1662  0.2760 -0.7670
 5779SOL    HW118083   4.962   0.648   3.151 -0.4780 -0.5939 -2.8826
 5779SOL    HW218084   4.887   0.519   3.129  0.1161 -1.6583  0.6008
 5780SOL     OW18085   3.671   5.148   4.874 -0.1125 -0.1018  0.3808
 5780SOL    HW118086   3.733   5.184   4.938  1.2686  0.4587 -1.1846
 5780SOL    HW218087   3.675   5.053   4.888  0.5736 -0.0253  0.7924
 5781SOL     OW18088   4.718   6.193   3.850 -0.0035  0.0668 -0.0305
 5781SOL    HW118089   4.790   6.255   3.849  0.4239 -0.4210 -0.1691
 5781SOL    HW218090   4.639   6.246   3.841  0.2162  0.7612  1.7273
 5782SOL     OW18091   4.981   1.217   4.223 -0.3196  0.2723 -0.3301
 5782SOL    HW118092   4.945   1.149   4.281 -1.3125 -1.9536 -3.3059
 5782SOL    HW218093   4.904   1.269   4.198  0.1191  1.2609  0.2987
 5783SOL     OW18094   5.010   2.047   3.028 -0.2875 -0.1439  0.3823
 5783SOL    HW118095   4.967   2.130   3.011  1.1435  0.3719 -0.8931
 5783SOL    HW218096   5.103   2.069   3.039 -0.1817 -1.3069  2.3071
 5784SOL     OW18097   4.220   5.894   3.201  0.2474  0.6120 -0.0468
 5784SOL    HW118098   4.197   5.986   3.217  1.1617  0.7199  0.7251
 5784SOL    HW218099   4.136   5.848   3.206 -0.0939  1.2709  0.5308
 5785SOL     OW18100   1.329   5.947   0.649 -0.0331 -0.0040  0.2031
 5785SOL    HW118101   1.360   5.990   0.569 -1.9062  0.2954 -0.4186
 5785SOL    HW218102   1.245   5.990   0.668 -0.4035 -1.1903  1.3949
 5786SOL     OW18103   2.522   2.571   2.092  0.1925  0.0182  0.6234
 5786SOL    HW118104   2.539   2.657   2.056  0.1487 -0.7477 -1.3835
 5786SOL    HW218105   2.605   2.543   2.131  0.0206  1.2013  1.9005
 5787SOL     OW18106   4.248   2.056   6.138  0.6667 -0.1121  0.2321
 5787SOL    HW118107   4.200   2.108   6.074  1.3887 -1.0757 -1.1411
 5787SOL    HW218108   4.180   2.006   6.184  0.2125 -0.2314 -0.5542
 5788SOL     OW18109   1.742   4.022   4.604  0.1754 -0.1386  0.1874
 5788SOL    HW118110   1.783   3.961   4.542  1.2727  1.2661 -0.5274
 5788SOL    HW218111   1.791   4.009   4.685  1.3699  0.7436 -0.3566
 5789SOL     OW18112   0.840   0.740   5.627  0.2246 -0.4368 -0.0757
 5789SOL    HW118113   0.866   0.795   5.553  1.0178 -1.5790 -0.6884
 5789SOL    HW218114   0.744   0.741   5.625  0.2154  0.9978  0.0143
 5790SOL     OW18115   0.830   4.409   1.999  0.4931 -0.6401 -0.2843
 5790SOL    HW118116   0.743   4.377   2.021 -1.1575  0.8292 -3.9160
 5790SOL    HW218117   0.851   4.471   2.069 -1.4771 -0.8339  0.5392
 5791SOL     OW18118   2.191   1.759   3.660  0.2374  0.1943  0.3175
 5791SOL    HW118119   2.272   1.807   3.648  2.0616 -2.4952  1.0334
 5791SOL    HW218120   2.193   1.691   3.592 -0.8387 -0.6490  1.0850
 5792SOL     OW18121   1.834   5.275   4.128 -0.9769 -0.1871  0.1961
 5792SOL    HW118122   1.808   5.330   4.054  1.3531  1.4305  0.4707
 5792SOL    HW218123   1.845   5.188   4.091 -0.9913  0.3494 -1.1090
 5793SOL     OW18124   4.651   5.704   4.729  0.3688 -0.6274 -0.2373
 5793SOL    HW118125   4.677   5.631   4.784  1.8561  0.2206  0.2296
 5793SOL    HW218126   4.703   5.778   4.761 -0.8064  0.5467 -0.9450
 5794SOL     OW18127   0.867   1.923   2.802  0.0076  0.0906 -0.1977
 5794SOL    HW118128   0.782   1.961   2.827 -0.9639 -1.1878 -1.4013
 5794SOL    HW218129   0.874   1.940   2.708  0.8925 -0.2133 -0.1921
 5795SOL     OW18130   3.073   5.026   2.253  0.6659  0.6017  0.3270
 5795SOL    HW118131   3.060   5.099   2.192 -0.9770  0.3086  0.2972
 5795SOL    HW218132   3.063   5.065   2.340 -0.2024  0.4298  0.3113
 5796SOL     OW18133   2.612   2.268   1.470 -0.0109  0.0473 -0.3293
 5796SOL    HW118134   2.557   2.250   1.546  1.2970  0.3487  0.7175
 5796SOL    HW218135   2.613   2.364   1.463  0.5768  0.0516 -0.1966
 5797SOL     OW18136   1.551   5.554   1.452  0.3076  0.8171 -0.1135
 5797SOL    HW118137   1.602   5.499   1.511 -1.1675 -0.5536 -0.0429
 5797SOL    HW218138   1.488   5.598   1.508 -1.1367 -0.5337 -0.6272
 5798SOL     OW18139   3.892   3.056   2.854 -0.0636 -0.3701  0.0795
 5798SOL    HW118140   3.960   3.072   2.789 -0.7204  1.0875 -0.2985
 5798SOL    HW218141   3.939   3.038   2.935  0.7625 -1.1180 -0.5520
 5799SOL     OW18142   5.142   4.433   3.214  0.2664  0.5340  0.3687
 5799SOL    HW118143   5.099   4.513   3.184 -1.1154 -0.2055  0.2558
 5799SOL    HW218144   5.069   4.374   3.237  1.1470 -1.3554 -1.3399
 5800SOL     OW18145   1.296   0.323   2.454  0.1419  0.4265  0.1513
 5800SOL    HW118146   1.305   0.417   2.471 -1.2452  0.8310 -1.0962
 5800SOL    HW218147   1.324   0.312   2.364 -1.6665  0.0376 -0.4080
 5801SOL     OW18148   6.215   3.086   2.512 -0.0981  0.0912 -0.5818
 5801SOL    HW118149   6.151   3.080   2.582  0.3437 -1.0928 -0.2458
 5801SOL    HW218150   6.300   3.085   2.557  0.1771  0.0744 -1.0894
 5802SOL     OW18151   2.870   5.320   3.553  0.6054  0.0346  0.0995
 5802SOL    HW118152   2.807   5.262   3.509  1.0136  1.1482 -2.0995
 5802SOL    HW218153   2.823   5.403   3.563  0.8540  0.0860  0.8813
 5803SOL     OW18154   3.949   1.812   5.172 -0.7005  0.2637  0.0993
 5803SOL    HW118155   4.043   1.809   5.191 -0.8243 -0.7371  0.5834
 5803SOL    HW218156   3.920   1.721   5.177 -1.6919  0.5577 -0.0802
 5804SOL     OW18157   4.870   3.716   0.844 -0.1667 -0.1062 -0.2200
 5804SOL    HW118158   4.834   3.651   0.904  0.7593  1.3406  1.9909
 5804SOL    HW218159   4.964   3.717   0.863  0.0976  0.6739 -1.4505
 5805SOL     OW18160   5.584   6.168   0.606 -0.2735  0.3031  0.5317
 5805SOL    HW118161   5.585   6.074   0.625 -0.2412  0.1825 -0.0570
 5805SOL    HW218162   5.560   6.173   0.514  1.2973  0.7998  0.1313
 5806SOL     OW18163   6.196   0.254   3.801  0.1139  0.0329  0.6858
 5806SOL    HW118164   6.131   0.249   3.731 -1.3546  1.8489  1.8323
 5806SOL    HW218165   6.247   0.173   3.791 -1.1456 -0.6016 -1.3672
 5807SOL     OW18166   4.390   2.934   4.064  0.0067 -0.7382 -0.3240
 5807SOL    HW118167   4.473   2.958   4.105  0.4224 -0.1449 -1.4724
 5807SOL    HW218168   4.328   2.933   4.137  1.0439 -1.4111  0.5945
 5808SOL     OW18169   0.347   1.994   3.233 -0.0799 -0.0747 -0.1119
 5808SOL    HW118170   0.410   2.022   3.167 -0.9563 -1.1458 -1.4554
 5808SOL    HW218171   0.293   1.929   3.189 -0.9237 -0.5832  1.5705
 5809SOL     OW18172   5.695   3.937   1.777 -0.3323 -0.1268 -0.1338
 5809SOL    HW118173   5.604   3.959   1.796  0.4172  2.8885  0.6490
 5809SOL    HW218174   5.720   3.997   1.707  1.4767  0.3571  0.8538
 5810SOL     OW18175   4.484   2.230   2.487  0.0706  0.3533  0.2512
 5810SOL    HW118176   4.393   2.208   2.468 -0.5879  1.5261  1.8406
 5810SOL    HW218177   4.488   2.325   2.476  0.7210  0.4980  1.5806
 5811SOL     OW18178   1.414   3.313   1.770 -0.4849  0.1864 -0.3417
 5811SOL    HW118179   1.447   3.261   1.696 -2.7166  0.9191 -1.9551
 5811SOL    HW218180   1.454   3.399   1.758  0.0827 -0.0182  0.0254
 5812SOL     OW18181   4.622   4.641   2.274  0.7756 -0.6287  0.0541
 5812SOL    HW118182   4.697   4.625   2.216 -0.3073 -0.1726 -1.5298
 5812SOL    HW218183   4.651   4.711   2.332  1.4658 -0.2055 -0.7723
 5813SOL     OW18184   2.037   0.199   1.735  0.1303 -0.6669 -0.5709
 5813SOL    HW118185   2.120   0.242   1.754 -0.9425  1.1257  0.3574
 5813SOL    HW218186   2.054   0.146   1.657  1.8139  0.6616 -1.1589
 5814SOL     OW18187   3.768   5.412   5.858  0.1321 -0.0543 -0.1379
 5814SOL    HW118188   3.711   5.438   5.931  0.2242  0.3317 -0.2032
 5814SOL    HW218189   3.789   5.320   5.876 -0.2655 -0.1095  0.0469
 5815SOL     OW18190   5.542   0.786   3.376 -0.1038  0.5683 -0.8827
 5815SOL    HW118191   5.530   0.869   3.423 -0.8422  0.4633 -0.8799
 5815SOL    HW218192   5.514   0.719   3.438  1.4092  0.2228 -0.5226
 5816SOL     OW18193   5.534   4.640   5.520  0.0510  0.1547  0.2168
 5816SOL    HW118194   5.497   4.716   5.476 -0.3401 -0.7536 -1.0739
 5816SOL    HW218195   5.628   4.644   5.502 -0.0842 -0.1184 -0.5768
 5817SOL     OW18196   0.768   1.327   5.394  0.7226 -0.8528  0.4704
 5817SOL    HW118197   0.766   1.318   5.299  2.2012 -0.7392  0.4091
 5817SOL    HW218198   0.678   1.308   5.422 -0.1805  0.8389 -1.0793
 5818SOL     OW18199   2.202   5.546   0.486  0.4068  0.0441  0.4039
 5818SOL    HW118200   2.268   5.478   0.475  1.2674  0.9379 -0.1183
 5818SOL    HW218201   2.131   5.503   0.535  0.3314 -1.5774 -1.0403
 5819SOL     OW18202   5.238   5.056   1.362  0.1703 -0.0245 -0.1011
 5819SOL    HW118203   5.190   5.135   1.338  0.7246  0.1439 -0.6873
 5819SOL    HW218204   5.316   5.087   1.407  0.9663 -0.1527 -1.3301
 5820SOL     OW18205   5.323   3.476   2.853  0.1557 -0.1881  0.6940
 5820SOL    HW118206   5.238   3.431   2.851  0.2874 -0.4415 -1.1764
 5820SOL    HW218207   5.304   3.560   2.894 -0.8849 -0.4691  0.8295
 5821SOL     OW18208   3.916   1.606   4.433 -0.0296 -0.1096  0.2833
 5821SOL    HW118209   3.928   1.671   4.363  1.4359  1.4985  1.9204
 5821SOL    HW218210   3.915   1.658   4.513 -0.3773 -2.0235  1.5744
 5822SOL     OW18211   4.631   2.928   2.278  0.4054 -0.1410  0.9534
 5822SOL    HW118212   4.651   2.952   2.187 -1.0198 -1.3281  0.2704
 5822SOL    HW218213   4.687   2.985   2.331  2.4232 -0.4630 -0.6822
 5823SOL     OW18214   1.952   3.541   3.734  0.1586  0.1019  0.3429
 5823SOL    HW118215   1.987   3.627   3.712 -0.2265  0.8099  2.2574
 5823SOL    HW218216   2.014   3.506   3.799 -0.1959 -0.6468  0.2857
 5824SOL     OW18217   0.412   4.130   3.405 -0.1928  0.5568 -0.0093
 5824SOL    HW118218   0.334   4.138   3.350 -0.9104 -0.1910  0.8736
 5824SOL    HW218219   0.394   4.186   3.481 -1.6757 -2.5310  2.1511
 5825SOL     OW18220   4.828   3.140   1.690  0.3393  0.2068  0.3130
 5825SOL    HW118221   4.913   3.181   1.676 -0.7513  1.8726 -2.2332
 5825SOL    HW218222   4.848   3.047   1.701  2.5216  0.6765  0.9308
 5826SOL     OW18223   4.341   0.443   3.937 -0.3405  0.0148 -0.3181
 5826SOL    HW118224   4.289   0.406   3.866 -0.8183 -0.8071  0.4419
 5826SOL    HW218225   4.292   0.520   3.965 -1.1142 -0.6902  0.3160
 5827SOL     OW18226   5.530   0.213   3.364  0.0353 -0.0025 -0.6943
 5827SOL    HW118227   5.540   0.161   3.444 -0.1194  0.6456 -0.2411
 5827SOL    HW218228   5.438   0.204   3.341  0.0808 -0.1937 -0.8003
 5828SOL     OW18229   1.265   1.363   2.758  0.0770 -0.2053 -0.2615
 5828SOL    HW118230   1.303   1.341   2.843 -0.7091  0.8643  0.3922
 5828SOL    HW218231   1.170   1.351   2.770  0.0324 -1.1620 -1.3473
 5829SOL     OW18232   1.615   0.775   4.561 -0.5590 -0.0610 -0.1281
 5829SOL    HW118233   1.577   0.735   4.639 -0.1509 -0.7569 -0.2782
 5829SOL    HW218234   1.621   0.703   4.498  2.1366 -0.3141  0.2943
 5830SOL     OW18235   2.097   2.371   4.502  0.2995 -0.3013  0.2148
 5830SOL    HW118236   2.186   2.399   4.480 -0.2198  0.1774 -1.4839
 5830SOL    HW218237   2.073   2.314   4.429 -0.2389 -1.7104  1.4471
 5831SOL     OW18238   3.293   3.369   1.380  0.0942  0.3412 -0.5503
 5831SOL    HW118239   3.273   3.439   1.443  3.4293  0.0525  1.0161
 5831SOL    HW218240   3.230   3.300   1.401  0.5417  0.6004  1.9436
 5832SOL     OW18241   5.082   6.093   4.007 -0.7199 -0.3152  0.0822
 5832SOL    HW118242   5.048   6.182   4.004 -1.5471 -0.6304 -0.4559
 5832SOL    HW218243   5.009   6.041   4.042 -0.9211 -1.0602 -1.3623
 5833SOL     OW18244   1.595   2.051   5.030 -0.3923 -0.0562 -0.6107
 5833SOL    HW118245   1.616   2.070   5.121  1.2784 -0.4021 -0.8927
 5833SOL    HW218246   1.620   2.129   4.982  2.0804 -1.1174 -1.1792
 5834SOL     OW18247   4.857   0.834   5.174 -0.7962  0.0601  0.1176
 5834SOL    HW118248   4.821   0.869   5.255  1.4324  2.0925  0.3599
 5834SOL    HW218249   4.862   0.909   5.115  1.6074 -0.3425 -0.3225
 5835SOL     OW18250   5.070   0.141   2.081 -0.1750  0.1254  0.1717
 5835SOL    HW118251   5.061   0.091   2.162 -0.4292 -1.0292 -0.5411
 5835SOL    HW218252   5.025   0.088   2.015 -0.3310  1.2396 -0.6496
 5836SOL     OW18253   0.711   3.863   3.375 -0.0813 -0.6283  0.2640
 5836SOL    HW118254   0.731   3.957   3.375  0.4510 -0.7300 -0.9785
 5836SOL    HW218255   0.796   3.821   3.387 -0.1964 -0.9642 -0.0908
 5837SOL     OW18256   4.230   1.230   3.013 -0.1245  0.4026 -0.5383
 5837SOL    HW118257   4.258   1.139   3.019 -1.9995 -0.1533  1.2385
 5837SOL    HW218258   4.136   1.225   2.995 -0.4855  1.9282  0.6822
 5838SOL     OW18259   4.262   2.744   3.638  0.6143 -0.0717 -0.1213
 5838SOL    HW118260   4.236   2.780   3.553 -2.1651 -1.7369 -0.1019
 5838SOL    HW218261   4.279   2.651   3.621  1.3914 -0.1353  0.9178
 5839SOL     OW18262   1.215   0.862   5.885 -0.0687  0.2552  0.0638
 5839SOL    HW118263   1.227   0.787   5.943  1.9016 -0.2467 -0.9200
 5839SOL    HW218264   1.304   0.886   5.858 -0.8235  1.5250 -1.4388
 5840SOL     OW18265   6.032   2.019   2.057  0.1623 -0.0841  0.5943
 5840SOL    HW118266   6.121   1.988   2.040  0.1474 -0.5033  1.2447
 5840SOL    HW218267   6.038   2.065   2.141 -0.3428 -0.6192  0.9324
 5841SOL     OW18268   3.365   1.419   0.859  0.6597  0.0094 -0.2897
 5841SOL    HW118269   3.364   1.453   0.770  1.2795 -0.8558 -0.6371
 5841SOL    HW218270   3.313   1.338   0.855  1.3151 -0.4376 -0.0489
 5842SOL     OW18271   4.723   5.327   0.885 -0.4870  0.4937  0.0245
 5842SOL    HW118272   4.809   5.347   0.924 -0.9222  0.6956  0.9021
 5842SOL    HW218273   4.743   5.271   0.811  0.4492  0.9111 -0.0524
 5843SOL     OW18274   5.520   0.368   0.704  0.5967  0.0656 -0.6679
 5843SOL    HW118275   5.571   0.315   0.644 -1.1253 -2.5403  0.0335
 5843SOL    HW218276   5.566   0.362   0.788  0.4040 -0.3128 -0.5902
 5844SOL     OW18277   2.478   0.687   2.125 -0.1210  0.4732  0.2119
 5844SOL    HW118278   2.459   0.595   2.107 -0.5278  0.9603 -2.1938
 5844SOL    HW218279   2.521   0.687   2.210 -1.3020 -1.7888  0.8728
 5845SOL     OW18280   4.927   4.532   5.887 -0.1666  0.7244 -0.3230
 5845SOL    HW118281   4.836   4.540   5.912 -0.5277  1.3019 -1.7140
 5845SOL    HW218282   4.976   4.547   5.968 -1.2975 -0.9622  0.7493
 5846SOL     OW18283   1.798   2.354   0.865  0.0527  0.0862  0.8589
 5846SOL    HW118284   1.723   2.396   0.907 -0.9715 -2.2467  1.5073
 5846SOL    HW218285   1.815   2.408   0.787 -2.1886  0.7833  0.7886
 5847SOL     OW18286   2.880   4.159   5.267  0.4096  0.0577  0.3626
 5847SOL    HW118287   2.879   4.219   5.341 -2.8620 -1.1112  1.4577
 5847SOL    HW218288   2.883   4.072   5.306 -0.8773 -0.5767 -0.8483
 5848SOL     OW18289   1.002   0.874   1.981  0.0731  0.1850  0.4336
 5848SOL    HW118290   1.071   0.940   1.983  0.4599 -0.2112  0.1582
 5848SOL    HW218291   1.014   0.824   2.061 -0.2225  0.4418  0.6437
 5849SOL     OW18292   0.460   3.464   1.026  0.0570 -0.4650 -0.4689
 5849SOL    HW118293   0.554   3.469   1.041 -0.0231 -0.0295 -0.0866
 5849SOL    HW218294   0.427   3.413   1.101 -0.1832  0.6073  0.1745
 5850SOL     OW18295   4.436   2.085   0.960  0.2395  0.1043 -0.0752
 5850SOL    HW118296   4.466   2.095   1.050 -1.0686 -0.7988  0.4940
 5850SOL    HW218297   4.340   2.084   0.966  0.1258  0.2083 -1.4940
 5851SOL     OW18298   1.368   0.033   0.535 -0.1684 -0.4761  0.1512
 5851SOL    HW118299   1.343   0.096   0.603  1.0946  0.4458 -0.2007
 5851SOL    HW218300   1.307   0.051   0.463  1.2894  1.6530 -0.6508
 5852SOL     OW18301   2.220   1.838   3.292  0.0464 -0.2174 -0.1978
 5852SOL    HW118302   2.274   1.814   3.367 -0.5284 -1.2108 -0.0812
 5852SOL    HW218303   2.222   1.933   3.290  1.3286 -0.2281  0.1414
 5853SOL     OW18304   4.058   3.207   4.015  0.0894 -0.7634 -0.1611
 5853SOL    HW118305   4.032   3.299   4.012 -1.8383 -1.2946 -1.0961
 5853SOL    HW218306   3.987   3.163   4.062  1.3662 -1.6987  0.9882
 5854SOL     OW18307   5.563   2.207   5.878 -0.0518  0.0560  0.2844
 5854SOL    HW118308   5.524   2.177   5.960  0.1457 -1.7227 -0.2180
 5854SOL    HW218309   5.625   2.275   5.904  0.9968 -1.3816  1.7953
 5855SOL     OW18310   5.034   0.767   4.201 -0.4982 -0.6071  0.0785
 5855SOL    HW118311   5.034   0.862   4.191 -0.0936 -0.3573  1.9596
 5855SOL    HW218312   5.096   0.736   4.136 -0.1204  0.4945 -0.1120
 5856SOL     OW18313   3.598   0.700   2.859 -0.3686  0.2686  0.5231
 5856SOL    HW118314   3.679   0.734   2.822 -0.6598  0.8261  0.3711
 5856SOL    HW218315   3.616   0.608   2.878 -0.2432 -0.0716 -1.1058
 5857SOL     OW18316   4.501   1.514   0.136  0.0613  0.3982  0.0657
 5857SOL    HW118317   4.476   1.505   0.044  0.6109 -2.5030  0.1109
 5857SOL    HW218318   4.595   1.498   0.137 -0.2179 -1.4817  1.2910
 5858SOL     OW18319   5.562   4.070   5.367 -0.5472  0.2189  0.4077
 5858SOL    HW118320   5.596   4.146   5.414 -3.6274  1.2163  1.2246
 5858SOL    HW218321   5.468   4.087   5.358 -0.9767 -2.4889 -1.3569
 5859SOL     OW18322   3.874   1.606   0.399  0.2206  0.3018  0.4824
 5859SOL    HW118323   3.925   1.592   0.479  1.2620 -1.2988 -0.4107
 5859SOL    HW218324   3.865   1.701   0.393  0.5032  0.4700  2.2588
 5860SOL     OW18325   2.837   5.613   3.261 -0.4504  0.0306  0.2106
 5860SOL    HW118326   2.834   5.518   3.270  2.1058 -0.4264 -2.2788
 5860SOL    HW218327   2.761   5.635   3.207 -0.6037 -0.6969  0.1236
 5861SOL     OW18328   5.020   1.206   6.242  0.0234  0.6815 -0.0211
 5861SOL    HW118329   5.102   1.160   6.224 -0.1851  0.5325 -0.6213
 5861SOL    HW218330   4.999   1.184   6.333 -0.3733 -0.9005 -0.4588
 5862SOL     OW18331   2.874   5.444   1.997  0.7548 -0.0995 -0.0640
 5862SOL    HW118332   2.786   5.411   1.984  0.9825 -0.7840  0.0951
 5862SOL    HW218333   2.862   5.531   2.035  0.1515 -0.0788 -0.2950
 5863SOL     OW18334   5.364   2.348   3.497 -0.4517  0.0214 -0.1158
 5863SOL    HW118335   5.435   2.286   3.479  0.5211  0.9712  0.3490
 5863SOL    HW218336   5.292   2.319   3.440 -0.5117 -2.3229  1.0566
 5864SOL     OW18337   6.138   4.181   0.887 -0.1674 -0.1843  0.4293
 5864SOL    HW118338   6.068   4.130   0.847 -0.7394  0.6799  0.3003
 5864SOL    HW218339   6.140   4.153   0.979 -1.4828  0.6228  0.7216
 5865SOL     OW18340   2.413   2.805   4.257  0.6095  0.9116 -0.2857
 5865SOL    HW118341   2.472   2.810   4.332 -0.2939  0.4075  0.4911
 5865SOL    HW218342   2.327   2.789   4.295  0.0262  1.2326 -1.4087
 5866SOL     OW18343   4.659   5.341   1.474 -0.7511 -0.2634 -0.1014
 5866SOL    HW118344   4.615   5.332   1.389 -2.0715 -1.3512  0.6732
 5866SOL    HW218345   4.689   5.432   1.475  0.9552 -0.7060 -2.4901
 5867SOL     OW18346   1.531   4.760   3.319 -0.6422 -0.4520  0.2141
 5867SOL    HW118347   1.520   4.842   3.270 -1.1999 -0.0951  0.9083
 5867SOL    HW218348   1.624   4.758   3.342 -0.7645  0.4066  0.8661
 5868SOL     OW18349   4.907   6.059   5.602 -0.2032 -0.2118  0.2346
 5868SOL    HW118350   4.966   5.993   5.566  0.0014  1.0095 -1.8223
 5868SOL    HW218351   4.964   6.131   5.628 -0.5657 -0.1653  0.9163
 5869SOL     OW18352   3.448   2.781   2.303  0.1367 -0.1888 -0.2963
 5869SOL    HW118353   3.518   2.827   2.349  0.2374 -0.1825 -0.4578
 5869SOL    HW218354   3.476   2.690   2.301 -0.0048 -0.2383 -0.0873
 5870SOL     OW18355   3.105   2.504   4.030 -0.3497 -0.2843  0.1226
 5870SOL    HW118356   3.114   2.425   4.084  0.1725 -0.2123  0.1437
 5870SOL    HW218357   3.162   2.489   3.955 -0.1150  0.1396  0.2106
 5871SOL     OW18358   2.381   1.935   1.559  1.1558  0.0666  0.3691
 5871SOL    HW118359   2.406   2.013   1.608  0.0661 -0.0477  1.1388
 5871SOL    HW218360   2.461   1.909   1.513  1.2262  2.4419 -1.0506
 5872SOL     OW18361   2.949   1.654   2.182 -0.2476  0.4956  0.3644
 5872SOL    HW118362   2.861   1.661   2.147 -0.3743 -2.1693 -0.0077
 5872SOL    HW218363   2.951   1.718   2.254 -2.1865  1.1888 -0.1410
 5873SOL     OW18364   1.153   5.573   0.830  0.0206 -0.0326  0.0247
 5873SOL    HW118365   1.176   5.591   0.739 -0.8578  0.3759 -0.1271
 5873SOL    HW218366   1.237   5.561   0.874  0.4410 -1.4341 -1.0702
 5874SOL     OW18367   0.021   2.127   6.005  0.2914  0.6493  0.1303
 5874SOL    HW118368   0.050   2.146   6.094 -0.3936  1.3956  0.2060
 5874SOL    HW218369  -0.004   2.212   5.969  1.4826  0.4876 -1.1243
 5875SOL     OW18370   3.086   1.852   2.989  0.2632 -0.2022 -0.0892
 5875SOL    HW118371   3.066   1.765   3.023 -0.9720  0.0205 -0.1925
 5875SOL    HW218372   3.152   1.837   2.922  2.5732 -0.6852  2.1566
 5876SOL     OW18373   5.045   2.917   1.960 -0.5649 -0.0037 -0.1985
 5876SOL    HW118374   5.092   2.986   2.007 -2.1530 -0.3404  2.0909
 5876SOL    HW218375   5.051   2.841   2.017 -2.9208 -0.3401 -0.2683
 5877SOL     OW18376   3.394   5.514   6.149 -0.6120 -0.4565  0.0598
 5877SOL    HW118377   3.467   5.501   6.088  0.4659  0.3121  1.1344
 5877SOL    HW218378   3.355   5.597   6.122 -0.4427 -0.3612  0.1043
 5878SOL     OW18379   6.300   0.005   6.156  0.2323  0.4991 -0.1248
 5878SOL    HW118380   6.268  -0.031   6.074 -3.1039 -0.1773  1.3134
 5878SOL    HW218381   6.283   0.099   6.149  0.7604  0.5714 -0.5071
 5879SOL     OW18382   3.660   1.498   5.571  0.0723 -0.4492 -0.1346
 5879SOL    HW118383   3.624   1.565   5.629  2.3096 -0.9094  1.9867
 5879SOL    HW218384   3.714   1.547   5.509  0.5135 -0.1288  0.4794
 5880SOL     OW18385   0.862   3.836   4.245  0.1252  0.1522 -0.0052
 5880SOL    HW118386   0.768   3.818   4.246  0.1749 -0.1335  0.8322
 5880SOL    HW218387   0.902   3.749   4.235  0.3132  0.1112  0.9796
 5881SOL     OW18388   1.526   1.523   5.136  0.6915 -0.5571 -0.2772
 5881SOL    HW118389   1.618   1.527   5.108  1.6040 -0.0903  2.5055
 5881SOL    HW218390   1.492   1.611   5.117  0.9162 -0.6241 -1.0053
 5882SOL     OW18391   4.081   3.333   2.439  0.0267 -0.0104 -0.2459
 5882SOL    HW118392   4.050   3.355   2.351 -0.2471 -2.0520 -0.7188
 5882SOL    HW218393   4.175   3.352   2.437 -0.1664  0.9847 -0.5939
 5883SOL     OW18394   2.609   2.890   2.502  0.9551  0.1963 -0.2069
 5883SOL    HW118395   2.650   2.903   2.417  1.8174 -2.5250 -0.2745
 5883SOL    HW218396   2.537   2.829   2.486 -0.6026  1.7068  0.6284
 5884SOL     OW18397   1.412   3.081   0.481  0.3509 -0.1205  0.1200
 5884SOL    HW118398   1.483   3.032   0.524  1.4425  0.4467 -0.9687
 5884SOL    HW218399   1.340   3.018   0.475  0.4248 -0.4560  2.0211
 5885SOL     OW18400   3.196   3.413   2.175  0.2604 -0.2464  0.4415
 5885SOL    HW118401   3.126   3.470   2.203 -1.5837 -0.3770 -3.2239
 5885SOL    HW218402   3.168   3.325   2.202 -0.3742 -0.1477  0.1256
 5886SOL     OW18403   1.120   4.164   3.501 -0.6098  0.3848 -0.0312
 5886SOL    HW118404   1.213   4.153   3.484 -0.6438 -0.6410  0.3750
 5886SOL    HW218405   1.093   4.081   3.541 -2.2140 -0.3198 -2.3896
 5887SOL     OW18406   1.210   0.397   5.269 -0.4241 -0.5439 -0.3365
 5887SOL    HW118407   1.191   0.303   5.260  1.6407 -1.1051  0.4688
 5887SOL    HW218408   1.287   0.411   5.215 -0.9827  0.8211 -0.8078
 5888SOL     OW18409   5.092   0.311   4.044  1.0158  0.5911  0.0076
 5888SOL    HW118410   5.118   0.378   4.106 -1.3184  0.0027  1.7826
 5888SOL    HW218411   5.118   0.229   4.085 -1.9199  0.0932  1.1241
 5889SOL     OW18412   0.585   1.717   4.823  0.4937  0.4960 -0.3283
 5889SOL    HW118413   0.654   1.784   4.820  1.5391 -0.4638  0.9402
 5889SOL    HW218414   0.632   1.634   4.812 -0.4301 -0.1909  0.6943
 5890SOL     OW18415   1.132   2.417   0.707 -0.4174 -0.4738 -0.0949
 5890SOL    HW118416   1.147   2.428   0.613 -0.3970 -0.0969 -0.0511
 5890SOL    HW218417   1.197   2.475   0.748 -0.7745 -0.2313  0.1370
 5891SOL     OW18418   4.429   5.493   0.535 -0.1899 -0.1067  0.1699
 5891SOL    HW118419   4.479   5.422   0.576  0.6045  0.2217 -0.2067
 5891SOL    HW218420   4.416   5.463   0.445 -1.6296 -0.6712  0.5323
 5892SOL     OW18421   4.125   2.765   4.979 -0.4270 -0.4124 -0.9377
 5892SOL    HW118422   4.143   2.846   4.931  1.4238 -1.6039 -2.3990
 5892SOL    HW218423   4.180   2.699   4.936  0.8674 -1.7393  2.4313
 5893SOL     OW18424   0.853   5.778   1.346 -0.2944 -0.0550 -0.4189
 5893SOL    HW118425   0.898   5.820   1.419  1.2829 -1.7717 -0.3316
 5893SOL    HW218426   0.896   5.813   1.268 -1.0294  0.7146 -0.4975
 5894SOL     OW18427   3.291   1.819   4.248  0.4069  0.6140  0.6513
 5894SOL    HW118428   3.302   1.802   4.341 -0.6077  1.1917  0.8921
 5894SOL    HW218429   3.353   1.760   4.205  0.5475  0.0034  1.6627
 5895SOL     OW18430   3.114   5.328   3.259  0.2534 -0.5421 -0.4497
 5895SOL    HW118431   3.195   5.369   3.228  0.0747 -0.0985 -0.3424
 5895SOL    HW218432   3.107   5.356   3.350 -2.4179  3.3964 -1.6358
 5896SOL     OW18433   5.479   6.094   5.079 -0.0236 -0.2983  0.1082
 5896SOL    HW118434   5.551   6.074   5.019 -2.4102  0.3585 -3.2815
 5896SOL    HW218435   5.417   6.145   5.026 -3.2599 -1.2928  2.5751
 5897SOL     OW18436   1.752   2.754   3.628 -0.4934  0.3906  0.2423
 5897SOL    HW118437   1.719   2.709   3.706  0.4043  0.9827  0.9806
 5897SOL    HW218438   1.793   2.834   3.662  0.6646  0.2444 -0.7457
 5898SOL     OW18439   0.397   3.766   1.768  0.2103 -0.0304 -0.5859
 5898SOL    HW118440   0.327   3.725   1.820  1.3279  0.7729  1.7317
 5898SOL    HW218441   0.351   3.817   1.702 -1.3178 -0.9458 -0.2958
 5899SOL     OW18442   2.351   2.962   5.463 -0.0996  0.2324 -0.8139
 5899SOL    HW118443   2.382   2.906   5.535 -1.3536 -0.5529 -0.8521
 5899SOL    HW218444   2.368   2.910   5.384 -1.2803 -0.1196 -0.8486
 5900SOL     OW18445   3.577   0.817   0.481 -0.1661  0.2605 -0.2449
 5900SOL    HW118446   3.510   0.751   0.466  2.6926 -2.9322 -0.3445
 5900SOL    HW218447   3.572   0.836   0.575 -1.2788  0.2183 -0.2905
 5901SOL     OW18448   2.516   1.082   3.759  0.1612  0.4117  0.7051
 5901SOL    HW118449   2.562   1.153   3.805  1.5716  0.8251 -1.2592
 5901SOL    HW218450   2.576   1.008   3.763  0.3947  0.5148 -0.6038
 5902SOL     OW18451   5.916   2.276   5.092 -0.3107 -0.4228  0.2074
 5902SOL    HW118452   5.958   2.272   5.178  1.4415  0.4632 -0.5402
 5902SOL    HW218453   5.973   2.225   5.035  1.1142  2.6292 -1.3134
 5903SOL     OW18454   4.275   0.584   4.292 -0.2206 -0.6915 -0.4549
 5903SOL    HW118455   4.348   0.644   4.280 -1.3540  0.6159 -1.1973
 5903SOL    HW218456   4.197   0.638   4.276 -1.3061 -2.3040 -0.8784
 5904SOL     OW18457   3.653   3.168   2.942  0.2329  0.2395  0.4421
 5904SOL    HW118458   3.685   3.088   2.900  0.0994 -0.0641  0.9072
 5904SOL    HW218459   3.730   3.207   2.982  0.1384 -0.1672  1.0356
 5905SOL     OW18460   6.221   3.965   5.308 -0.2073 -0.8545 -0.6558
 5905SOL    HW118461   6.272   3.887   5.286 -0.3650 -1.8045  1.9509
 5905SOL    HW218462   6.242   3.982   5.400 -1.5233  1.1527 -0.6625
 5906SOL     OW18463   5.962   4.856   6.279  0.0044 -0.0935  0.1181
 5906SOL    HW118464   6.056   4.838   6.285  0.2776  1.0565 -0.3673
 5906SOL    HW218465   5.957   4.950   6.260 -1.2195 -0.3101 -0.7492
 5907SOL     OW18466   5.825   3.059   3.624  0.2728 -0.4449  0.2143
 5907SOL    HW118467   5.870   2.975   3.634 -1.0630 -1.6373 -2.4980
 5907SOL    HW218468   5.804   3.086   3.713  0.8126 -2.9913  1.2118
 5908SOL     OW18469   4.264   4.278   1.817 -0.2610 -0.0834  0.3832
 5908SOL    HW118470   4.290   4.333   1.743 -2.4885  0.7298  0.1315
 5908SOL    HW218471   4.301   4.192   1.798  2.0501  0.9174  0.0485
 5909SOL     OW18472   0.489   6.257   3.459 -0.6752  0.2290 -0.0440
 5909SOL    HW118473   0.534   6.341   3.469 -0.3547  0.1454 -0.7208
 5909SOL    HW218474   0.493   6.239   3.366 -1.2003 -0.2940  0.0305
 5910SOL     OW18475   2.966   2.733   3.468  0.4353  0.3653  0.6126
 5910SOL    HW118476   2.873   2.719   3.447  0.6237  1.7839 -1.4623
 5910SOL    HW218477   2.967   2.815   3.518  0.6082  0.6002  0.2260
 5911SOL     OW18478   1.964   0.939   3.793  0.3746  0.8535 -0.0563
 5911SOL    HW118479   1.934   1.029   3.779  4.5780  2.2020 -1.8199
 5911SOL    HW218480   1.941   0.894   3.712  1.2740  1.3563 -0.6139
 5912SOL     OW18481   3.805   1.569   4.079 -0.4392 -0.5900 -0.1194
 5912SOL    HW118482   3.816   1.643   4.138  1.6899 -1.2889  0.4620
 5912SOL    HW218483   3.750   1.602   4.008  0.0052  1.3708  0.4090
 5913SOL     OW18484   4.717   5.143   4.709 -0.0238  0.2459 -0.1393
 5913SOL    HW118485   4.788   5.189   4.754 -0.1768  1.5986 -1.2248
 5913SOL    HW218486   4.652   5.212   4.690 -0.6531 -0.5749 -1.0462
 5914SOL     OW18487   4.328   5.001   6.182  0.2614  0.3372  0.7510
 5914SOL    HW118488   4.358   4.969   6.267  2.7194 -0.1720 -0.2256
 5914SOL    HW218489   4.312   4.922   6.130 -1.7168  0.6292  0.8220
 5915SOL     OW18490   4.674   1.540   4.430  0.1279  0.0587  0.0800
 5915SOL    HW118491   4.600   1.485   4.404  0.1304 -0.2403  0.6859
 5915SOL    HW218492   4.642   1.591   4.504  0.7593 -0.6645  0.8759
 5916SOL     OW18493   0.774   2.967   3.609  0.4319 -0.2024 -0.2771
 5916SOL    HW118494   0.801   3.058   3.621  0.4438 -0.3315  0.7625
 5916SOL    HW218495   0.849   2.926   3.564  0.8143  0.0846  0.0903
 5917SOL     OW18496   5.591   5.472   0.310  0.2667 -0.3161 -0.2076
 5917SOL    HW118497   5.519   5.414   0.331  0.1922 -0.3810 -0.6327
 5917SOL    HW218498   5.557   5.529   0.241  1.1978 -1.6178 -1.8339
 5918SOL     OW18499   3.852   3.920   3.099  0.5426  0.4221  0.1767
 5918SOL    HW118500   3.777   3.862   3.114  1.4213 -0.1611  2.7649
 5918SOL    HW218501   3.840   3.992   3.161  2.3905 -0.0007  1.1022
 5919SOL     OW18502   3.889   3.193   2.016 -0.4292 -0.2297 -0.5192
 5919SOL    HW118503   3.949   3.262   2.043 -0.0416  0.1508 -2.2377
 5919SOL    HW218504   3.892   3.130   2.088  2.7143 -0.6502 -0.8670
 5920SOL     OW18505   6.205   5.732   1.693  0.0829 -0.2491  0.2903
 5920SOL    HW118506   6.166   5.781   1.766  1.4216  2.4160 -0.6392
 5920SOL    HW218507   6.174   5.777   1.615 -1.7379 -3.3607 -0.9566
 5921SOL     OW18508   4.569   5.922   1.029 -0.1174  0.1552  0.3509
 5921SOL    HW118509   4.561   6.011   0.995  1.4925  0.0324 -0.4551
 5921SOL    HW218510   4.609   5.872   0.957  1.5044 -0.5864  1.6780
 5922SOL     OW18511   5.422   0.561   3.933 -0.2778  0.2522 -0.1597
 5922SOL    HW118512   5.461   0.623   3.872 -4.2282 -0.0493 -3.3800
 5922SOL    HW218513   5.426   0.477   3.888 -3.7106  0.1006 -0.4841
 5923SOL     OW18514   5.546   5.727   6.214  0.2993 -0.0825  0.1140
 5923SOL    HW118515   5.636   5.739   6.245 -0.2410 -1.5275  2.4316
 5923SOL    HW218516   5.552   5.738   6.119  3.1688 -1.5095  0.0389
 5924SOL     OW18517   3.771   1.423   0.688  0.4789  0.4633 -0.1574
 5924SOL    HW118518   3.719   1.503   0.685 -0.1417  0.0507 -0.5254
 5924SOL    HW218519   3.760   1.390   0.777  1.7669  1.4427  0.4095
 5925SOL     OW18520   0.612   3.418   4.507 -0.2400  0.1626  0.0821
 5925SOL    HW118521   0.637   3.442   4.596  0.1471  0.4874 -0.1071
 5925SOL    HW218522   0.598   3.502   4.463  1.3488  0.0788 -0.6540
 5926SOL     OW18523   4.364   3.036   5.377  0.1653 -0.0393 -0.3915
 5926SOL    HW118524   4.376   3.113   5.322 -1.6093  0.2073 -0.4689
 5926SOL    HW218525   4.383   3.067   5.465 -0.0286  0.3607 -0.4864
 5927SOL     OW18526   1.504   4.552   4.974  0.1139  0.5891 -0.3743
 5927SOL    HW118527   1.510   4.538   4.879  2.2817  0.5237 -0.2850
 5927SOL    HW218528   1.595   4.552   5.003 -0.5198  0.5520  1.7343
 5928SOL     OW18529   2.128   2.702   3.554 -0.5925 -1.1489 -0.0325
 5928SOL    HW118530   2.219   2.681   3.534 -0.1550  0.6167 -0.0828
 5928SOL    HW218531   2.115   2.672   3.644  0.3377 -0.6050  0.2998
 5929SOL     OW18532   3.885   0.042   4.747 -0.1217  0.2492  0.3002
 5929SOL    HW118533   3.958   0.076   4.798 -0.1032  0.8869 -0.1330
 5929SOL    HW218534   3.903   0.071   4.657 -0.1708 -0.8240 -0.0702
 5930SOL     OW18535   1.151   6.089   1.414 -0.0427 -0.2670 -0.2262
 5930SOL    HW118536   1.115   6.113   1.328  1.9196  0.4269 -0.9119
 5930SOL    HW218537   1.246   6.102   1.405  0.0995  1.3679  2.5471
 5931SOL     OW18538   0.592   6.018   1.171 -0.5718 -0.0409  0.1701
 5931SOL    HW118539   0.530   6.086   1.148 -0.4464 -0.4701 -1.5876
 5931SOL    HW218540   0.547   5.936   1.150  0.2134 -0.3939 -0.1996
 5932SOL     OW18541   3.699   2.261   5.927  0.1599 -0.0389 -0.0313
 5932SOL    HW118542   3.606   2.248   5.911  0.2856  0.9728 -1.9719
 5932SOL    HW218543   3.742   2.184   5.888  0.2154  0.4484 -0.9798
 5933SOL     OW18544   4.386   1.540   3.697  0.8246  0.0735  0.0308
 5933SOL    HW118545   4.308   1.486   3.691 -0.9932  2.6290 -0.9834
 5933SOL    HW218546   4.429   1.513   3.778 -2.3344  0.0813  1.8356
 5934SOL     OW18547   3.273   1.561   3.447 -0.2895 -0.1515  0.1777
 5934SOL    HW118548   3.297   1.532   3.359  0.1172  0.1691  0.1766
 5934SOL    HW218549   3.178   1.555   3.450 -0.3153 -0.0345 -0.3298
 5935SOL     OW18550   1.605   1.234   2.195 -0.0368  0.3805  0.3200
 5935SOL    HW118551   1.640   1.319   2.168 -0.0225  0.2423 -0.1181
 5935SOL    HW218552   1.649   1.171   2.137  0.3640  0.0195  1.0131
 5936SOL     OW18553   1.693   4.801   6.254 -0.2474  0.2107 -0.2747
 5936SOL    HW118554   1.741   4.884   6.247 -0.1878  0.0797 -1.7226
 5936SOL    HW218555   1.701   4.761   6.168 -1.9865 -0.3567 -0.2136
 5937SOL     OW18556   6.034   2.552   4.588  0.5875 -0.6186 -0.0276
 5937SOL    HW118557   6.023   2.613   4.661  2.2066 -0.4529  0.1040
 5937SOL    HW218558   6.127   2.530   4.588  1.1342  0.9814 -3.2662
 5938SOL     OW18559   2.762   3.663   6.279 -0.0822 -0.3908  0.3674
 5938SOL    HW118560   2.788   3.754   6.298  0.1000 -0.4164  0.2497
 5938SOL    HW218561   2.838   3.611   6.306 -0.7663 -0.6643  1.9003
 5939SOL     OW18562   4.805   4.801   1.957  0.0960  0.6171  0.1568
 5939SOL    HW118563   4.855   4.727   1.990  1.4445  0.0085 -2.8565
 5939SOL    HW218564   4.725   4.761   1.921  0.6424  0.6183 -1.1124
 5940SOL     OW18565   5.026   5.167   6.004  0.2231 -0.2866 -0.4863
 5940SOL    HW118566   5.053   5.101   5.940  1.7132  0.2328 -0.4243
 5940SOL    HW218567   5.095   5.166   6.071 -0.4327  0.3817  0.2209
 5941SOL     OW18568   2.119   2.657   3.068 -0.1471  0.0780 -0.2291
 5941SOL    HW118569   2.057   2.594   3.105  0.0769 -1.0539 -1.7012
 5941SOL    HW218570   2.064   2.726   3.029 -0.4624 -0.4168 -0.6658
 5942SOL     OW18571   4.731   4.305   2.696 -0.0800  0.6537  0.1096
 5942SOL    HW118572   4.692   4.239   2.753  1.3698 -0.3228  0.0037
 5942SOL    HW218573   4.794   4.351   2.750  0.2230  0.7351 -0.3057
 5943SOL     OW18574   3.819   2.530   3.572 -0.2798  0.1823 -0.1452
 5943SOL    HW118575   3.765   2.605   3.596 -0.4752  0.2031 -0.6429
 5943SOL    HW218576   3.899   2.567   3.536 -0.0920  0.1500  0.2317
 5944SOL     OW18577   4.441   5.801   5.533 -0.3944  0.3074  0.3872
 5944SOL    HW118578   4.444   5.708   5.510 -2.7395  0.5679 -1.3546
 5944SOL    HW218579   4.485   5.845   5.461  2.2454  0.5294  2.0300
 5945SOL     OW18580   5.104   0.526   1.167 -0.0307  0.2563  0.4003
 5945SOL    HW118581   5.089   0.594   1.232  0.5485  0.1901  0.6092
 5945SOL    HW218582   5.151   0.570   1.097 -1.6769  0.6125 -0.5411
 5946SOL     OW18583   3.628   1.595   3.101 -0.6996  0.0003  0.1416
 5946SOL    HW118584   3.689   1.566   3.170  1.0080  0.6483 -1.0130
 5946SOL    HW218585   3.652   1.686   3.086  0.3593 -0.6287 -2.6230
 5947SOL     OW18586   1.998   6.070   1.121  0.3720 -0.2883  0.0845
 5947SOL    HW118587   1.912   6.028   1.122  0.8056 -1.1935  0.9174
 5947SOL    HW218588   2.010   6.098   1.030 -0.7553 -0.2431 -0.0609
 5948SOL     OW18589   2.525   4.256   1.491  0.2265 -0.5107  0.1441
 5948SOL    HW118590   2.587   4.262   1.564  2.4329 -0.6813 -1.6020
 5948SOL    HW218591   2.518   4.162   1.473 -1.2477 -0.5650  0.8208
 5949SOL     OW18592   3.074   4.240   0.547  0.2216 -0.0983 -0.1763
 5949SOL    HW118593   3.101   4.323   0.507 -1.2201  0.4516 -0.0669
 5949SOL    HW218594   2.987   4.258   0.583  0.5833 -1.1992  1.3293
 5950SOL     OW18595   0.653   5.068   0.302 -0.3202 -0.0538 -0.5586
 5950SOL    HW118596   0.674   5.069   0.208  0.1125 -1.1294 -0.4960
 5950SOL    HW218597   0.614   4.982   0.316  0.4802 -0.2709  0.4155
 5951SOL     OW18598   2.509   5.813   1.866  0.2783  0.5551 -0.2440
 5951SOL    HW118599   2.538   5.801   1.956  0.4931  1.5528 -0.1624
 5951SOL    HW218600   2.438   5.751   1.855  0.3731  0.2908  0.5552
 5952SOL     OW18601   0.916   4.351   2.449  0.1331 -0.0878  0.0082
 5952SOL    HW118602   0.854   4.287   2.413  0.9521  0.0332 -1.7071
 5952SOL    HW218603   0.989   4.350   2.388  1.1803  0.8371  1.2122
 5953SOL     OW18604   3.638   1.097   4.941  0.4502  0.0387  0.0403
 5953SOL    HW118605   3.699   1.160   4.903 -0.1454  1.0086  0.6520
 5953SOL    HW218606   3.684   1.059   5.016  0.4885  0.4021  0.2016
 5954SOL     OW18607   4.071   3.223   3.670  0.3253 -0.6193  0.7483
 5954SOL    HW118608   4.011   3.234   3.744 -0.2261 -1.5191  0.4540
 5954SOL    HW218609   4.157   3.209   3.710  0.0712 -0.8532  1.2182
 5955SOL     OW18610   6.118   0.184   2.021  0.2525  0.3390 -0.4084
 5955SOL    HW118611   6.156   0.117   2.077 -1.0349  0.1168  0.2382
 5955SOL    HW218612   6.118   0.145   1.933 -0.2108 -0.4081 -0.0895
 5956SOL     OW18613   1.664   1.290   0.226 -0.6878 -0.5755 -0.0823
 5956SOL    HW118614   1.748   1.268   0.266 -0.9756 -1.2346  0.1705
 5956SOL    HW218615   1.613   1.209   0.230 -1.0906 -0.3714 -0.8609
 5957SOL     OW18616   3.784   1.785   2.872 -0.2966  0.1738  0.4502
 5957SOL    HW118617   3.690   1.800   2.864 -0.2490  1.0602  1.4116
 5957SOL    HW218618   3.821   1.870   2.893  0.5262 -0.4694  1.6995
 5958SOL     OW18619   1.743   1.929   2.557  0.3412 -0.4534  0.0169
 5958SOL    HW118620   1.678   1.860   2.569  0.0653 -0.0175  1.2376
 5958SOL    HW218621   1.713   1.979   2.481 -1.1486  0.1358  0.9528
 5959SOL     OW18622   3.022   3.683   5.776  0.2724 -0.0995  0.0201
 5959SOL    HW118623   2.939   3.704   5.733 -0.0928 -1.6106 -0.0680
 5959SOL    HW218624   3.059   3.768   5.800 -1.0079  0.6225 -0.4790
 5960SOL     OW18625   5.230   6.174   1.081 -0.0550 -0.5390  0.0625
 5960SOL    HW118626   5.236   6.140   1.170  1.3802 -0.5768 -0.0239
 5960SOL    HW218627   5.275   6.109   1.027 -2.6851 -1.5962 -1.0591
 5961SOL     OW18628   1.519   2.254   4.449  0.8933  0.2583 -0.1158
 5961SOL    HW118629   1.577   2.317   4.406  1.0303 -0.1756 -0.5767
 5961SOL    HW218630   1.432   2.295   4.447  0.6257 -0.2984 -2.0152
 5962SOL     OW18631   2.772   3.958   2.499 -0.6104  0.4067 -0.0863
 5962SOL    HW118632   2.849   3.901   2.498 -1.5594 -0.9548  0.7534
 5962SOL    HW218633   2.805   4.044   2.473  1.4851  0.2136  1.6634
 5963SOL     OW18634   5.695   4.046   2.693  0.2642  0.1188 -0.2221
 5963SOL    HW118635   5.748   3.975   2.731 -0.7455 -0.7077 -0.3205
 5963SOL    HW218636   5.754   4.121   2.691  0.8283 -0.2350  1.5408
 5964SOL     OW18637   3.601   1.437   0.977 -0.3888  0.4391 -0.2052
 5964SOL    HW118638   3.619   1.529   0.997  0.8024  0.4676 -1.2688
 5964SOL    HW218639   3.520   1.438   0.927 -0.3553  0.9238 -0.2545
 5965SOL     OW18640   3.246   4.512   1.914 -0.3357  0.1819  0.1560
 5965SOL    HW118641   3.301   4.560   1.852 -0.6869 -1.1132 -1.2055
 5965SOL    HW218642   3.162   4.503   1.869 -0.9697  0.1761  1.2924
 5966SOL     OW18643   4.796   2.414   1.424 -0.1782 -0.7119  0.0226
 5966SOL    HW118644   4.725   2.463   1.466 -0.8332 -0.8469 -0.9039
 5966SOL    HW218645   4.860   2.481   1.400  0.1755 -0.6201  1.1302
 5967SOL     OW18646   1.342   4.164   1.899  0.8137  0.4193 -0.4677
 5967SOL    HW118647   1.315   4.091   1.843 -0.1694  0.7779 -0.4742
 5967SOL    HW218648   1.419   4.131   1.945 -1.5003 -1.9491  2.1035
 5968SOL     OW18649   6.293   6.252   4.624 -0.8177  0.1680  0.4597
 5968SOL    HW118650   6.284   6.284   4.714 -0.9728  1.5490 -0.0154
 5968SOL    HW218651   6.382   6.273   4.599 -0.4310 -1.1768  0.6161
 5969SOL     OW18652   0.613   0.764   3.457  0.7590 -0.1005 -0.1868
 5969SOL    HW118653   0.694   0.752   3.506  0.5723 -1.0643 -0.0940
 5969SOL    HW218654   0.611   0.857   3.436  2.2955 -0.2096 -0.9135
 5970SOL     OW18655   6.173   4.097   1.446 -0.0004  0.2677 -0.2334
 5970SOL    HW118656   6.104   4.120   1.509  0.3517 -2.8122  1.4524
 5970SOL    HW218657   6.126   4.079   1.365 -0.7565  1.6408 -0.1342
 5971SOL     OW18658   0.426   4.660   1.094  0.1462 -0.2974  0.0140
 5971SOL    HW118659   0.502   4.602   1.100 -0.1795 -0.5722  2.1631
 5971SOL    HW218660   0.464   4.746   1.073  0.9261 -0.6596 -0.0993
 5972SOL     OW18661   0.092   4.193   4.964 -0.7099 -0.2485 -0.0458
 5972SOL    HW118662   0.086   4.204   5.059  0.9954  2.2828 -0.1342
 5972SOL    HW218663   0.185   4.206   4.944 -1.1891  0.3416 -2.1501
 5973SOL     OW18664   5.102   3.480   1.421 -0.5934  0.4499 -0.3898
 5973SOL    HW118665   5.122   3.573   1.407  1.5740  0.2034  0.7852
 5973SOL    HW218666   5.136   3.436   1.343 -2.2227  0.6488 -1.2691
 5974SOL     OW18667   4.841   3.412   1.517  0.1030  0.1814 -0.0193
 5974SOL    HW118668   4.929   3.408   1.480  0.6214  0.4582  1.1292
 5974SOL    HW218669   4.854   3.445   1.606 -1.0995 -0.3813  0.3873
 5975SOL     OW18670   2.775   0.583   2.389 -0.2341  0.1215 -0.1154
 5975SOL    HW118671   2.713   0.650   2.416 -1.4195 -1.0950  0.2835
 5975SOL    HW218672   2.731   0.536   2.319  1.1447  0.5916 -1.3510
 5976SOL     OW18673   6.056   2.318   3.979  0.0198 -0.4206  0.0513
 5976SOL    HW118674   6.051   2.294   3.887 -0.0339 -1.7713  0.3910
 5976SOL    HW218675   6.115   2.253   4.018  0.0334  0.1189  0.9779
 5977SOL     OW18676   1.544   5.118   5.313 -0.8781 -0.4082  0.3767
 5977SOL    HW118677   1.508   5.030   5.320  0.1774 -1.1259 -2.2882
 5977SOL    HW218678   1.469   5.174   5.293 -1.0819 -1.2879 -1.4068
 5978SOL     OW18679   6.265   3.718   2.774  0.3758  0.3192 -0.4893
 5978SOL    HW118680   6.258   3.718   2.678 -1.1023 -0.2473 -0.4048
 5978SOL    HW218681   6.236   3.630   2.800  2.3538 -0.1240  0.3996
 5979SOL     OW18682   3.679   5.728   2.980 -0.9964 -0.2683 -0.3643
 5979SOL    HW118683   3.713   5.748   3.068 -1.2216  0.2804 -0.3961
 5979SOL    HW218684   3.705   5.638   2.964  0.6752  0.2157 -0.5035
 5980SOL     OW18685   4.097   4.689   3.735  0.2074 -0.2164  0.6516
 5980SOL    HW118686   4.006   4.688   3.765  0.9850  0.4396  3.2334
 5980SOL    HW218687   4.149   4.691   3.815  2.5033  0.2726 -0.7641
 5981SOL     OW18688   5.240   4.186   4.555  0.2074 -0.2025 -0.5779
 5981SOL    HW118689   5.157   4.139   4.562  0.6690 -0.8156  1.2499
 5981SOL    HW218690   5.302   4.120   4.523  0.7062 -0.7131  1.3394
 5982SOL     OW18691   2.494   3.361   5.363 -0.2391 -0.5263  0.1166
 5982SOL    HW118692   2.458   3.449   5.368  0.8109 -0.0613 -0.1908
 5982SOL    HW218693   2.418   3.303   5.361 -0.9424  0.3165  1.1805
 5983SOL     OW18694   3.071   4.501   0.744 -0.2394  0.7331  0.0785
 5983SOL    HW118695   3.031   4.550   0.673 -0.3170 -0.3041 -0.6162
 5983SOL    HW218696   3.163   4.525   0.741 -0.4280  1.5126  0.3255
 5984SOL     OW18697   3.881   0.803   1.937  0.3488  0.5581 -0.1555
 5984SOL    HW118698   3.927   0.887   1.937  1.4420  0.0123  1.3056
 5984SOL    HW218699   3.945   0.741   1.905 -0.0686  0.1021 -0.1156
 5985SOL     OW18700   4.577   1.902   2.463  0.6392 -0.3605  0.2170
 5985SOL    HW118701   4.590   1.837   2.532  0.9331  0.3732  0.8690
 5985SOL    HW218702   4.570   1.986   2.509 -0.2313  0.0278 -0.5627
 5986SOL     OW18703   4.605   0.227   3.252 -0.0926 -0.3362 -0.1192
 5986SOL    HW118704   4.677   0.249   3.311  0.2049 -0.0575 -0.5862
 5986SOL    HW218705   4.541   0.298   3.265  1.0104  1.0653 -1.8711
 5987SOL     OW18706   3.485   4.245   4.922 -0.6201  0.0657 -0.5835
 5987SOL    HW118707   3.533   4.252   4.839 -0.6110 -0.9787 -0.6878
 5987SOL    HW218708   3.550   4.213   4.984 -0.6250  0.8571 -0.1616
 5988SOL     OW18709   0.124   0.726   1.260  0.0318  0.6091  0.4670
 5988SOL    HW118710   0.032   0.738   1.286 -0.5283  0.7365 -1.3911
 5988SOL    HW218711   0.124   0.645   1.210  0.5605  1.4498 -0.9723
 5989SOL     OW18712   0.065   4.398   4.172 -0.3594  0.3005  0.0111
 5989SOL    HW118713   0.008   4.438   4.106  1.8402  2.0141 -0.9820
 5989SOL    HW218714   0.084   4.311   4.137 -0.1482  0.7608 -1.0840
 5990SOL     OW18715   0.657   3.717   1.289  0.2014  0.3096 -0.3811
 5990SOL    HW118716   0.663   3.628   1.257 -0.9591  0.5359 -1.3063
 5990SOL    HW218717   0.668   3.772   1.211  1.6531  1.0262  0.2757
 5991SOL     OW18718   1.124   2.859   4.665  0.5710  0.0066 -0.0674
 5991SOL    HW118719   1.136   2.764   4.663  0.6557  0.0247 -0.6227
 5991SOL    HW218720   1.183   2.892   4.598  0.7432  0.4781  0.3114
 5992SOL     OW18721   1.760   4.225   6.181 -0.1714 -0.1114  0.0649
 5992SOL    HW118722   1.824   4.293   6.160 -1.0508  1.5739  2.4209
 5992SOL    HW218723   1.805   4.169   6.244  0.9038 -2.4918 -2.5795
 5993SOL     OW18724   2.574   4.713   5.161  0.1981  0.3889  0.4371
 5993SOL    HW118725   2.493   4.668   5.187 -0.5519  1.1885 -0.4169
 5993SOL    HW218726   2.632   4.643   5.131  0.0717 -0.2615  1.6575
 5994SOL     OW18727   2.011   1.020   5.937  0.0614 -0.0038  0.0956
 5994SOL    HW118728   2.009   0.954   6.007  0.7634  0.7527  0.8463
 5994SOL    HW218729   1.919   1.039   5.919 -0.1558 -1.1678 -0.1186
 5995SOL     OW18730   4.429   2.355   2.210 -0.2867  0.0816  0.3928
 5995SOL    HW118731   4.363   2.408   2.255 -0.0170  0.3179  0.5159
 5995SOL    HW218732   4.399   2.265   2.222  1.3162 -0.1634  3.7569
 5996SOL     OW18733   1.722   1.672   0.104 -0.1960  0.0612  0.3019
 5996SOL    HW118734   1.805   1.633   0.076  1.3115  1.0376  2.9920
 5996SOL    HW218735   1.718   1.654   0.198 -1.9448  1.9687  0.6702
 5997SOL     OW18736   2.043   0.898   3.341  0.3004 -0.1428  0.3771
 5997SOL    HW118737   2.134   0.929   3.345  0.2411  0.0984 -0.1541
 5997SOL    HW218738   1.991   0.978   3.331  0.1809 -0.4134 -1.5121
 5998SOL     OW18739   5.734   0.180   5.112  0.1630  0.2104  0.4580
 5998SOL    HW118740   5.759   0.250   5.051 -0.4710 -0.7558 -0.9715
 5998SOL    HW218741   5.779   0.102   5.080 -1.9919 -0.8421 -0.2399
 5999SOL     OW18742   1.390   5.462   1.051 -0.1876  0.2924 -0.0376
 5999SOL    HW118743   1.387   5.557   1.042  0.1846  0.3080 -0.0081
 5999SOL    HW218744   1.461   5.446   1.113 -1.4438  0.0901  1.4170
 6000SOL     OW18745   6.252   0.896   3.809 -0.2071 -0.1973  0.4576
 6000SOL    HW118746   6.318   0.827   3.810 -0.4755 -0.4560  0.3126
 6000SOL    HW218747   6.168   0.850   3.813 -0.4693  0.0212 -1.5648
 6001SOL     OW18748   6.112   1.863   5.580  0.3437  0.7469  0.1037
 6001SOL    HW118749   6.017   1.852   5.582  0.5046 -0.6901  1.3481
 6001SOL    HW218750   6.145   1.798   5.641  2.1318  1.3820 -0.1313
 6002SOL     OW18751   4.035   5.903   0.001 -0.3328  0.1671  0.2901
 6002SOL    HW118752   3.966   5.840  -0.023 -0.1821 -0.1920  0.7655
 6002SOL    HW218753   3.987   5.982   0.025 -0.4824  0.5320 -1.1305
 6003SOL     OW18754   0.001   0.982   2.953 -0.0856  0.2750  0.1935
 6003SOL    HW118755  -0.006   1.070   2.990 -0.5728  0.1131  0.4899
 6003SOL    HW218756   0.064   0.937   3.010  0.4134  0.5224 -0.1493
 6004SOL     OW18757   0.568   3.298   1.314  0.1410  0.0299 -0.1451
 6004SOL    HW118758   0.524   3.357   1.375  0.6196  0.4182 -0.1778
 6004SOL    HW218759   0.655   3.335   1.302  0.7441 -1.1340  0.4765
 6005SOL     OW18760   4.772   1.268   1.287  0.0466 -0.5546 -0.4888
 6005SOL    HW118761   4.771   1.230   1.199  0.4569  0.7510 -1.0793
 6005SOL    HW218762   4.751   1.360   1.274 -0.1543 -0.3958  0.8228
 6006SOL     OW18763   0.114   1.564   5.191  0.3558  0.2308  0.0970
 6006SOL    HW118764   0.190   1.583   5.245  0.4006  0.3046  0.0081
 6006SOL    HW218765   0.099   1.644   5.141  0.0980  0.2838  0.2624
 6007SOL     OW18766   2.721   5.886   3.129 -0.5793  0.3067  0.1495
 6007SOL    HW118767   2.659   5.834   3.179  1.4178 -1.4269  1.0049
 6007SOL    HW218768   2.764   5.824   3.071  1.7716  0.9535  1.0638
 6008SOL     OW18769   3.015   3.150   0.363 -0.1576  0.0496  0.3116
 6008SOL    HW118770   2.935   3.194   0.333 -0.0173  1.5156  1.9485
 6008SOL    HW218771   2.987   3.060   0.382 -1.2795  0.3680  0.2193
 6009SOL     OW18772   4.693   1.109   3.894 -0.2226  0.5319  0.0897
 6009SOL    HW118773   4.677   1.105   3.800  2.9204 -1.4386 -0.5268
 6009SOL    HW218774   4.610   1.082   3.934 -1.4645  0.8825 -2.0942
 6010SOL     OW18775   1.505   0.952   4.936  0.0199 -0.0821 -0.5733
 6010SOL    HW118776   1.598   0.935   4.952 -0.0442  1.0325  1.2110
 6010SOL    HW218777   1.504   1.022   4.871  0.4954  1.4081  0.9857
 6011SOL     OW18778   2.863   1.815   1.298 -0.2119 -0.1153 -0.0660
 6011SOL    HW118779   2.947   1.825   1.254 -1.2891 -0.0151 -2.2083
 6011SOL    HW218780   2.878   1.746   1.363  1.0322 -1.4560 -1.6977
 6012SOL     OW18781   3.956   1.177   1.059 -0.0004 -0.4632 -0.2213
 6012SOL    HW118782   3.983   1.196   1.149  0.0839  1.6799 -0.6596
 6012SOL    HW218783   3.876   1.125   1.069 -1.1673  1.4696  1.1424
 6013SOL     OW18784   3.939   2.990   0.953 -0.6451  0.3318 -0.1659
 6013SOL    HW118785   4.016   2.934   0.942 -1.4760 -0.8616 -0.0772
 6013SOL    HW218786   3.961   3.047   1.027  0.8042  1.1789 -1.1959
 6014SOL     OW18787   6.062   2.947   1.044 -0.4672 -0.2362  0.6020
 6014SOL    HW118788   6.056   2.930   0.950  0.0297  1.8191  0.1554
 6014SOL    HW218789   6.084   2.862   1.082  0.0139 -0.9667 -1.2053
 6015SOL     OW18790   1.678   5.330   2.455 -0.0398  0.2928  0.2671
 6015SOL    HW118791   1.768   5.362   2.464 -0.4880  1.6015  0.3281
 6015SOL    HW218792   1.670   5.305   2.363  0.6487 -0.7407  0.4644
 6016SOL     OW18793   0.642   2.828   2.720 -0.6722  0.1811 -0.0210
 6016SOL    HW118794   0.714   2.770   2.696 -1.2302 -0.1785 -0.8786
 6016SOL    HW218795   0.591   2.778   2.784  0.0816  0.6210  0.9508
 6017SOL     OW18796   0.165   5.087   5.360 -0.4283  0.3345  0.1395
 6017SOL    HW118797   0.083   5.040   5.347 -0.1926  0.1149 -0.6108
 6017SOL    HW218798   0.221   5.026   5.406 -0.4054  0.1775 -0.0944
 6018SOL     OW18799   0.136   5.252   3.200 -0.2476 -0.5046  0.4158
 6018SOL    HW118800   0.139   5.195   3.123  2.6766 -0.4055  0.3698
 6018SOL    HW218801   0.130   5.341   3.164  0.7330 -0.4816  0.2852
 6019SOL     OW18802   3.239   5.900   1.625 -0.1752 -0.0260 -0.7121
 6019SOL    HW118803   3.145   5.904   1.638  0.1190 -0.7840  2.3100
 6019SOL    HW218804   3.265   5.816   1.664  1.7146 -0.0457 -1.8882
 6020SOL     OW18805   3.589   6.057   4.911  0.1170  0.0600  0.1753
 6020SOL    HW118806   3.677   6.068   4.948 -0.3607  1.6753  0.9438
 6020SOL    HW218807   3.539   6.016   4.981  0.3810 -1.4736 -0.4954
 6021SOL     OW18808   2.363   3.327   4.953 -0.5278 -0.5366 -0.1514
 6021SOL    HW118809   2.455   3.312   4.931 -0.4481 -0.1570 -0.0923
 6021SOL    HW218810   2.366   3.374   5.037 -0.8337 -2.6330  1.1203
 6022SOL     OW18811   5.520   2.681   0.296 -0.2410  0.9294  0.1654
 6022SOL    HW118812   5.503   2.755   0.354  1.6150  1.6074 -0.0774
 6022SOL    HW218813   5.596   2.637   0.335 -1.0929 -0.6717  0.1186
 6023SOL     OW18814   2.338   2.234   4.620 -0.2889 -0.0454  0.6986
 6023SOL    HW118815   2.263   2.177   4.608 -1.0929  1.3815 -1.7853
 6023SOL    HW218816   2.401   2.181   4.669 -2.4208 -1.6739  1.8539
 6024SOL     OW18817   5.530   4.569   1.334 -0.1922  0.7361  0.2775
 6024SOL    HW118818   5.507   4.660   1.317 -0.1653  0.8048  0.6113
 6024SOL    HW218819   5.620   4.561   1.305  0.1056  1.0505  1.0982
 6025SOL     OW18820   2.876   4.699   0.946 -0.5414  0.2382 -0.1490
 6025SOL    HW118821   2.911   4.613   0.924  1.0709  0.9303 -0.4701
 6025SOL    HW218822   2.870   4.699   1.042  1.2936  0.4038 -0.0020
 6026SOL     OW18823   4.993   4.218   5.538  0.8665  0.2685  0.0417
 6026SOL    HW118824   4.950   4.153   5.483  1.5117 -1.3381  1.3355
 6026SOL    HW218825   4.922   4.275   5.568  0.2785  0.1632 -1.1158
 6027SOL     OW18826   1.818   0.203   1.919 -0.0405 -0.1520 -0.0956
 6027SOL    HW118827   1.876   0.192   1.844 -0.8478  0.2504 -0.7998
 6027SOL    HW218828   1.773   0.119   1.927  2.7324 -1.5943  2.3519
 6028SOL     OW18829   3.879   5.782   4.392  0.5405 -0.0690 -0.2784
 6028SOL    HW118830   3.947   5.792   4.459  0.7131  0.5703 -0.5401
 6028SOL    HW218831   3.898   5.851   4.329 -0.7611  0.5597 -0.0096
 6029SOL     OW18832   0.771   5.504   3.238  0.1227  0.1079 -0.1845
 6029SOL    HW118833   0.800   5.440   3.303 -0.1662  1.3140  1.1848
 6029SOL    HW218834   0.851   5.547   3.209  0.3717 -1.1546 -1.4627
 6030SOL     OW18835   6.234   3.998   5.586 -0.0065  0.2547 -0.1005
 6030SOL    HW118836   6.223   3.972   5.677  1.0481 -0.3380 -0.1285
 6030SOL    HW218837   6.264   4.089   5.591 -0.6759  0.4704  0.1052
 6031SOL     OW18838   1.670   3.105   6.113 -0.1491 -0.4458  0.3416
 6031SOL    HW118839   1.678   3.086   6.207  0.4304 -1.2212  0.1471
 6031SOL    HW218840   1.748   3.065   6.074 -0.6987 -0.6702 -0.5503
 6032SOL     OW18841   1.714   3.335   5.229 -0.2793 -0.1738  0.6358
 6032SOL    HW118842   1.783   3.310   5.291 -1.1159 -2.8577  0.5928
 6032SOL    HW218843   1.736   3.289   5.148 -0.9610  0.6907 -0.0588
 6033SOL     OW18844   2.008   1.164   3.266  0.3526 -0.3306  0.0416
 6033SOL    HW118845   2.080   1.179   3.328 -1.7011  0.7397  2.3467
 6033SOL    HW218846   2.032   1.215   3.189  2.0497 -0.0339  0.7037
 6034SOL     OW18847   1.260   5.145   3.912  0.1586  0.1726  0.2915
 6034SOL    HW118848   1.280   5.233   3.943  0.7014  0.5239 -0.9877
 6034SOL    HW218849   1.215   5.158   3.828  0.7338 -0.7570 -0.1899
 6035SOL     OW18850   0.457   2.408   0.385  0.4734  0.2209 -0.4171
 6035SOL    HW118851   0.520   2.470   0.420  1.3344 -0.0275 -1.4661
 6035SOL    HW218852   0.388   2.463   0.348 -1.3723  0.5083  3.0418
 6036SOL     OW18853   1.642   1.046   2.726  0.3084 -0.2520 -0.0399
 6036SOL    HW118854   1.658   1.084   2.639  1.1855  0.2897  0.3552
 6036SOL    HW218855   1.552   1.072   2.747  0.5315  0.7025 -0.2371
 6037SOL     OW18856   5.131   2.567   2.661 -0.1065 -0.2075 -0.0518
 6037SOL    HW118857   5.110   2.488   2.611  2.9247 -2.4619  1.8643
 6037SOL    HW218858   5.074   2.563   2.737 -0.0575 -0.4765 -0.0291
 6038SOL     OW18859   1.566   3.120   4.056 -0.1959  0.1717 -0.8945
 6038SOL    HW118860   1.634   3.092   4.118  1.1778  0.9291 -1.9915
 6038SOL    HW218861   1.547   3.041   4.006 -0.4280 -0.1446 -0.3218
 6039SOL     OW18862   0.612   3.442   0.229 -0.5155 -0.1149  0.0107
 6039SOL    HW118863   0.516   3.439   0.231 -0.5100 -1.4777 -0.6005
 6039SOL    HW218864   0.639   3.393   0.307 -0.3165 -0.2053 -0.1151
 6040SOL     OW18865   3.935   2.919   4.100  0.0838 -0.4028  0.0713
 6040SOL    HW118866   3.905   3.001   4.062  0.5812 -0.8355 -1.3006
 6040SOL    HW218867   3.945   2.860   4.026  0.0291 -1.6261  0.9977
 6041SOL     OW18868   4.553   0.881   3.084 -0.5576  0.1868 -0.0007
 6041SOL    HW118869   4.588   0.957   3.130  1.3884  0.4515 -1.7880
 6041SOL    HW218870   4.630   0.837   3.048 -1.6882 -2.2214  0.3224
 6042SOL     OW18871   3.233   2.177   1.607 -0.2932  0.2279 -0.3060
 6042SOL    HW118872   3.265   2.091   1.634  1.6340  0.6341 -1.1799
 6042SOL    HW218873   3.187   2.160   1.525 -2.2868 -0.3174  0.8405
 6043SOL     OW18874   4.744   0.270   3.509  0.2578  0.1043 -0.0476
 6043SOL    HW118875   4.680   0.242   3.574  0.2707  1.4548  0.5948
 6043SOL    HW218876   4.719   0.361   3.489  0.7792 -0.0085 -1.2847
 6044SOL     OW18877   0.198   3.079   0.315  0.2220  0.3115  0.1605
 6044SOL    HW118878   0.218   3.141   0.386  0.4310  1.5744 -0.9561
 6044SOL    HW218879   0.152   3.132   0.250 -1.0433 -1.1001 -0.1305
 6045SOL     OW18880   0.477   5.982   4.732  0.6317 -0.0773 -0.0747
 6045SOL    HW118881   0.480   5.925   4.656 -2.4108  0.4284 -0.6683
 6045SOL    HW218882   0.449   6.067   4.698  0.3967  0.4944  1.4467
 6046SOL     OW18883   1.616   5.672   4.256 -0.4702 -0.2262  0.2163
 6046SOL    HW118884   1.537   5.707   4.296 -1.8394  0.8735 -3.1113
 6046SOL    HW218885   1.678   5.745   4.257 -0.4326 -0.2592  0.4373
 6047SOL     OW18886   3.965   6.013   4.211 -0.6002  0.6634 -0.0877
 6047SOL    HW118887   3.987   5.993   4.120 -0.1558 -0.3133  0.2112
 6047SOL    HW218888   3.870   6.018   4.212 -0.6214  0.4265 -0.5642
 6048SOL     OW18889   5.353   6.025   0.887  0.7403  0.5818  0.1246
 6048SOL    HW118890   5.320   5.946   0.931 -0.6773  0.2018 -1.5211
 6048SOL    HW218891   5.437   5.998   0.850  0.6324  0.0735  0.2404
 6049SOL     OW18892   3.573   3.742   4.449  0.3895 -0.2788  0.3491
 6049SOL    HW118893   3.497   3.780   4.494  0.8539 -0.6653  1.4942
 6049SOL    HW218894   3.635   3.814   4.440  0.4438 -0.2850  0.6686
 6050SOL     OW18895   2.403   2.411   3.145  0.0389 -0.2768  0.3064
 6050SOL    HW118896   2.402   2.506   3.142 -1.9684 -0.1325  2.7413
 6050SOL    HW218897   2.433   2.385   3.058  0.2061  2.5484 -0.5754
 6051SOL     OW18898   1.736   5.000   0.622 -0.2479 -0.0798  0.0450
 6051SOL    HW118899   1.681   4.954   0.559 -1.6959 -0.4862  1.5136
 6051SOL    HW218900   1.788   4.930   0.663 -0.1951  0.0157  0.1397
 6052SOL     OW18901   4.595   1.356   0.874  0.2669 -0.5307  0.7763
 6052SOL    HW118902   4.608   1.442   0.915 -0.9448  0.2629 -0.4014
 6052SOL    HW218903   4.503   1.356   0.848  0.9336 -0.9485 -1.8904
 6053SOL     OW18904   1.336   1.207   2.281 -0.2709 -0.0261 -0.2274
 6053SOL    HW118905   1.421   1.200   2.238  0.0018 -0.2578  0.3526
 6053SOL    HW218906   1.323   1.301   2.293  0.4859 -0.0405  0.8398
 6054SOL     OW18907   4.725   6.144   4.394  0.1630  0.0738  0.4387
 6054SOL    HW118908   4.693   6.113   4.479  0.6361 -1.8671 -0.0400
 6054SOL    HW218909   4.645   6.166   4.346 -0.1413  0.5471  1.1356
 6055SOL     OW18910   1.368   0.046   1.746  0.6201  0.2432 -0.3185
 6055SOL    HW118911   1.290  -0.009   1.734 -0.5899  1.5073  1.2547
 6055SOL    HW218912   1.393   0.072   1.658 -2.2317  1.7229 -0.8056
 6056SOL     OW18913   5.109   1.600   4.136 -0.3525  0.0646 -0.4147
 6056SOL    HW118914   5.141   1.535   4.198  2.4092  1.1629 -0.5101
 6056SOL    HW218915   5.016   1.607   4.153 -0.0845 -1.3527  2.0047
 6057SOL     OW18916   0.272   4.360   0.413 -0.2448  0.0139 -0.4122
 6057SOL    HW118917   0.257   4.361   0.318  0.8565  0.7146 -0.6074
 6057SOL    HW218918   0.306   4.273   0.431  0.3283  0.1435 -0.8174
 6058SOL     OW18919   3.859   3.662   0.988 -0.3112 -0.1180 -0.2097
 6058SOL    HW118920   3.827   3.573   1.006  3.4847 -1.9725 -1.4800
 6058SOL    HW218921   3.828   3.681   0.899 -0.4028 -0.5809 -0.2810
 6059SOL     OW18922   0.250   2.453   2.094 -0.0754  0.3766  0.2524
 6059SOL    HW118923   0.210   2.444   2.007  0.2319  0.5455  0.0918
 6059SOL    HW218924   0.291   2.539   2.093 -0.3216  0.4987  0.6725
 6060SOL     OW18925   2.360   4.039   4.535 -0.4048  0.2598 -0.1749
 6060SOL    HW118926   2.440   4.000   4.569  0.1972  2.4155  1.1430
 6060SOL    HW218927   2.389   4.093   4.461 -0.8649 -0.0521 -0.5859
 6061SOL     OW18928   2.375   2.803   5.722  0.2017 -0.1475 -0.1614
 6061SOL    HW118929   2.439   2.768   5.784  0.3674 -1.0856 -0.8454
 6061SOL    HW218930   2.361   2.732   5.659 -0.0818  0.7286 -1.1102
 6062SOL     OW18931   5.506   2.900   5.451  0.4800  0.2332  0.8120
 6062SOL    HW118932   5.565   2.901   5.527  0.5248 -2.5728  0.8881
 6062SOL    HW218933   5.456   2.820   5.460 -0.1387  0.2635 -1.6972
 6063SOL     OW18934   2.794   2.260   4.274 -0.2542  0.1130 -0.3863
 6063SOL    HW118935   2.772   2.170   4.296 -0.2570  0.2229  0.0602
 6063SOL    HW218936   2.776   2.267   4.180  0.7371 -0.6435 -0.6455
 6064SOL     OW18937   1.404   3.339   4.099  0.1449 -0.4132 -0.1936
 6064SOL    HW118938   1.437   3.369   4.183  0.1896  1.0336 -0.6935
 6064SOL    HW218939   1.449   3.256   4.083 -0.3668 -1.0681  1.4887
 6065SOL     OW18940   1.570   4.905   6.019 -0.5927  0.4471  0.0424
 6065SOL    HW118941   1.578   4.869   6.107 -0.5765  0.2441 -0.0430
 6065SOL    HW218942   1.476   4.919   6.007 -0.8605 -1.7510 -0.7998
 6066SOL     OW18943   5.838   2.061   2.915 -0.1185 -0.2570  0.4923
 6066SOL    HW118944   5.889   2.141   2.901  0.0150 -0.5994 -1.2314
 6066SOL    HW218945   5.903   1.995   2.941  0.4264 -0.7077 -1.7518
 6067SOL     OW18946   3.570   3.869   5.927  0.3319  0.3896  0.5746
 6067SOL    HW118947   3.609   3.864   5.840  1.9081 -0.8757  1.3010
 6067SOL    HW218948   3.531   3.956   5.931 -1.8209 -0.2913 -2.1801
 6068SOL     OW18949   5.465   0.666   2.689 -0.1654 -0.6163  0.2680
 6068SOL    HW118950   5.373   0.674   2.665  0.0547  0.5221 -0.2417
 6068SOL    HW218951   5.481   0.737   2.751  0.4473 -0.5989  0.1015
 6069SOL     OW18952   3.368   4.667   1.314  0.3055 -0.6001 -0.1337
 6069SOL    HW118953   3.295   4.694   1.370  1.6897  1.0303  0.9957
 6069SOL    HW218954   3.436   4.639   1.375  2.2059  2.0986 -0.8348
 6070SOL     OW18955   3.600   6.180   3.435 -0.2613  0.0482  0.6981
 6070SOL    HW118956   3.582   6.087   3.447  0.9220 -0.4276 -0.9009
 6070SOL    HW218957   3.541   6.224   3.497 -1.5268 -1.7068  0.8210
 6071SOL     OW18958   4.546   1.918   3.122 -0.2705  0.5918  0.5405
 6071SOL    HW118959   4.601   1.944   3.047  0.7928 -1.6579  0.4827
 6071SOL    HW218960   4.608   1.906   3.194 -0.8219 -0.7537  0.8118
 6072SOL     OW18961   3.368   3.155   2.795  0.0132  0.0355 -1.3500
 6072SOL    HW118962   3.404   3.070   2.768 -2.0340 -0.7563 -1.7402
 6072SOL    HW218963   3.434   3.218   2.767  2.5851 -1.5091  0.7510
 6073SOL     OW18964   3.258   4.692   0.356 -0.1745  0.0243 -0.1289
 6073SOL    HW118965   3.335   4.705   0.411 -0.4310 -0.4144  0.3380
 6073SOL    HW218966   3.245   4.776   0.312 -1.2340  1.0910  2.0947
 6074SOL     OW18967   4.719   1.818   0.348 -0.1114  0.0778  0.1140
 6074SOL    HW118968   4.707   1.814   0.443  2.3230 -1.0272  0.4535
 6074SOL    HW218969   4.743   1.909   0.331 -0.3481  0.2296  0.5804
 6075SOL     OW18970   3.655   1.693   1.052  0.0448  0.0470  0.5737
 6075SOL    HW118971   3.592   1.761   1.076  0.3142 -0.1140  1.7918
 6075SOL    HW218972   3.739   1.739   1.050  0.0034  0.0958 -0.2734
 6076SOL     OW18973   0.364   2.187   5.017 -0.5087 -0.2535 -0.3573
 6076SOL    HW118974   0.396   2.220   4.933 -0.3974  0.6477  0.0248
 6076SOL    HW218975   0.403   2.100   5.025  1.0881  0.4274 -0.3577
 6077SOL     OW18976   0.146   6.269   0.229  0.0019 -0.3172 -0.1816
 6077SOL    HW118977   0.227   6.320   0.233 -0.5660  0.5368  1.3519
 6077SOL    HW218978   0.142   6.223   0.313 -2.2168  1.5127  0.8302
 6078SOL     OW18979   3.052   4.473   2.560  0.4812 -0.4773 -0.0549
 6078SOL    HW118980   3.096   4.552   2.527 -2.0128  1.5760  1.1862
 6078SOL    HW218981   3.026   4.495   2.649 -1.0437 -2.4072  0.0474
 6079SOL     OW18982   1.010   4.526   3.846  0.0329 -0.4648  0.4262
 6079SOL    HW118983   0.950   4.595   3.873  0.7091  1.9174 -3.3506
 6079SOL    HW218984   0.956   4.466   3.794 -0.0226 -1.2894  1.4130
 6080SOL     OW18985   0.975   3.770   4.621 -0.2087 -0.0453  0.2432
 6080SOL    HW118986   0.972   3.695   4.561 -0.1738 -0.8194  1.1807
 6080SOL    HW218987   0.894   3.818   4.602  0.8279  1.0028 -1.9614
 6081SOL     OW18988   3.249   3.250   5.099 -0.4369  0.0514  0.0448
 6081SOL    HW118989   3.180   3.184   5.091 -1.6095  1.3401 -0.6861
 6081SOL    HW218990   3.213   3.329   5.059  1.4258  0.8016 -0.2620
 6082SOL     OW18991   2.972   3.868   1.515 -0.7277 -0.0391  0.0839
 6082SOL    HW118992   2.978   3.796   1.452 -0.0031 -2.3657  2.6001
 6082SOL    HW218993   3.058   3.908   1.515 -1.7002  2.4106 -2.8602
 6083SOL     OW18994   2.604   5.412   4.910  0.2319  0.3096 -0.0800
 6083SOL    HW118995   2.645   5.427   4.825  1.7571  2.0883  0.8781
 6083SOL    HW218996   2.511   5.428   4.895  0.6696  2.3030 -1.1106
 6084SOL     OW18997   6.099   2.879   4.840  0.2557 -0.6211  1.2047
 6084SOL    HW118998   6.081   2.879   4.934 -1.0178 -0.2382  0.9742
 6084SOL    HW218999   6.129   2.968   4.821 -0.9456 -0.2427  1.0014
 6085SOL     OW19000   4.486   1.048   2.217  0.0341 -0.0077  0.3548
 6085SOL    HW119001   4.509   1.096   2.297 -0.1295 -0.2853  0.5746
 6085SOL    HW219002   4.431   1.109   2.167 -1.8786 -0.6414  1.5621
 6086SOL     OW19003   2.833   5.374   0.656 -0.0081  0.0679  0.7997
 6086SOL    HW119004   2.810   5.306   0.593 -1.5626  0.9823  0.3296
 6086SOL    HW219005   2.806   5.339   0.740  0.7727 -0.5694  0.8026
 6087SOL     OW19006   1.868   1.775   5.295  0.0292 -0.0606  0.1000
 6087SOL    HW119007   1.961   1.759   5.282 -0.3813 -1.3556 -1.6118
 6087SOL    HW219008   1.827   1.750   5.212 -2.0602 -1.4399  1.4321
 6088SOL     OW19009   4.321   1.784   2.371  0.4175  0.4719 -0.0783
 6088SOL    HW119010   4.404   1.831   2.378  0.9711 -0.5983  1.1629
 6088SOL    HW219011   4.308   1.746   2.458 -1.0161  0.0202 -0.4621
 6089SOL     OW19012   2.696   6.229   3.102  0.3864  0.3002 -0.2365
 6089SOL    HW119013   2.786   6.198   3.103  0.5078  0.5102 -1.8931
 6089SOL    HW219014   2.653   6.180   3.172  1.5022 -0.6832 -0.2127
 6090SOL     OW19015   6.259   3.921   5.839 -0.1038 -0.2618  0.1072
 6090SOL    HW119016   6.173   3.885   5.817  0.0675 -1.3162  1.0771
 6090SOL    HW219017   6.321   3.869   5.788  0.0481 -0.3781  0.4096
 6091SOL     OW19018   5.402   2.644   2.620 -0.2281  1.0907  0.1094
 6091SOL    HW119019   5.330   2.610   2.672  1.6842  0.2114  2.3906
 6091SOL    HW219020   5.472   2.580   2.631  1.1528  2.2332 -1.4245
 6092SOL     OW19021   3.157   1.303   0.018  0.2922 -0.5158  0.0349
 6092SOL    HW119022   3.136   1.306  -0.075  1.8480 -2.6575 -0.4528
 6092SOL    HW219023   3.137   1.213   0.044 -2.5079  0.6358  2.4527
 6093SOL     OW19024   3.895   0.466   2.233  0.3775  0.7286  0.1651
 6093SOL    HW119025   3.942   0.441   2.153  0.8769 -2.3763  1.3240
 6093SOL    HW219026   3.956   0.525   2.279  2.2644 -1.3593  0.5207
 6094SOL     OW19027   4.087   4.089   4.178 -0.0124 -0.4234 -0.1296
 6094SOL    HW119028   4.162   4.146   4.163 -0.6257  0.9681  1.7145
 6094SOL    HW219029   4.124   4.001   4.185  1.1735 -0.0339 -1.2220
 6095SOL     OW19030   5.352   4.691   0.419  0.5045  0.5937  0.7425
 6095SOL    HW119031   5.287   4.724   0.481 -0.2617  0.0586  0.2523
 6095SOL    HW219032   5.328   4.599   0.407  1.0505  0.5203  0.1661
 6096SOL     OW19033   2.768   5.933   5.393  0.1227 -0.0316 -0.3505
 6096SOL    HW119034   2.862   5.940   5.373  0.2424  0.2996  0.2919
 6096SOL    HW219035   2.734   5.875   5.326  0.7594 -0.0146 -0.6998
 6097SOL     OW19036   4.925   2.607   2.848 -0.4382  0.1191  0.1928
 6097SOL    HW119037   4.840   2.563   2.849 -0.7785  0.7460 -0.3684
 6097SOL    HW219038   4.964   2.586   2.933 -1.1355 -0.2111  0.4366
 6098SOL     OW19039   4.484   5.132   5.982  0.4850  0.3542 -0.4732
 6098SOL    HW119040   4.430   5.119   6.060  0.1048 -0.6337 -0.8902
 6098SOL    HW219041   4.570   5.099   6.007  0.1286 -0.8169 -0.7585
 6099SOL     OW19042   5.874   6.302   4.223 -0.5722 -0.7830 -0.0524
 6099SOL    HW119043   5.864   6.274   4.132 -1.4359 -1.5623  0.2564
 6099SOL    HW219044   5.853   6.395   4.222 -0.8474 -0.8477 -0.6094
 6100SOL     OW19045   3.166   2.521   4.685 -0.0813 -0.0501 -0.3852
 6100SOL    HW119046   3.249   2.491   4.723 -1.0119 -1.6559  0.4596
 6100SOL    HW219047   3.193   2.575   4.610  1.7299 -1.7809 -1.0741
 6101SOL     OW19048   5.597   5.403   3.168 -0.3919 -0.2503  0.0163
 6101SOL    HW119049   5.516   5.435   3.130  0.3921  1.1448 -0.5329
 6101SOL    HW219050   5.620   5.326   3.116 -0.8373 -0.0620 -0.4586
 6102SOL     OW19051   1.129   6.227   2.848  0.1010 -0.0278  0.6551
 6102SOL    HW119052   1.098   6.318   2.850 -1.4231 -0.5206  0.6504
 6102SOL    HW219053   1.209   6.228   2.900  3.0917  2.3178 -3.3856
 6103SOL     OW19054   3.626   1.677   1.600  0.4553 -0.8384 -0.1620
 6103SOL    HW119055   3.715   1.705   1.621  0.3603  0.3275 -1.2252
 6103SOL    HW219056   3.613   1.701   1.509 -1.0171 -0.8322  0.0147
 6104SOL     OW19057   4.886   4.456   4.717  0.0353 -0.0075  0.1559
 6104SOL    HW119058   4.953   4.523   4.717 -0.7253  0.8084 -1.3303
 6104SOL    HW219059   4.928   4.380   4.757  1.6545  0.6454 -0.2185
 6105SOL     OW19060   1.977   5.377   1.517  0.1707  0.0103 -0.1953
 6105SOL    HW119061   1.954   5.362   1.425  1.1683  1.7307 -0.7686
 6105SOL    HW219062   2.041   5.309   1.537  0.8014  0.3066 -1.1331
 6106SOL     OW19063   3.756   1.424   4.989 -0.2961  0.1088  0.3704
 6106SOL    HW119064   3.831   1.455   4.939  0.3065 -2.9336 -0.8173
 6106SOL    HW219065   3.679   1.454   4.940 -0.0650  3.7825  1.9210
 6107SOL     OW19066   4.483   4.713   4.896  0.1371  0.0153  0.2305
 6107SOL    HW119067   4.468   4.807   4.898  0.5584  0.0737  0.7506
 6107SOL    HW219068   4.526   4.697   4.813  0.2390  0.3079  0.2275
 6108SOL     OW19069   4.861   1.974   3.880  0.5037  0.8017 -0.1835
 6108SOL    HW119070   4.853   1.895   3.827 -0.3981  0.4464  0.4569
 6108SOL    HW219071   4.927   1.952   3.946  0.9681  0.9307 -0.6011
 6109SOL     OW19072   0.706   0.693   4.501 -1.1121 -0.1353 -0.3765
 6109SOL    HW119073   0.769   0.661   4.566 -0.6523  1.6334  0.0911
 6109SOL    HW219074   0.760   0.726   4.429 -1.5066  0.7255 -0.2959
 6110SOL     OW19075   3.265   1.160   4.407 -0.3810  0.6173  0.0244
 6110SOL    HW119076   3.275   1.245   4.365  0.2815  0.5192 -0.0316
 6110SOL    HW219077   3.332   1.160   4.476 -0.7766  0.3760  0.4145
 6111SOL     OW19078   4.021   1.085   4.875 -0.0953  0.4536 -0.5380
 6111SOL    HW119079   4.107   1.126   4.882 -0.5330  1.4955 -0.9776
 6111SOL    HW219080   3.991   1.077   4.965  0.0907  0.9080 -0.4333
 6112SOL     OW19081   4.698   2.647   1.219 -0.0742 -0.5508 -0.1446
 6112SOL    HW119082   4.778   2.640   1.272 -0.1387 -2.0562 -0.2139
 6112SOL    HW219083   4.694   2.739   1.195  1.1487 -0.2665  0.6323
 6113SOL     OW19084   5.195   1.380   4.306  0.5890 -0.1784  0.0926
 6113SOL    HW119085   5.125   1.322   4.275 -1.0081  0.5959  2.0088
 6113SOL    HW219086   5.271   1.323   4.316 -0.2412 -1.4164 -0.3911
 6114SOL     OW19087   1.998   2.836   1.335 -0.3887  0.2885  0.3746
 6114SOL    HW119088   2.070   2.824   1.273 -0.7448  1.2712 -0.2492
 6114SOL    HW219089   2.037   2.887   1.406 -0.1560 -0.2439  0.6298
 6115SOL     OW19090   3.288   2.817   1.639 -0.2335  0.4035 -0.3089
 6115SOL    HW119091   3.354   2.748   1.633 -1.7879 -1.1106 -0.7590
 6115SOL    HW219092   3.339   2.898   1.653  1.7089 -0.6123 -1.1415
 6116SOL     OW19093   3.583   4.819   3.919 -0.4021 -0.3884  0.3712
 6116SOL    HW119094   3.545   4.904   3.899  0.1776 -0.4948 -1.3183
 6116SOL    HW219095   3.520   4.756   3.883 -0.3731 -0.6606  0.7846
 6117SOL     OW19096   2.316   0.246   5.347  0.4100  0.2128 -0.8172
 6117SOL    HW119097   2.244   0.291   5.302  0.1381  1.2988  0.6507
 6117SOL    HW219098   2.325   0.163   5.299 -3.0964 -0.8351  0.0098
 6118SOL     OW19099   1.714   2.463   4.470  0.0069  0.2347  0.0668
 6118SOL    HW119100   1.787   2.518   4.441 -0.2642  0.7997  0.4327
 6118SOL    HW219101   1.727   2.452   4.564 -0.0001 -0.2407  0.0123
 6119SOL     OW19102   1.077   1.963   6.287 -0.3523 -0.1111 -0.3475
 6119SOL    HW119103   1.136   1.898   6.326 -1.9960 -0.1962  2.2282
 6119SOL    HW219104   1.040   1.919   6.211  1.3184 -0.7908 -0.8184
 6120SOL     OW19105   4.485   6.257   1.273  0.0166 -0.2628  0.5563
 6120SOL    HW119106   4.445   6.329   1.322 -0.2332  0.7307 -1.0587
 6120SOL    HW219107   4.457   6.178   1.320  0.4707  0.6546  2.4868
 6121SOL     OW19108   2.078   5.211   4.297 -0.1486  0.3362 -0.2761
 6121SOL    HW119109   2.154   5.197   4.241 -1.5032 -1.1588 -1.8675
 6121SOL    HW219110   2.105   5.181   4.383  1.1071 -0.0366 -0.7869
 6122SOL     OW19111   2.861   1.772   0.269 -0.1330  0.4593 -0.2028
 6122SOL    HW119112   2.931   1.806   0.213  0.4169 -2.3832 -1.4229
 6122SOL    HW219113   2.781   1.780   0.216  0.1547 -0.8779 -0.9001
 6123SOL     OW19114   4.757   5.149   0.089  0.3230 -0.1864 -0.5032
 6123SOL    HW119115   4.780   5.141   0.182 -1.2674  1.4843  0.0885
 6123SOL    HW219116   4.758   5.243   0.072 -0.4445 -0.4087 -1.9011
 6124SOL     OW19117   5.682   0.593   1.427  0.2194  0.7171 -0.0854
 6124SOL    HW119118   5.742   0.649   1.476 -1.5519  1.3015  1.5218
 6124SOL    HW219119   5.595   0.624   1.451 -0.7612 -0.3007 -2.1125
 6125SOL     OW19120   3.374   5.652   5.348  0.5991 -0.1515  0.3307
 6125SOL    HW119121   3.408   5.689   5.266 -1.1139  1.9958  0.4722
 6125SOL    HW219122   3.325   5.575   5.321  1.9691 -0.8208 -0.3527
 6126SOL     OW19123   6.300   4.123   2.334 -0.0916 -0.4187  0.6571
 6126SOL    HW119124   6.270   4.044   2.377 -1.7824 -0.6645 -0.8662
 6126SOL    HW219125   6.310   4.098   2.242  1.0558  0.6923  0.4571
 6127SOL     OW19126   1.896   4.942   1.410 -0.1128  0.0491 -0.6808
 6127SOL    HW119127   1.974   4.976   1.365  0.6502 -1.5228 -0.5877
 6127SOL    HW219128   1.831   4.931   1.340 -0.3130  1.4159 -0.7500
 6128SOL     OW19129   5.344   4.773   4.109  0.5272 -0.0091  0.1195
 6128SOL    HW119130   5.306   4.847   4.158  1.6113  0.6711 -0.0223
 6128SOL    HW219131   5.288   4.699   4.130 -0.6186  0.8605  0.2428
 6129SOL     OW19132   3.936   5.468   2.091 -0.2285 -0.3851  0.2251
 6129SOL    HW119133   3.899   5.532   2.151 -1.2842 -0.1891 -0.6131
 6129SOL    HW219134   3.913   5.500   2.004  1.5807 -0.4783 -0.3295
 6130SOL     OW19135   1.247   2.507   5.031  0.4921 -0.2614  0.4763
 6130SOL    HW119136   1.160   2.541   5.011  0.2662 -0.3113  1.3498
 6130SOL    HW219137   1.237   2.412   5.031  1.0705 -0.3850 -1.7197
 6131SOL     OW19138   4.904   1.030   5.622 -0.1940  0.2475 -0.0206
 6131SOL    HW119139   4.938   1.103   5.672 -2.9121  1.9131 -0.3937
 6131SOL    HW219140   4.870   0.969   5.688  1.9510 -0.6938  0.2829
 6132SOL     OW19141   1.762   5.720   3.204 -0.1222  0.1133  0.1115
 6132SOL    HW119142   1.791   5.738   3.115 -0.3946 -2.2773 -0.5189
 6132SOL    HW219143   1.708   5.641   3.197 -1.0542  0.4871  2.2422
 6133SOL     OW19144   1.463   1.042   1.495  0.1538  0.1985 -0.1636
 6133SOL    HW119145   1.457   0.973   1.561  0.3739 -2.2553 -2.5708
 6133SOL    HW219146   1.553   1.074   1.501  0.1663  0.0264  0.7001
 6134SOL     OW19147   4.651   1.609   0.951  1.1399 -0.3438 -0.5494
 6134SOL    HW119148   4.705   1.675   0.907  0.3642  0.0246 -0.9661
 6134SOL    HW219149   4.568   1.653   0.967  0.3986 -1.3814 -1.3780
 6135SOL     OW19150   2.400   3.607   0.227  0.0864 -0.4058  0.3925
 6135SOL    HW119151   2.446   3.690   0.216  0.6510 -0.7530  0.1331
 6135SOL    HW219152   2.346   3.599   0.148 -0.9158  0.2957  0.9722
 6136SOL     OW19153   0.626   0.680   3.884 -0.3572 -0.1949  0.2347
 6136SOL    HW119154   0.628   0.634   3.968 -1.9602 -0.5925  0.1056
 6136SOL    HW219155   0.649   0.614   3.820 -2.5798 -0.8916  0.0581
 6137SOL     OW19156   5.245   5.662   1.795  0.1577 -0.1742 -0.0294
 6137SOL    HW119157   5.335   5.677   1.766  0.0875  1.1709  0.3954
 6137SOL    HW219158   5.225   5.573   1.765  0.8296  0.3491 -2.1788
 6138SOL     OW19159   5.737   3.755   1.980  0.2625  0.4139 -0.2308
 6138SOL    HW119160   5.647   3.764   2.010  0.2367 -1.0312  0.1982
 6138SOL    HW219161   5.744   3.815   1.906 -1.1905  0.1866 -0.5701
 6139SOL     OW19162   3.215   5.972   0.018  0.5507 -0.1816 -0.3991
 6139SOL    HW119163   3.127   5.999  -0.009 -0.0553 -1.1710  0.5112
 6139SOL    HW219164   3.222   5.881  -0.011  1.5689  0.0999 -1.1049
 6140SOL     OW19165   2.643   2.395   4.575 -0.2316 -0.2766  0.3729
 6140SOL    HW119166   2.612   2.397   4.485  2.9205  0.4802 -0.8166
 6140SOL    HW219167   2.667   2.303   4.590  0.5191 -0.1512 -0.0472
 6141SOL     OW19168   4.317   3.407   1.578 -0.0092 -0.2102 -0.1616
 6141SOL    HW119169   4.326   3.311   1.576  0.1607 -0.1870 -1.0458
 6141SOL    HW219170   4.227   3.423   1.548  0.1107 -0.0750 -0.4487
 6142SOL     OW19171   1.875   5.687   3.436 -0.0085  0.2639 -0.0776
 6142SOL    HW119172   1.851   5.597   3.458 -1.3137  0.2921 -1.2600
 6142SOL    HW219173   1.839   5.701   3.349 -2.5936  2.9070  1.2310
 6143SOL     OW19174   4.173   4.799   0.379 -0.0326  0.2545 -0.3944
 6143SOL    HW119175   4.174   4.722   0.435  1.5584  1.5231  1.4328
 6143SOL    HW219176   4.082   4.827   0.377 -0.0874  0.4926  2.1261
 6144SOL     OW19177   5.416   5.584   5.248  0.7864  0.3521 -0.4127
 6144SOL    HW119178   5.426   5.659   5.190 -0.5334  2.2490  1.6187
 6144SOL    HW219179   5.359   5.523   5.200  0.2658  1.5460 -1.3644
 6145SOL     OW19180   0.931   5.555   2.811 -0.0865  0.3668 -0.1824
 6145SOL    HW119181   0.995   5.493   2.846 -0.4878  0.2639  0.3777
 6145SOL    HW219182   0.941   5.633   2.865 -0.5308  0.3005 -0.0036
 6146SOL     OW19183   4.638   0.659   5.667 -0.2681  0.0752  0.5510
 6146SOL    HW119184   4.574   0.642   5.735  0.8268 -0.2426  1.5187
 6146SOL    HW219185   4.678   0.742   5.692 -0.6910  0.5889 -0.3800
 6147SOL     OW19186   3.254   0.577   6.279 -0.2106  0.1182 -0.2656
 6147SOL    HW119187   3.259   0.609   6.189  0.6686  1.5693  0.2572
 6147SOL    HW219188   3.168   0.535   6.285 -0.6933  0.8813 -1.4946
 6148SOL     OW19189   0.470   2.196   4.735  0.1560  0.4085 -0.3369
 6148SOL    HW119190   0.464   2.170   4.643  1.4368  0.7350 -0.5327
 6148SOL    HW219191   0.429   2.283   4.738  0.5228  0.5976 -0.6986
 6149SOL     OW19192   1.003   4.998   4.403 -0.0445 -0.1485  0.4284
 6149SOL    HW119193   1.035   4.944   4.475  0.2676 -0.2518  0.2121
 6149SOL    HW219194   1.081   5.036   4.363 -0.1151 -0.9889 -0.5643
 6150SOL     OW19195   1.863   0.867   2.154 -0.3276 -0.1159 -0.4265
 6150SOL    HW119196   1.900   0.782   2.130  0.0329 -0.5148  1.3916
 6150SOL    HW219197   1.840   0.857   2.247  0.5767  2.0609  0.0793
 6151SOL     OW19198   0.186   5.374   1.788  0.2212 -0.2768 -0.2745
 6151SOL    HW119199   0.114   5.319   1.819 -0.5937  0.9392  0.0284
 6151SOL    HW219200   0.241   5.314   1.738 -0.6832 -1.3553 -0.0279
 6152SOL     OW19201   1.194   5.543   2.047 -0.2797 -0.3114  0.1168
 6152SOL    HW119202   1.242   5.530   2.129  1.8194 -0.4144 -1.0612
 6152SOL    HW219203   1.125   5.477   2.048  0.0312 -0.6304  1.5620
 6153SOL     OW19204   0.461   5.224   5.175 -0.1224  0.0055  0.2738
 6153SOL    HW119205   0.496   5.312   5.194  1.9022 -0.6411 -0.2456
 6153SOL    HW219206   0.368   5.231   5.197 -0.3351  2.6569 -0.9640
 6154SOL     OW19207   1.818   6.036   6.218  0.1542 -0.0388  0.2307
 6154SOL    HW119208   1.780   5.988   6.291 -1.0577 -0.5116 -0.6775
 6154SOL    HW219209   1.757   6.022   6.146  1.0846  0.7936 -0.7500
 6155SOL     OW19210   4.455   1.813   0.944 -0.0370  0.1414  0.3004
 6155SOL    HW119211   4.378   1.809   0.887  0.7328 -1.7469 -0.7319
 6155SOL    HW219212   4.478   1.905   0.948 -0.8313  0.4647 -1.5203
 6156SOL     OW19213   5.669   3.192   1.069 -0.0984  0.2793  0.1410
 6156SOL    HW119214   5.743   3.138   1.097  0.1015 -0.1867 -1.2120
 6156SOL    HW219215   5.645   3.242   1.147  2.6187  1.5728  0.2748
 6157SOL     OW19216   6.296   5.134   2.559  0.1167 -0.3189  0.1182
 6157SOL    HW119217   6.209   5.093   2.565  0.1692 -0.5260 -0.4598
 6157SOL    HW219218   6.286   5.202   2.493  0.4044 -0.3638  0.0277
 6158SOL     OW19219   4.397   3.924   0.226 -0.1517 -0.1554  0.1172
 6158SOL    HW119220   4.357   3.956   0.145 -1.0568 -0.0809  0.5727
 6158SOL    HW219221   4.490   3.914   0.205  0.0375  2.0173 -0.2547
 6159SOL     OW19222   5.939   6.146   2.751 -0.0471 -0.2864  0.1392
 6159SOL    HW119223   5.962   6.106   2.835  1.1584 -0.1222 -0.0934
 6159SOL    HW219224   5.876   6.085   2.712  1.1032 -1.5517  0.1632
 6160SOL     OW19225   1.643   0.425   2.668 -0.2521  0.2298 -0.3692
 6160SOL    HW119226   1.596   0.495   2.713  0.2894 -0.8320  1.9931
 6160SOL    HW219227   1.650   0.355   2.733  2.2781 -0.6734 -1.4859
 6161SOL     OW19228   4.379   3.817   4.469 -0.1204 -0.7036  0.2460
 6161SOL    HW119229   4.442   3.792   4.537  0.6425 -1.6238 -0.7656
 6161SOL    HW219230   4.428   3.877   4.412 -0.8657  0.3565  0.6756
 6162SOL     OW19231   4.724   2.318   3.333  0.0627  0.2189 -0.0965
 6162SOL    HW119232   4.738   2.238   3.384 -0.9444 -0.2942 -0.6037
 6162SOL    HW219233   4.688   2.381   3.395 -0.6603 -0.2350 -0.0486
 6163SOL     OW19234   6.084   5.047   5.251 -0.4263 -0.1355  0.2799
 6163SOL    HW119235   6.060   5.076   5.163 -1.7970  0.2029  0.7436
 6163SOL    HW219236   6.067   5.123   5.307 -0.0318 -0.5004  0.9116
 6164SOL     OW19237   3.242   2.340   6.301  0.1456 -0.3526 -0.0788
 6164SOL    HW119238   3.293   2.367   6.224 -0.6040  0.3307 -0.3444
 6164SOL    HW219239   3.258   2.246   6.308 -0.7880 -0.6926 -1.8528
 6165SOL     OW19240   5.342   1.890   4.420  0.1789 -0.2411  0.0564
 6165SOL    HW119241   5.358   1.848   4.335 -0.9478  0.6914 -0.6502
 6165SOL    HW219242   5.410   1.957   4.428  1.6870 -1.8029  0.9669
 6166SOL     OW19243   0.137   3.700   2.357  0.4648  0.5306 -0.3816
 6166SOL    HW119244   0.176   3.640   2.294  0.9920  1.1434 -0.6553
 6166SOL    HW219245   0.211   3.751   2.390  0.1187  0.5902  0.3320
 6167SOL     OW19246   2.062   1.848   5.538  0.1665  0.2053  0.4869
 6167SOL    HW119247   2.098   1.835   5.450 -2.8107 -2.4824 -0.5351
 6167SOL    HW219248   1.967   1.857   5.524 -0.6409 -2.0159  3.4628
 6168SOL     OW19249   6.257   2.400   2.858  0.0279 -0.4573  0.1630
 6168SOL    HW119250   6.318   2.373   2.789  0.7940 -0.5104  0.8483
 6168SOL    HW219251   6.285   2.489   2.881 -0.5318 -0.2540  0.0835
 6169SOL     OW19252   4.514   6.081   2.015 -0.5377  0.0098  0.0815
 6169SOL    HW119253   4.477   6.129   1.942 -0.7029 -1.1063 -0.5905
 6169SOL    HW219254   4.592   6.039   1.979  0.4483  0.9391  1.0355
 6170SOL     OW19255   4.730   4.131   5.866 -0.2618 -0.3027  0.0587
 6170SOL    HW119256   4.680   4.091   5.795 -0.6575  0.0167  0.1514
 6170SOL    HW219257   4.818   4.140   5.830 -0.6991  0.8468 -0.8032
 6171SOL     OW19258   2.472   4.919   0.172 -0.2840  0.2561  0.2067
 6171SOL    HW119259   2.520   5.002   0.180  1.0388 -0.1595 -2.1763
 6171SOL    HW219260   2.386   4.937   0.209  0.2946  2.3824  0.6738
 6172SOL     OW19261   2.969   1.207   2.543 -0.2045  0.2725 -0.3516
 6172SOL    HW119262   2.998   1.198   2.452  0.3382  0.2366 -0.1766
 6172SOL    HW219263   3.048   1.228   2.592 -0.4292 -0.0711  0.1730
 6173SOL     OW19264   0.609   3.722   0.517 -0.1847 -0.1237 -0.2988
 6173SOL    HW119265   0.648   3.645   0.475 -1.8707 -1.3588  0.2651
 6173SOL    HW219266   0.523   3.692   0.546 -0.8100  1.9377  0.1505
 6174SOL     OW19267   6.253   5.155   4.732  0.1073 -0.1405  0.3758
 6174SOL    HW119268   6.321   5.217   4.759  1.2997  0.0461 -2.6382
 6174SOL    HW219269   6.196   5.205   4.674  0.0398 -1.3716 -0.6807
 6175SOL     OW19270   5.070   0.765   1.292  0.1598 -0.6502  0.5615
 6175SOL    HW119271   5.149   0.809   1.325 -0.3478 -0.8017  2.0639
 6175SOL    HW219272   5.024   0.832   1.243  1.4989 -0.7154 -0.8709
 6176SOL     OW19273   0.468   2.080   5.629  0.7268  0.2910  0.2992
 6176SOL    HW119274   0.477   2.011   5.563 -0.8426 -1.2868  1.6376
 6176SOL    HW219275   0.407   2.143   5.591  1.3096  0.3912 -0.4942
 6177SOL     OW19276   5.118   5.132   4.481  0.0353 -0.5929 -0.3186
 6177SOL    HW119277   5.160   5.048   4.495 -0.8526 -0.7916  1.4967
 6177SOL    HW219278   5.035   5.111   4.439 -0.4460 -0.7105  0.6608
 6178SOL     OW19279   4.914   5.478   2.798 -0.5002  0.4282 -0.1837
 6178SOL    HW119280   5.001   5.462   2.833  0.1952  1.2013 -1.4659
 6178SOL    HW219281   4.876   5.544   2.856 -0.1464  0.2544  0.2493
 6179SOL     OW19282   0.073   0.677   4.642 -0.5711  0.0996 -0.2652
 6179SOL    HW119283   0.070   0.772   4.648 -0.2086  0.0609  0.8583
 6179SOL    HW219284   0.125   0.659   4.563  0.2335  0.8405  0.0823
 6180SOL     OW19285   4.320   4.635   2.605  0.3765 -0.1737 -0.0046
 6180SOL    HW119286   4.288   4.654   2.516 -0.3942 -2.1745 -0.1912
 6180SOL    HW219287   4.241   4.636   2.659  0.5931 -0.7668  0.3261
 6181SOL     OW19288   3.568   4.562   1.463 -0.0510  0.0974  0.4241
 6181SOL    HW119289   3.633   4.612   1.512 -0.4420  0.3168  0.7289
 6181SOL    HW219290   3.582   4.471   1.490  1.4626 -0.1391 -1.0416
 6182SOL     OW19291   1.120   2.551   4.707  0.1750 -1.1126  0.5824
 6182SOL    HW119292   1.170   2.474   4.734  0.8117 -1.1735 -0.7146
 6182SOL    HW219293   1.091   2.532   4.618  1.1373  0.4887 -0.1357
 6183SOL     OW19294   5.869   1.586   5.530 -0.5189 -0.3183  0.3486
 6183SOL    HW119295   5.784   1.603   5.571 -1.6704 -1.2272 -1.5182
 6183SOL    HW219296   5.914   1.529   5.592 -1.5604 -0.3835  1.0775
 6184SOL     OW19297   5.265   2.184   0.761 -0.2694 -0.5373 -0.3676
 6184SOL    HW119298   5.329   2.153   0.698  0.9461  2.3342 -0.6871
 6184SOL    HW219299   5.196   2.225   0.708  0.3926  1.2236  0.0533
 6185SOL     OW19300   2.440   0.199   4.401 -0.4983 -0.7759 -0.5263
 6185SOL    HW119301   2.366   0.235   4.450  1.0361  0.2529  1.1723
 6185SOL    HW219302   2.408   0.117   4.365 -2.7269  0.0735 -0.6251
 6186SOL     OW19303   6.049   0.318   5.897 -0.0689  0.4926 -0.3947
 6186SOL    HW119304   6.010   0.395   5.939 -0.4069  0.3644 -0.4668
 6186SOL    HW219305   6.008   0.314   5.811 -0.5510 -0.1401 -0.1455
 6187SOL     OW19306   1.537   4.012   4.912  0.1129 -0.8863  0.2619
 6187SOL    HW119307   1.565   3.934   4.864  1.4148 -0.2773 -0.0147
 6187SOL    HW219308   1.495   4.067   4.845  3.9136  0.9726 -0.8615
 6188SOL     OW19309   6.188   4.448   0.250  0.3463  0.1960 -0.4821
 6188SOL    HW119310   6.144   4.519   0.298  0.7892  1.3236 -1.6758
 6188SOL    HW219311   6.181   4.372   0.308  0.0298  1.2537  0.9369
 6189SOL     OW19312   2.261   5.806   5.986  0.6770 -0.3109 -0.2833
 6189SOL    HW119313   2.198   5.863   5.942  0.9455  0.6043  0.4768
 6189SOL    HW219314   2.343   5.819   5.938  1.0166  0.8310  0.5572
 6190SOL     OW19315   1.804   4.180   2.386  0.3654 -0.3942  0.0380
 6190SOL    HW119316   1.730   4.230   2.350  1.1043  0.0719 -0.8723
 6190SOL    HW219317   1.873   4.189   2.320  0.8670 -1.7685  0.3415
 6191SOL     OW19318   0.780   0.484   4.946  0.1122 -0.0224 -0.2818
 6191SOL    HW119319   0.845   0.440   5.001 -0.9858 -0.2264  0.8915
 6191SOL    HW219320   0.737   0.413   4.898  0.1013  0.0280 -0.3473
 6192SOL     OW19321   5.605   5.617   5.620  0.3676 -0.0361  0.0616
 6192SOL    HW119322   5.540   5.581   5.681  1.4936  0.1583  1.4307
 6192SOL    HW219323   5.592   5.566   5.539 -1.9050  0.4559  0.0434
 6193SOL     OW19324   2.431   3.104   0.066 -0.3792 -0.1100 -0.3339
 6193SOL    HW119325   2.509   3.154   0.042  0.8955 -1.6114  0.5026
 6193SOL    HW219326   2.414   3.048  -0.009 -1.2205  0.8447 -0.8769
 6194SOL     OW19327   2.272   3.037   1.190 -0.0196 -0.0882  0.2402
 6194SOL    HW119328   2.282   3.090   1.270  0.2674  0.7805 -0.3486
 6194SOL    HW219329   2.327   3.082   1.126  1.1483 -1.7670  0.0152
 6195SOL     OW19330   5.614   2.819   2.673 -0.0578  0.5832  0.3980
 6195SOL    HW119331   5.539   2.765   2.649  1.0801 -1.6150  1.4908
 6195SOL    HW219332   5.600   2.840   2.766  0.8272 -0.2052  0.7335
 6196SOL     OW19333   1.587   4.384   5.902  0.5695 -0.7141 -0.1259
 6196SOL    HW119334   1.604   4.291   5.888 -0.2402 -0.8191 -0.5059
 6196SOL    HW219335   1.520   4.406   5.837 -0.2821 -0.2127  0.8753
 6197SOL     OW19336   5.500   0.480   3.443  0.0984  0.4760  0.2711
 6197SOL    HW119337   5.520   0.398   3.398  0.0911  0.7249 -0.1994
 6197SOL    HW219338   5.440   0.456   3.513  0.6345 -0.0194  0.5683
 6198SOL     OW19339   0.801   5.627   2.512 -0.3250  0.3147  0.2019
 6198SOL    HW119340   0.802   5.706   2.566 -2.9865 -0.1386  1.0192
 6198SOL    HW219341   0.773   5.557   2.571 -0.4881 -0.7570 -1.0969
 6199SOL     OW19342   4.060   4.618   4.977  0.4262 -0.2023 -0.3720
 6199SOL    HW119343   4.120   4.668   5.031  0.8840 -0.4352 -0.6641
 6199SOL    HW219344   4.078   4.527   4.998 -0.9801 -0.2528  0.7773
 6200SOL     OW19345   5.881   3.319   3.321 -0.1659 -0.8509  0.3244
 6200SOL    HW119346   5.848   3.408   3.303 -1.0897 -0.8862  1.6666
 6200SOL    HW219347   5.806   3.274   3.360  0.5962 -1.9119  0.5958
 6201SOL     OW19348   4.055   0.450   1.282  0.0026 -0.0195  0.5052
 6201SOL    HW119349   3.970   0.491   1.267  0.8467  1.6494  0.0183
 6201SOL    HW219350   4.034   0.359   1.304 -1.9075  0.4345  0.7581
 6202SOL     OW19351   4.781   6.264   1.268 -0.1795 -0.5394 -0.2899
 6202SOL    HW119352   4.689   6.244   1.287 -1.1579  1.6123 -2.2430
 6202SOL    HW219353   4.796   6.348   1.310  0.2467  0.0695 -1.6012
 6203SOL     OW19354   4.891   2.411   3.129 -0.0786  0.3573 -0.3756
 6203SOL    HW119355   4.823   2.368   3.182 -0.4929  1.2027 -0.2060
 6203SOL    HW219356   4.909   2.348   3.059  0.4609 -0.7688  0.7302
 6204SOL     OW19357   5.805   0.477   2.402  0.0123 -0.2279  0.0722
 6204SOL    HW119358   5.715   0.508   2.392 -0.6910 -1.8330  0.9677
 6204SOL    HW219359   5.836   0.519   2.483 -0.3595 -0.5907  0.4073
 6205SOL     OW19360   5.254   2.983   4.140  0.6956 -0.3559 -0.4260
 6205SOL    HW119361   5.210   3.012   4.220  0.5917 -0.4078 -0.4651
 6205SOL    HW219362   5.315   3.054   4.119  1.8844 -1.0219  0.5939
 6206SOL     OW19363   4.336   4.219   0.083 -0.2510 -0.1288 -0.7769
 6206SOL    HW119364   4.432   4.218   0.084 -0.2562 -0.7505 -0.0597
 6206SOL    HW219365   4.314   4.310   0.062  0.5052  0.3042  0.2125
 6207SOL     OW19366   0.901   0.937   2.566  0.1620  0.4278  0.1074
 6207SOL    HW119367   0.837   0.968   2.502 -0.2334 -0.2767  0.1429
 6207SOL    HW219368   0.919   0.846   2.539 -0.1935  0.0404  1.1330
 6208SOL     OW19369   1.262   2.992   6.199 -0.8804 -1.2184 -0.3998
 6208SOL    HW119370   1.278   2.944   6.280  0.2169 -1.1873 -0.5784
 6208SOL    HW219371   1.178   3.036   6.212  0.4963  0.9645  1.7752
 6209SOL     OW19372   1.041   3.299   1.590 -0.1672 -0.3409 -1.0520
 6209SOL    HW119373   1.016   3.327   1.502  0.2847  1.6442 -0.6063
 6209SOL    HW219374   1.102   3.366   1.620  0.7160 -1.6758  0.2955
 6210SOL     OW19375   1.956   0.752   2.534  0.4008  0.3082  0.5313
 6210SOL    HW119376   1.916   0.699   2.604  2.0046  0.7878  1.8750
 6210SOL    HW219377   1.886   0.809   2.505 -0.9801 -1.5304  0.0483
 6211SOL     OW19378   6.109   3.535   5.149  0.2708  0.2201  0.3125
 6211SOL    HW119379   6.075   3.456   5.190 -0.0625  0.2642  0.1261
 6211SOL    HW219380   6.033   3.574   5.106  0.2326  1.1452  1.1931
 6212SOL     OW19381   1.187   5.966   3.005 -0.2242  0.4572  0.0170
 6212SOL    HW119382   1.180   6.034   3.073 -2.6130 -0.7969  1.1441
 6212SOL    HW219383   1.253   5.906   3.039 -0.3219  0.6155  0.5015
 6213SOL     OW19384   6.237   3.910   3.663 -0.0020  0.4303  0.2730
 6213SOL    HW119385   6.317   3.912   3.611  0.2628 -0.6074  0.6175
 6213SOL    HW219386   6.166   3.920   3.599  0.3508 -0.0691 -0.2047
 6214SOL     OW19387   3.588   6.091   1.712 -0.2781 -0.2318 -0.4414
 6214SOL    HW119388   3.588   6.017   1.652 -1.7301  0.1933 -0.9887
 6214SOL    HW219389   3.535   6.157   1.669 -0.6710  0.3849  0.9459
 6215SOL     OW19390   5.048   1.415   1.855 -0.1990  0.0239  0.7320
 6215SOL    HW119391   5.065   1.495   1.804 -0.7331  0.7696  1.6788
 6215SOL    HW219392   4.957   1.425   1.885  0.0259 -0.5015  1.6158
 6216SOL     OW19393   3.851   4.205   4.297 -0.2820 -0.3137  0.1194
 6216SOL    HW119394   3.937   4.210   4.257 -0.8852 -1.7892 -1.4668
 6216SOL    HW219395   3.825   4.113   4.289 -2.0680  0.1125  0.4093
 6217SOL     OW19396   0.537   1.338   2.509  0.1859  0.5070  0.1903
 6217SOL    HW119397   0.527   1.328   2.604 -0.8613  0.4451  0.0778
 6217SOL    HW219398   0.604   1.406   2.499  1.7640 -0.8568  0.9627
 6218SOL     OW19399   2.993   3.581   0.080 -0.0183  0.7790  0.1441
 6218SOL    HW119400   3.039   3.663   0.094  0.7794  0.3337  0.1830
 6218SOL    HW219401   2.993   3.538   0.165  0.3572  0.3398 -0.0751
 6219SOL     OW19402   5.800   6.084   3.630 -0.5767  0.0542 -0.0622
 6219SOL    HW119403   5.892   6.080   3.656 -0.8086 -2.2394  0.6197
 6219SOL    HW219404   5.796   6.155   3.566  1.6344  0.2943  0.0036
 6220SOL     OW19405   4.500   3.772   6.022 -0.0390  0.1366 -0.5277
 6220SOL    HW119406   4.474   3.855   6.061  2.6417  1.6885 -1.7719
 6220SOL    HW219407   4.556   3.731   6.087 -0.2960 -0.0822 -0.4413
 6221SOL     OW19408   2.213   0.675   1.839  0.1831  0.7262 -0.3530
 6221SOL    HW119409   2.219   0.716   1.925 -0.0642  1.4657 -0.6810
 6221SOL    HW219410   2.304   0.659   1.814  0.2559  0.5317  0.0355
 6222SOL     OW19411   0.114   3.457   5.345  0.0143  0.0374  0.3070
 6222SOL    HW119412   0.175   3.481   5.275 -0.3703 -0.3439 -0.1712
 6222SOL    HW219413   0.167   3.457   5.424  0.2365  1.4698  0.1815
 6223SOL     OW19414   0.949   6.025   2.834  0.2412  0.3473  0.3842
 6223SOL    HW119415   1.004   6.103   2.839 -0.8221  1.2034 -0.5092
 6223SOL    HW219416   0.906   6.020   2.920 -1.0782  1.8705 -0.1260
 6224SOL     OW19417   1.601   1.467   3.075  0.2423  0.2130  0.6235
 6224SOL    HW119418   1.629   1.551   3.110  0.7476  1.1087 -1.7246
 6224SOL    HW219419   1.538   1.433   3.139 -1.4910  3.2963  0.7329
 6225SOL     OW19420   5.325   0.376   0.417  0.5122 -0.5363 -0.1830
 6225SOL    HW119421   5.387   0.335   0.356  1.2008  0.0190  0.1416
 6225SOL    HW219422   5.330   0.323   0.496  1.1185 -0.0564  0.1017
 6226SOL     OW19423   3.595   3.215   4.207 -0.3328 -0.1754  0.0649
 6226SOL    HW119424   3.528   3.282   4.220 -1.9021 -1.3488 -1.4233
 6226SOL    HW219425   3.553   3.134   4.235  0.4962 -0.9269 -0.7795
 6227SOL     OW19426   4.995   3.763   1.142  0.4490  0.4366  0.0670
 6227SOL    HW119427   5.041   3.681   1.125  0.9998  0.7355  0.1135
 6227SOL    HW219428   4.950   3.747   1.226  0.1445  0.0122 -0.1710
 6228SOL     OW19429   2.252   5.884   4.559 -0.0074 -0.2740 -0.5720
 6228SOL    HW119430   2.334   5.928   4.537 -1.5424  1.4253 -3.6169
 6228SOL    HW219431   2.217   5.932   4.634 -0.1847  1.8371 -1.9342
 6229SOL     OW19432   4.554   2.457   5.377  0.2577  0.0854  0.2106
 6229SOL    HW119433   4.468   2.417   5.377  0.3243 -0.0671 -0.2072
 6229SOL    HW219434   4.563   2.496   5.464 -0.6795  1.0709 -0.1072
 6230SOL     OW19435   3.670   4.337   6.000  0.2664 -0.3992 -0.1995
 6230SOL    HW119436   3.707   4.272   5.940 -0.7954 -0.7176 -0.5475
 6230SOL    HW219437   3.634   4.284   6.072 -0.1633 -0.1647 -0.2391
 6231SOL     OW19438   1.346   1.285   6.134 -0.3840 -0.6933 -0.8361
 6231SOL    HW119439   1.376   1.311   6.221 -1.2324  2.4838 -1.3760
 6231SOL    HW219440   1.422   1.242   6.094  1.6212  1.9659 -0.1262
 6232SOL     OW19441   1.377   0.409   0.526  0.7330  0.0036  0.4893
 6232SOL    HW119442   1.362   0.328   0.478 -0.2704  0.8991 -0.7890
 6232SOL    HW219443   1.464   0.398   0.564  2.3864 -0.1478 -2.9578
 6233SOL     OW19444   3.740   0.447   0.307 -0.3502  0.0424  0.4640
 6233SOL    HW119445   3.821   0.441   0.257 -0.9146 -0.6164 -0.4094
 6233SOL    HW219446   3.672   0.465   0.242 -0.9554  0.2579  1.1335
 6234SOL     OW19447   1.443   1.899   4.282  0.1901 -0.3495 -0.1154
 6234SOL    HW119448   1.440   1.862   4.370 -1.1201  0.0888  0.0499
 6234SOL    HW219449   1.404   1.832   4.226  1.0381 -0.6352 -0.3817
 6235SOL     OW19450   2.376   3.993   0.905  0.7239 -0.1116 -0.5983
 6235SOL    HW119451   2.368   4.088   0.905 -1.2867 -0.2379 -0.2548
 6235SOL    HW219452   2.470   3.977   0.901  1.1024  1.8764 -0.7839
 6236SOL     OW19453   0.970   3.761   3.089  0.2248  0.2167  0.2434
 6236SOL    HW119454   0.889   3.798   3.055  0.0671 -0.3007  0.0333
 6236SOL    HW219455   1.004   3.708   3.016  0.5598  0.1389  0.4525
 6237SOL     OW19456   1.949   1.068   4.622 -0.1527 -0.1412  0.2437
 6237SOL    HW119457   1.854   1.077   4.621 -0.1076  0.7962  1.7782
 6237SOL    HW219458   1.979   1.114   4.543 -1.0139 -1.6408 -1.0300
 6238SOL     OW19459   1.915   2.912   1.764 -0.3140  0.3140 -0.0540
 6238SOL    HW119460   1.940   2.901   1.856  0.9024 -0.6729 -0.4812
 6238SOL    HW219461   1.897   3.006   1.756  0.8058  0.6387  0.9056
 6239SOL     OW19462   0.032   0.969   2.451 -0.1393  0.6470 -0.3052
 6239SOL    HW119463  -0.052   1.009   2.474 -0.3730  0.1993 -0.3600
 6239SOL    HW219464   0.053   1.004   2.365 -0.1474  0.9542 -0.1822
 6240SOL     OW19465   6.105   5.199   1.225  0.3824  0.1438  0.2959
 6240SOL    HW119466   6.076   5.173   1.312  1.5040  1.4116  1.0943
 6240SOL    HW219467   6.195   5.167   1.220  0.1758 -0.3223 -0.5860
 6241SOL     OW19468   2.699   1.292   1.354 -0.7576  0.1772 -0.5496
 6241SOL    HW119469   2.639   1.217   1.350 -0.1074 -0.2960 -2.1046
 6241SOL    HW219470   2.786   1.253   1.359 -0.4998  0.8575  0.6467
 6242SOL     OW19471   3.837   3.237   4.346  0.2391 -0.3396 -0.3138
 6242SOL    HW119472   3.860   3.294   4.272  1.8949 -0.7894 -0.1888
 6242SOL    HW219473   3.743   3.250   4.358  0.0567  0.2581 -2.0611
 6243SOL     OW19474   3.189   3.794   2.980  0.0203  0.0742  0.0020
 6243SOL    HW119475   3.100   3.783   2.946 -0.1428  1.1869  0.0348
 6243SOL    HW219476   3.242   3.734   2.928 -0.5919  0.1169 -0.6856
 6244SOL     OW19477   3.802   0.783   2.205 -0.0358 -0.1472 -0.1310
 6244SOL    HW119478   3.846   0.865   2.225 -1.7062  0.9316 -0.7151
 6244SOL    HW219479   3.826   0.765   2.114  0.2547 -0.2653 -0.0322
 6245SOL     OW19480   2.281   2.023   5.150  0.5262 -0.0966 -0.0207
 6245SOL    HW119481   2.363   2.049   5.108 -0.2056 -0.4476 -1.7632
 6245SOL    HW219482   2.223   2.097   5.137  0.7373  0.4423  1.8467
 6246SOL     OW19483   1.146   1.625   1.075 -0.1755  0.4471  0.0502
 6246SOL    HW119484   1.094   1.560   1.028  2.0956 -1.3627 -0.0806
 6246SOL    HW219485   1.146   1.701   1.017 -2.0264  0.2762 -0.2596
 6247SOL     OW19486   4.288   4.150   4.637 -0.0262  0.3558  0.3392
 6247SOL    HW119487   4.230   4.078   4.613  1.2616 -0.2146 -1.2058
 6247SOL    HW219488   4.229   4.221   4.662 -1.4255 -0.0318 -1.6156
 6248SOL     OW19489   4.859   4.027   5.421 -0.3250  0.1492 -0.2387
 6248SOL    HW119490   4.885   4.008   5.331 -0.5626  0.2277 -0.3252
 6248SOL    HW219491   4.767   4.051   5.415  0.1652  2.1661 -0.2350
 6249SOL     OW19492   0.108   2.815   3.651  0.7312  0.2333 -0.1733
 6249SOL    HW119493   0.137   2.873   3.581 -0.4074  0.8400 -0.1648
 6249SOL    HW219494   0.013   2.825   3.653  0.6903 -0.1546  1.1181
 6250SOL     OW19495   0.503   0.492   4.607  0.0177 -0.1982  0.1519
 6250SOL    HW119496   0.450   0.515   4.684 -1.3140 -0.9389 -0.5094
 6250SOL    HW219497   0.573   0.557   4.606 -1.0606  1.0330  0.8887
 6251SOL     OW19498   5.637   3.101   4.668  0.0611 -0.0710 -0.0894
 6251SOL    HW119499   5.625   3.126   4.760 -1.1987 -2.6142  0.5222
 6251SOL    HW219500   5.728   3.070   4.664  0.1494  0.1255  0.2906
 6252SOL     OW19501   2.324   3.500   6.268  0.2320 -0.2239  0.0361
 6252SOL    HW119502   2.413   3.479   6.242  0.4910 -0.5302  1.1223
 6252SOL    HW219503   2.269   3.461   6.200  0.9347  0.8326 -1.2069
 6253SOL     OW19504   1.809   5.206   0.972 -0.1329  0.4670 -0.2932
 6253SOL    HW119505   1.842   5.295   0.982 -1.7878  1.1131 -0.2431
 6253SOL    HW219506   1.728   5.204   1.023 -0.8074 -0.6581 -1.3331
 6254SOL     OW19507   0.932   4.564   4.782  0.1354  0.6054  0.0562
 6254SOL    HW119508   0.897   4.568   4.693 -0.6503  0.0558  0.3290
 6254SOL    HW219509   0.893   4.485   4.820  1.6234 -0.0094  0.4062
 6255SOL     OW19510   3.713   2.227   3.872 -0.1619 -0.1233 -0.5228
 6255SOL    HW119511   3.707   2.155   3.935 -3.3862  1.9623  1.9343
 6255SOL    HW219512   3.793   2.274   3.897  1.2259 -1.9980 -1.2655
 6256SOL     OW19513   3.150   5.755   5.083  0.3021  0.5046  0.6307
 6256SOL    HW119514   3.197   5.688   5.034 -0.7089 -0.5779  1.0960
 6256SOL    HW219515   3.175   5.837   5.040  1.1602 -0.2003 -0.2807
 6257SOL     OW19516   2.725   1.840   3.661 -0.2833 -0.4399 -0.0763
 6257SOL    HW119517   2.779   1.762   3.644  1.2051  0.6141 -0.4520
 6257SOL    HW219518   2.726   1.887   3.577 -2.5501 -0.7850 -0.3585
 6258SOL     OW19519   1.498   4.525   1.339 -0.2858  0.5566  0.2421
 6258SOL    HW119520   1.458   4.480   1.265  1.4387 -0.0654 -0.3586
 6258SOL    HW219521   1.544   4.456   1.387 -0.5707  1.1121  1.3673
 6259SOL     OW19522   2.216   2.385   0.995 -0.3158  0.4797 -0.0298
 6259SOL    HW119523   2.276   2.430   0.936 -1.0289 -0.3051 -1.3934
 6259SOL    HW219524   2.239   2.418   1.082  1.4656  0.8894 -0.6127
 6260SOL     OW19525   5.287   1.949   0.321  0.3569 -0.0346 -0.1982
 6260SOL    HW119526   5.302   2.016   0.388  0.4394  1.5535 -1.7392
 6260SOL    HW219527   5.192   1.948   0.309  0.5571  2.5620 -2.7818
 6261SOL     OW19528   4.168   5.144   3.273  0.6798  0.2435 -0.8047
 6261SOL    HW119529   4.156   5.049   3.266  1.3183  0.0304  0.7095
 6261SOL    HW219530   4.176   5.173   3.182  0.9107 -1.2105 -1.2851
 6262SOL     OW19531   3.469   6.298   1.450 -0.2174 -0.1858 -0.6518
 6262SOL    HW119532   3.392   6.253   1.483 -2.0280  2.0846 -1.5394
 6262SOL    HW219533   3.493   6.250   1.370 -1.3023 -0.3310 -0.9012
 6263SOL     OW19534   1.434   2.651   5.475  0.6621  0.0755  0.4896
 6263SOL    HW119535   1.518   2.627   5.436 -0.0478  0.9554 -1.7583
 6263SOL    HW219536   1.442   2.745   5.493  0.4808 -0.0409  1.2129
 6264SOL     OW19537   0.203   1.735   1.407 -0.0700  0.1476  0.1721
 6264SOL    HW119538   0.181   1.822   1.374  0.0300  0.3129  0.5327
 6264SOL    HW219539   0.199   1.678   1.330  1.2403  0.7214 -0.3574
 6265SOL     OW19540   5.708   4.778   1.896 -0.6648  0.0010 -0.1575
 6265SOL    HW119541   5.732   4.776   1.988  0.6959 -0.4153 -0.5017
 6265SOL    HW219542   5.750   4.857   1.862  4.1092 -2.7537 -1.6827
 6266SOL     OW19543   2.491   5.948   6.184  0.5301  0.7648  0.0011
 6266SOL    HW119544   2.422   6.013   6.173 -0.9546 -0.6745  0.3566
 6266SOL    HW219545   2.505   5.913   6.096  1.2781  1.4925 -0.1781
 6267SOL     OW19546   5.915   2.484   0.116  0.4181 -0.7062  0.5822
 6267SOL    HW119547   5.997   2.505   0.161  1.0005 -0.5064 -0.5516
 6267SOL    HW219548   5.935   2.494   0.023 -1.2107  0.4821  0.3289
 6268SOL     OW19549   6.136   3.586   4.187 -0.3101  0.1516 -0.5431
 6268SOL    HW119550   6.064   3.527   4.209  0.4742 -1.3014 -1.7278
 6268SOL    HW219551   6.122   3.609   4.095 -0.5899  1.8593 -0.1161
 6269SOL     OW19552   2.694   5.147   4.184 -0.2627  0.3034  0.5208
 6269SOL    HW119553   2.742   5.215   4.137  2.8996 -0.9955  1.5992
 6269SOL    HW219554   2.659   5.191   4.262 -0.0968  1.1273  0.1352
 6270SOL     OW19555   3.681   2.656   5.796 -0.1199  0.4580  0.4687
 6270SOL    HW119556   3.672   2.662   5.891  2.3981  0.9728  0.7498
 6270SOL    HW219557   3.724   2.738   5.771 -0.1369  0.0404 -1.0151
 6271SOL     OW19558   1.040   0.669   2.751  0.5473 -0.3434  0.3683
 6271SOL    HW119559   1.087   0.712   2.823 -0.2702  2.5086 -0.6881
 6271SOL    HW219560   1.100   0.673   2.677 -0.5918  1.6759 -0.5018
 6272SOL     OW19561   3.662   5.432   0.233  0.0765 -0.4002  0.2852
 6272SOL    HW119562   3.706   5.514   0.213  0.1164  0.4914  3.4977
 6272SOL    HW219563   3.582   5.434   0.181 -0.1462  1.9123  0.6249
 6273SOL     OW19564   4.741   1.550   1.207  0.0582  0.2771 -0.3562
 6273SOL    HW119565   4.670   1.606   1.237 -1.5681 -1.6771 -0.3836
 6273SOL    HW219566   4.727   1.543   1.112  1.1449  0.9561 -0.5942
 6274SOL     OW19567   5.872   0.480   4.369 -0.0258  0.5010  0.2531
 6274SOL    HW119568   5.804   0.526   4.320  1.1174  1.2646 -0.6914
 6274SOL    HW219569   5.863   0.513   4.459 -1.7115 -0.3980  0.4502
 6275SOL     OW19570   5.499   3.625   5.945 -0.3081 -0.9023 -0.5408
 6275SOL    HW119571   5.448   3.611   5.866  1.6158 -1.8327 -1.6916
 6275SOL    HW219572   5.485   3.547   5.998  0.3071 -1.4021 -1.0989
 6276SOL     OW19573   6.155   5.678   3.855  0.3120  0.5926  0.3612
 6276SOL    HW119574   6.229   5.649   3.802  0.3382  2.2530 -0.5695
 6276SOL    HW219575   6.178   5.651   3.944  0.6619 -1.4818 -0.2928
 6277SOL     OW19576   5.643   3.247   5.594  0.3228 -0.4104  0.5901
 6277SOL    HW119577   5.700   3.324   5.590 -0.7429  0.5069  1.8566
 6277SOL    HW219578   5.649   3.218   5.685 -0.9786 -0.4653  0.6817
 6278SOL     OW19579   2.063   5.835   1.751 -0.1622  0.0290 -0.0596
 6278SOL    HW119580   2.123   5.790   1.812  0.4717  0.4058 -0.4035
 6278SOL    HW219581   1.977   5.823   1.791  0.3017  0.8196  1.2712
 6279SOL     OW19582   1.180   4.108   2.642  0.1596 -0.5418  0.0531
 6279SOL    HW119583   1.221   4.193   2.659 -0.6346  0.1008 -1.1152
 6279SOL    HW219584   1.163   4.107   2.548 -0.7043 -1.6102  0.1904
 6280SOL     OW19585   0.851   5.984   5.481  0.3665 -0.3216 -0.1463
 6280SOL    HW119586   0.937   6.016   5.455 -0.0074  0.1502 -0.8535
 6280SOL    HW219587   0.791   6.055   5.457  0.0986  0.9217  3.4466
 6281SOL     OW19588   2.382   2.423   4.836 -0.1817  0.3955 -0.8623
 6281SOL    HW119589   2.438   2.387   4.767 -1.0813 -0.9484 -0.9215
 6281SOL    HW219590   2.418   2.388   4.917  0.4744  1.4495 -0.6737
 6282SOL     OW19591   2.327   3.852   3.160  0.1295 -0.1248  0.6408
 6282SOL    HW119592   2.271   3.796   3.107 -0.8306  1.9170 -0.5963
 6282SOL    HW219593   2.407   3.862   3.108 -0.3269  0.9027  0.1299
 6283SOL     OW19594   5.508   5.330   3.867 -1.0529  0.3782 -0.2179
 6283SOL    HW119595   5.543   5.293   3.948 -1.8175 -0.3888 -0.2154
 6283SOL    HW219596   5.557   5.411   3.854  0.1224 -0.2390  0.2185
 6284SOL     OW19597   5.302   1.968   4.060  0.0178 -0.3580  0.4198
 6284SOL    HW119598   5.342   1.898   4.113  0.0993 -0.8373 -0.2637
 6284SOL    HW219599   5.377   2.018   4.027 -0.0522  0.3555  1.2848
 6285SOL     OW19600   3.430   2.587   0.083  0.1359  0.1466  0.4597
 6285SOL    HW119601   3.347   2.612   0.042  0.2773  0.2835  0.2579
 6285SOL    HW219602   3.409   2.508   0.132  0.3354 -1.0217 -1.2370
 6286SOL     OW19603   2.954   5.171   0.925  0.1418  0.5722 -0.1255
 6286SOL    HW119604   2.861   5.185   0.904 -0.2340  1.3977  1.9230
 6286SOL    HW219605   2.953   5.110   0.998  1.3035 -0.2317 -0.7456
 6287SOL     OW19606   1.788   4.787   3.032 -0.1276 -0.1816 -0.1930
 6287SOL    HW119607   1.775   4.882   3.033 -0.8970 -0.1742 -2.8543
 6287SOL    HW219608   1.799   4.766   2.939  0.1884 -2.6971  0.3510
 6288SOL     OW19609   6.221   1.735   3.193 -0.2707 -0.2571 -0.2576
 6288SOL    HW119610   6.248   1.725   3.285 -1.8268  1.4632  0.4572
 6288SOL    HW219611   6.279   1.803   3.158  0.5558 -1.1597 -0.6877
 6289SOL     OW19612   6.180   4.311   4.808 -0.3524  0.0452 -0.2295
 6289SOL    HW119613   6.240   4.261   4.863  2.3006  2.7300 -0.3972
 6289SOL    HW219614   6.114   4.345   4.868 -0.9658 -1.8034  0.2044
 6290SOL     OW19615   0.785   0.937   3.155 -0.0388 -0.6740 -0.6805
 6290SOL    HW119616   0.827   1.011   3.111 -0.4101  0.1573  0.3206
 6290SOL    HW219617   0.722   0.977   3.214  0.3318 -1.7686  0.4986
 6291SOL     OW19618   1.436   4.478   6.151  0.3439 -0.1332  0.5187
 6291SOL    HW119619   1.365   4.414   6.156 -0.8272  1.0726 -0.1810
 6291SOL    HW219620   1.508   4.430   6.108 -0.3087 -1.1321  0.5072
 6292SOL     OW19621   3.141   4.994   2.858 -0.2293 -0.5101 -0.5647
 6292SOL    HW119622   3.159   4.940   2.780  1.5196 -2.2115  0.9026
 6292SOL    HW219623   3.132   4.930   2.929  0.7157  1.0662  1.0518
 6293SOL     OW19624   2.071   3.493   2.563  0.1051 -0.1281 -0.1660
 6293SOL    HW119625   2.092   3.490   2.470 -3.4690  0.7279 -1.1619
 6293SOL    HW219626   2.155   3.483   2.608  1.6785 -3.8101 -3.3671
 6294SOL     OW19627   0.722   4.539   5.420 -0.2288  0.0446  0.3719
 6294SOL    HW119628   0.650   4.580   5.371  0.5405  1.5557  0.4269
 6294SOL    HW219629   0.778   4.613   5.445  0.3700 -0.8955  1.9331
 6295SOL     OW19630   1.302   2.639   1.938  0.1973  0.8253  0.0341
 6295SOL    HW119631   1.379   2.695   1.949  0.0480  1.0945 -0.2413
 6295SOL    HW219632   1.229   2.694   1.969  0.0461  0.7961 -0.2685
 6296SOL     OW19633   4.408   1.912   5.049  0.5068  0.7318 -0.3406
 6296SOL    HW119634   4.402   1.971   4.974  0.6850  1.1770 -0.0072
 6296SOL    HW219635   4.480   1.853   5.027 -0.5327 -0.2435 -1.2836
 6297SOL     OW19636   0.762   2.585   4.098 -0.0955  0.2004  0.3569
 6297SOL    HW119637   0.828   2.536   4.049 -0.9267 -0.0201 -0.5667
 6297SOL    HW219638   0.684   2.529   4.095 -0.3197  0.4322  1.4743
 6298SOL     OW19639   1.199   0.986   2.434 -0.3482 -0.1365 -0.0934
 6298SOL    HW119640   1.257   1.055   2.402 -0.9178 -0.3862 -1.7556
 6298SOL    HW219641   1.173   1.015   2.522  2.9814 -0.4722  1.1293
 6299SOL     OW19642   3.445   4.968   5.653  0.7489 -0.7980  0.2527
 6299SOL    HW119643   3.497   4.964   5.733  0.2538 -1.2224  0.5547
 6299SOL    HW219644   3.408   5.057   5.653  1.0652 -0.6653  0.2922
 6300SOL     OW19645   5.301   5.182   5.758  0.4092 -0.2948 -0.4209
 6300SOL    HW119646   5.296   5.125   5.834 -0.1506  1.1230  0.6554
 6300SOL    HW219647   5.215   5.224   5.754  0.8640  0.6242 -1.0356
 6301SOL     OW19648   4.663   0.350   2.228 -0.0437  0.0914  0.0272
 6301SOL    HW119649   4.572   0.346   2.201  0.3779  0.3748 -1.5470
 6301SOL    HW219650   4.695   0.260   2.219  0.2998  0.3218 -1.2594
 6302SOL     OW19651   2.537   0.444   5.104 -0.2843 -0.0238  0.2877
 6302SOL    HW119652   2.523   0.526   5.056 -0.5154 -0.9649 -1.3311
 6302SOL    HW219653   2.506   0.463   5.192 -1.9142  1.1468 -0.4701
 6303SOL     OW19654   0.537   3.549   5.883 -0.3275  0.2996 -0.3926
 6303SOL    HW119655   0.596   3.499   5.938 -1.0924 -0.9423 -0.6790
 6303SOL    HW219656   0.592   3.579   5.810 -0.1275 -1.2742 -0.9271
 6304SOL     OW19657   3.262   0.937   3.322  0.6409  0.1978 -0.4483
 6304SOL    HW119658   3.259   0.863   3.262  1.0408  0.6801 -1.0767
 6304SOL    HW219659   3.269   0.897   3.409 -0.6586 -0.5194 -0.6490
 6305SOL     OW19660   3.097   4.464   4.684 -1.0146  0.2521  0.6334
 6305SOL    HW119661   3.191   4.449   4.675 -0.8481  2.0775 -1.6103
 6305SOL    HW219662   3.058   4.376   4.686  0.7550 -0.5476  2.6130
 6306SOL     OW19663   4.941   5.407   1.009 -0.8915  0.0594 -0.2828
 6306SOL    HW119664   4.887   5.478   1.044  0.1498  0.5145  0.4584
 6306SOL    HW219665   5.022   5.450   0.981 -0.3979 -0.7891 -0.1834
 6307SOL     OW19666   1.721   2.081   2.250  0.4097  0.2017 -0.0335
 6307SOL    HW119667   1.757   1.994   2.235  0.0890 -0.3175  1.9808
 6307SOL    HW219668   1.796   2.135   2.274  0.4480  0.2294 -0.2092
 6308SOL     OW19669   3.164   2.785   2.801  0.7482  0.8480 -0.6157
 6308SOL    HW119670   3.227   2.732   2.752  0.7380  0.9626 -0.7550
 6308SOL    HW219671   3.216   2.827   2.869  0.3943 -1.0531  0.9193
 6309SOL     OW19672   3.763   4.733   0.024 -0.0074  0.2019  0.3319
 6309SOL    HW119673   3.775   4.690  -0.061 -2.4279 -2.1714  1.0370
 6309SOL    HW219674   3.692   4.796   0.009 -0.8794 -0.6731  0.6846
 6310SOL     OW19675   1.536   1.394   2.586  0.9590 -0.5475  0.1749
 6310SOL    HW119676   1.529   1.434   2.673  1.7791 -0.4604  0.2085
 6310SOL    HW219677   1.446   1.381   2.558  0.5282  3.1631 -0.6794
 6311SOL     OW19678   0.938   1.971   5.189 -0.1967  0.5660  0.5317
 6311SOL    HW119679   1.009   1.907   5.180 -0.6043  0.2066 -0.2491
 6311SOL    HW219680   0.975   2.040   5.245  0.3814 -0.1523  1.0585
 6312SOL     OW19681   4.096   1.083   5.615  0.2273  0.3596 -0.4526
 6312SOL    HW119682   4.123   1.018   5.551 -0.8922 -0.8227  0.2235
 6312SOL    HW219683   4.068   1.158   5.563 -1.1960 -0.7846 -1.4177
 6313SOL     OW19684   4.952   0.112   5.101 -0.3815  0.1154 -0.5615
 6313SOL    HW119685   4.931   0.134   5.010 -3.1326  0.7024  0.1094
 6313SOL    HW219686   4.986   0.023   5.097  1.1899  0.7227 -2.2965
 6314SOL     OW19687   1.365   4.452   4.552  0.4035  0.3426  0.6231
 6314SOL    HW119688   1.336   4.539   4.522 -0.0784  0.8115  2.3316
 6314SOL    HW219689   1.284   4.402   4.561  0.5786  0.0639  0.6514
 6315SOL     OW19690   2.120   2.983   3.468 -0.1956 -0.1103 -0.1823
 6315SOL    HW119691   2.067   2.905   3.452  0.9347 -0.5229 -2.3078
 6315SOL    HW219692   2.210   2.953   3.461  0.2793  1.5656 -2.4556
 6316SOL     OW19693   0.513   1.253   5.429  0.3364  0.1021 -0.0606
 6316SOL    HW119694   0.418   1.248   5.437  0.2961 -0.5900 -0.8449
 6316SOL    HW219695   0.540   1.164   5.405  1.2476  0.1316  0.7681
 6317SOL     OW19696   2.454   2.816   5.229 -0.2305 -0.3038 -0.5043
 6317SOL    HW119697   2.421   2.796   5.141  0.5892  0.6952 -1.0621
 6317SOL    HW219698   2.488   2.905   5.222  0.6776 -0.5437  0.5962
 6318SOL     OW19699   0.234   3.922   4.324  0.3411  0.0041 -0.1055
 6318SOL    HW119700   0.212   3.874   4.244  0.3591 -0.0756 -0.0616
 6318SOL    HW219701   0.196   3.870   4.395 -2.3600  1.5572 -0.2472
 6319SOL     OW19702   0.674   6.085   4.363 -0.0829  0.4833 -0.2598
 6319SOL    HW119703   0.765   6.090   4.333 -0.3712  0.8070 -1.1077
 6319SOL    HW219704   0.672   6.007   4.419  0.9093  0.9679  0.4840
 6320SOL     OW19705   4.162   0.766   5.285 -0.0498  0.1925 -0.5384
 6320SOL    HW119706   4.239   0.766   5.228  0.6275 -0.4328  0.3494
 6320SOL    HW219707   4.170   0.846   5.338 -0.0849  0.2009 -0.5458
 6321SOL     OW19708   0.657   3.254   3.122  0.1906  0.0315  0.1858
 6321SOL    HW119709   0.729   3.315   3.135  0.1249  0.1654 -0.0613
 6321SOL    HW219710   0.585   3.308   3.089  0.3221 -0.2712 -0.6172
 6322SOL     OW19711   2.454   1.821   0.884  0.3136  0.2449 -0.0322
 6322SOL    HW119712   2.509   1.742   0.882  0.0387  0.0077  0.9404
 6322SOL    HW219713   2.432   1.831   0.977 -2.6532 -0.6118 -0.5373
 6323SOL     OW19714   5.422   1.001   4.773 -0.5992 -0.0124 -0.2018
 6323SOL    HW119715   5.389   1.016   4.685 -1.0519 -1.5229 -0.3233
 6323SOL    HW219716   5.509   1.040   4.774  0.1725 -1.5526 -1.9138
 6324SOL     OW19717   2.168   5.561   1.157 -0.3795 -0.1673  0.3522
 6324SOL    HW119718   2.190   5.531   1.069 -0.8606  0.3106  0.0670
 6324SOL    HW219719   2.229   5.513   1.214 -0.5858 -1.0668 -0.1602
 6325SOL     OW19720   6.288   5.346   2.395  0.2035  0.1795 -0.4648
 6325SOL    HW119721   6.262   5.336   2.303  1.6059  1.5418 -1.0491
 6325SOL    HW219722   6.263   5.436   2.418  1.2961  0.3895 -0.0262
 6326SOL     OW19723   6.215   3.107   4.663  0.5614  0.1058 -0.0258
 6326SOL    HW119724   6.237   3.027   4.615  1.2638  0.4341 -0.2726
 6326SOL    HW219725   6.253   3.178   4.610  1.3313  0.4749  0.9824
 6327SOL     OW19726   5.393   3.901   2.872  0.2302 -0.3050  0.0815
 6327SOL    HW119727   5.381   3.822   2.925  1.4249  0.2074  1.1506
 6327SOL    HW219728   5.486   3.921   2.879  0.0124  0.9897 -0.5047
 6328SOL     OW19729   5.816   2.684   1.689 -0.4203  0.3982 -0.1669
 6328SOL    HW119730   5.884   2.670   1.623  0.2909 -0.3700  0.6759
 6328SOL    HW219731   5.856   2.743   1.752 -2.0356  3.3233 -1.6962
 6329SOL     OW19732   3.433   2.367   1.674 -0.2292 -0.2985  0.1150
 6329SOL    HW119733   3.500   2.350   1.608 -2.0888  0.5253 -2.1237
 6329SOL    HW219734   3.357   2.317   1.644 -1.0051 -0.3019  1.9497
 6330SOL     OW19735   2.172   2.589   0.308 -0.0374 -0.3357 -0.1052
 6330SOL    HW119736   2.127   2.580   0.224 -2.5113  0.3214  1.0593
 6330SOL    HW219737   2.224   2.669   0.298  0.3531 -0.7079 -1.2592
 6331SOL     OW19738   6.143   0.533   4.372  0.4747 -0.5657 -0.2595
 6331SOL    HW119739   6.141   0.543   4.467 -0.8626 -0.0804 -0.3172
 6331SOL    HW219740   6.052   0.515   4.348  0.5582  0.5854 -1.5668
 6332SOL     OW19741   4.315   2.501   4.728 -0.2681 -0.1758  0.0474
 6332SOL    HW119742   4.378   2.572   4.715 -1.0673  0.3754 -0.9517
 6332SOL    HW219743   4.255   2.508   4.654  0.0584 -2.3646 -0.4927
 6333SOL     OW19744   3.232   2.029   2.376 -0.3640  0.1970  0.4301
 6333SOL    HW119745   3.193   1.972   2.310  0.3174  0.1922  0.0325
 6333SOL    HW219746   3.156   2.069   2.419 -0.8143  0.2965 -0.4278
 6334SOL     OW19747   5.199   4.442   5.279 -0.1106 -0.3421 -0.1372
 6334SOL    HW119748   5.175   4.494   5.356 -2.7800  2.2290 -2.4828
 6334SOL    HW219749   5.162   4.356   5.296 -0.2142  0.0184  1.6627
 6335SOL     OW19750   6.036   3.755   6.062 -0.4034 -0.0578  0.1398
 6335SOL    HW119751   6.011   3.762   5.970 -1.0126 -0.1127  0.2933
 6335SOL    HW219752   6.010   3.666   6.087 -2.8825  0.8324  1.0934
 6336SOL     OW19753   4.908   4.498   0.363  0.5099  0.0855  0.0543
 6336SOL    HW119754   4.819   4.499   0.329 -0.0814  0.5166  1.5100
 6336SOL    HW219755   4.964   4.499   0.286 -0.7332 -1.2944 -0.9291
 6337SOL     OW19756   5.829   2.246   5.695  0.1099  0.2659  0.2280
 6337SOL    HW119757   5.850   2.210   5.782  0.3991  0.7687  0.3681
 6337SOL    HW219758   5.914   2.270   5.658  0.6651 -4.2397 -2.1675
 6338SOL     OW19759   4.492   0.410   5.311  0.1264  0.1361  0.2445
 6338SOL    HW119760   4.418   0.449   5.358 -1.9802 -1.6379 -1.3646
 6338SOL    HW219761   4.522   0.478   5.251 -1.0404  0.4987  0.0461
 6339SOL     OW19762   0.619   0.934   0.754  0.1841  0.0562 -0.2445
 6339SOL    HW119763   0.710   0.907   0.767  0.0749 -2.0371 -2.8967
 6339SOL    HW219764   0.568   0.854   0.765 -1.2428  0.9842  0.1321
 6340SOL     OW19765   4.736   0.697   1.820 -0.5627  0.6148  0.4576
 6340SOL    HW119766   4.751   0.748   1.740  0.8912  0.5768  0.6861
 6340SOL    HW219767   4.646   0.665   1.811 -0.1535 -0.1033 -1.5747
 6341SOL     OW19768   0.739   5.149   2.149 -0.2798 -0.3654  0.4066
 6341SOL    HW119769   0.756   5.171   2.057  0.6607  1.7920  1.0374
 6341SOL    HW219770   0.749   5.231   2.196 -2.5364 -1.0319  2.2592
 6342SOL     OW19771   1.166   4.002   2.097  0.1476  0.2121  0.1451
 6342SOL    HW119772   1.155   3.907   2.103 -0.9106  0.2816 -0.4268
 6342SOL    HW219773   1.168   4.020   2.003  1.8646  0.6178  0.2209
 6343SOL     OW19774   5.616   1.657   5.604 -0.0070  0.1989 -0.2106
 6343SOL    HW119775   5.547   1.602   5.640  0.9707 -2.7406 -2.4427
 6343SOL    HW219776   5.573   1.706   5.533 -0.1581 -0.3259 -0.4821
 6344SOL     OW19777   2.361   1.546   3.295 -0.2332 -0.1326  0.2692
 6344SOL    HW119778   2.385   1.598   3.218  1.9898  0.4590  1.2857
 6344SOL    HW219779   2.337   1.461   3.259  0.1280  0.3144 -1.1124
 6345SOL     OW19780   2.305   1.150   5.152  0.3384  0.2973  0.5391
 6345SOL    HW119781   2.234   1.145   5.216  0.1572  0.3760  0.3461
 6345SOL    HW219782   2.277   1.217   5.090 -0.6571 -1.4595 -1.0174
 6346SOL     OW19783   4.194   5.240   1.693 -0.2645  0.1583  0.3310
 6346SOL    HW119784   4.173   5.235   1.786 -0.8910 -0.1108  0.1778
 6346SOL    HW219785   4.192   5.149   1.662 -0.5964  0.2942 -0.0609
 6347SOL     OW19786   2.801   0.852   4.420 -0.0301  0.1638  0.7229
 6347SOL    HW119787   2.714   0.838   4.456 -0.4810 -0.5773 -0.5519
 6347SOL    HW219788   2.840   0.919   4.475 -1.1934  0.0998  1.6657
 6348SOL     OW19789   5.496   5.752   1.700  0.0216 -0.3072 -0.8464
 6348SOL    HW119790   5.536   5.751   1.613 -1.7678  0.6400 -1.7284
 6348SOL    HW219791   5.492   5.845   1.723  0.1613 -0.5310  0.1159
 6349SOL     OW19792   6.195   6.293   2.229 -0.3680 -0.3987  0.4499
 6349SOL    HW119793   6.126   6.228   2.235 -3.5071  2.6755  1.3524
 6349SOL    HW219794   6.196   6.335   2.315  2.2796  0.0980  0.2649
 6350SOL     OW19795   3.025   6.239   3.154  0.2847 -0.0073 -0.3516
 6350SOL    HW119796   3.003   6.307   3.090 -1.9537  1.1754  1.5363
 6350SOL    HW219797   3.073   6.284   3.222 -1.1342 -0.2631  0.8714
 6351SOL     OW19798   5.180   3.819   3.794  0.2386 -0.2012  0.2112
 6351SOL    HW119799   5.163   3.749   3.732  1.0432  0.9579 -1.3840
 6351SOL    HW219800   5.210   3.774   3.873 -0.6980 -1.7029 -0.2416
 6352SOL     OW19801   1.799   5.663   2.757 -0.2226 -0.3720  0.1736
 6352SOL    HW119802   1.843   5.680   2.674 -1.4871  2.0160 -0.0935
 6352SOL    HW219803   1.822   5.572   2.778  1.2082 -0.6188 -2.0874
 6353SOL     OW19804   4.726   4.512   1.810  0.1300 -0.0122 -0.0523
 6353SOL    HW119805   4.814   4.475   1.803 -0.4253 -1.2417 -0.7088
 6353SOL    HW219806   4.704   4.537   1.721 -0.2102  0.2638  0.1090
 6354SOL     OW19807   4.812   5.561   3.597 -0.0712 -0.6688  0.0138
 6354SOL    HW119808   4.851   5.552   3.510  0.6149 -1.1808  0.3612
 6354SOL    HW219809   4.861   5.632   3.638 -0.0700 -0.7452  0.1451
 6355SOL     OW19810   2.623   0.384   2.276 -0.5042  0.1099 -0.1824
 6355SOL    HW119811   2.532   0.373   2.251 -0.5957 -0.3006  0.3071
 6355SOL    HW219812   2.674   0.346   2.205 -0.6816  1.0347 -0.8294
 6356SOL     OW19813   0.083   4.231   2.042  1.4142  0.6287  0.4645
 6356SOL    HW119814   0.090   4.323   2.069  0.8067  0.5834  0.7947
 6356SOL    HW219815   0.041   4.235   1.956  0.4628  0.6179  0.9156
 6357SOL     OW19816   0.471   1.886   4.295  0.4501  0.1381 -0.2412
 6357SOL    HW119817   0.463   1.793   4.316  0.0743  0.5041  1.4136
 6357SOL    HW219818   0.506   1.888   4.206 -1.7597 -1.5771 -1.2430
 6358SOL     OW19819   5.797   3.128   4.318 -0.2956 -0.5575 -0.1988
 6358SOL    HW119820   5.702   3.140   4.319 -0.2214  0.0290 -0.3161
 6358SOL    HW219821   5.817   3.091   4.404 -0.2753  2.0621  1.0156
 6359SOL     OW19822   1.972   3.933   5.426  0.1453  0.0155  0.1423
 6359SOL    HW119823   1.908   3.887   5.371  1.1533 -1.3430  0.0503
 6359SOL    HW219824   1.936   4.021   5.436 -1.5105 -0.5646 -0.2844
 6360SOL     OW19825   1.655   4.133   5.862 -0.1566  0.8954 -0.3709
 6360SOL    HW119826   1.648   4.086   5.779 -1.9689  1.1203 -0.3880
 6360SOL    HW219827   1.689   4.068   5.923  0.4473  0.5041 -1.1133
 6361SOL     OW19828   5.763   2.885   5.025 -0.1967 -0.1089  0.1550
 6361SOL    HW119829   5.682   2.865   4.977  0.3753 -2.2701 -0.0041
 6361SOL    HW219830   5.800   2.961   4.980 -1.3109 -0.0960 -0.7837
 6362SOL     OW19831   3.858   5.159   3.379  0.1189  0.4016 -0.2100
 6362SOL    HW119832   3.826   5.244   3.349 -0.1060  0.3872 -0.0187
 6362SOL    HW219833   3.953   5.164   3.368  0.2875  1.2732  1.2445
 6363SOL     OW19834   3.553   3.846   5.162  0.3846 -0.1879 -0.3122
 6363SOL    HW119835   3.559   3.897   5.081  0.8578 -0.4823 -0.4645
 6363SOL    HW219836   3.528   3.910   5.229 -1.6633 -0.2230 -0.9784
 6364SOL     OW19837   2.443   1.938   3.439  0.0223  0.3371 -0.0334
 6364SOL    HW119838   2.438   2.030   3.413  0.4126  0.4579  0.3033
 6364SOL    HW219839   2.536   1.917   3.433 -0.2526 -0.5303 -1.7569
 6365SOL     OW19840   3.114   0.732   0.689  0.1017  0.5619 -0.3784
 6365SOL    HW119841   3.115   0.703   0.598 -0.1727  0.4350 -0.3423
 6365SOL    HW219842   3.080   0.657   0.738  2.6549 -0.3384  0.1764
 6366SOL     OW19843   4.956   2.915   3.532  0.4261  0.0052  0.4562
 6366SOL    HW119844   5.025   2.859   3.569 -0.0903 -0.7635  0.2856
 6366SOL    HW219845   4.891   2.922   3.602 -1.2304 -2.5990 -0.6437
 6367SOL     OW19846   2.970   5.682   1.282  0.5117 -0.2968 -0.0642
 6367SOL    HW119847   2.930   5.636   1.209  0.4325  0.8597 -0.7729
 6367SOL    HW219848   2.953   5.775   1.264 -0.0172 -0.0141  1.7179
 6368SOL     OW19849   3.973   0.381   2.847  0.0112 -0.3419  0.0417
 6368SOL    HW119850   3.970   0.391   2.752 -0.9039 -1.8295 -0.1284
 6368SOL    HW219851   3.894   0.330   2.868  0.1526  0.0283  1.6082
 6369SOL     OW19852   0.438   2.799   3.391 -0.5237  0.3872 -0.2915
 6369SOL    HW119853   0.463   2.737   3.460 -0.2384 -0.3521 -1.0477
 6369SOL    HW219854   0.517   2.852   3.378 -0.6970  0.7779  0.2005
 6370SOL     OW19855   1.611   4.735   0.497 -0.6041 -0.1461  0.2915
 6370SOL    HW119856   1.545   4.788   0.452 -0.8629 -3.1600 -3.3894
 6370SOL    HW219857   1.686   4.734   0.438  0.7755 -0.9695  1.9637
 6371SOL     OW19858   1.414   0.650   2.765  0.2564  0.4722  0.2355
 6371SOL    HW119859   1.349   0.704   2.811  0.1457  0.0621  0.5674
 6371SOL    HW219860   1.498   0.691   2.785 -0.0539  3.0308 -2.8744
 6372SOL     OW19861   3.309   4.172   5.638  0.3443 -0.0961  0.0652
 6372SOL    HW119862   3.224   4.212   5.620 -1.1923 -1.9114  2.6086
 6372SOL    HW219863   3.347   4.156   5.552 -0.5331  3.3271 -1.1307
 6373SOL     OW19864   0.449   0.943   1.042  0.1472  0.5081 -0.1864
 6373SOL    HW119865   0.457   0.878   0.973  0.6232 -1.2914  1.4553
 6373SOL    HW219866   0.539   0.962   1.068 -0.0454 -0.7872  1.5969
 6374SOL     OW19867   3.083   4.767   3.004 -0.3704  0.1852  0.1934
 6374SOL    HW119868   3.168   4.725   3.020 -0.0854  0.6912  0.0405
 6374SOL    HW219869   3.050   4.789   3.091 -0.4582 -0.2269  0.2667
 6375SOL     OW19870   5.365   4.317   2.201  0.2284  0.4572  0.2888
 6375SOL    HW119871   5.377   4.383   2.133  0.1901 -0.2007 -0.3717
 6375SOL    HW219872   5.422   4.245   2.175  0.7413  0.4643  1.3304
 6376SOL     OW19873   0.255   5.153   1.357 -0.6789 -0.1611  0.7601
 6376SOL    HW119874   0.226   5.227   1.410  0.5209  1.4418 -0.7384
 6376SOL    HW219875   0.348   5.145   1.375 -0.7269 -1.1266  0.6557
 6377SOL     OW19876   4.047   1.282   1.682 -0.1034  0.2139 -0.6048
 6377SOL    HW119877   3.968   1.325   1.715  0.5823  0.9582  0.1335
 6377SOL    HW219878   4.118   1.322   1.732  0.6801 -0.9361 -0.7596
 6378SOL     OW19879   0.739   3.308   1.912 -0.4471  0.1491  0.4387
 6378SOL    HW119880   0.810   3.371   1.928 -1.2302  0.7722  1.6093
 6378SOL    HW219881   0.752   3.240   1.978 -1.9101  1.1496  1.8168
 6379SOL     OW19882   3.400   2.943   1.362 -0.3358  0.1030  0.5184
 6379SOL    HW119883   3.340   2.870   1.375 -0.1034 -0.2073 -0.0871
 6379SOL    HW219884   3.426   2.969   1.450 -2.3205  1.0734  0.8554
 6380SOL     OW19885   0.486   4.713   0.605 -0.1352 -0.4545  0.9127
 6380SOL    HW119886   0.393   4.717   0.629 -0.7419 -0.0677 -1.2694
 6380SOL    HW219887   0.521   4.798   0.629 -0.2859 -0.6535  1.8841
 6381SOL     OW19888   4.487   5.856   2.761  0.2588 -0.6202 -0.3644
 6381SOL    HW119889   4.519   5.782   2.709  0.1437 -1.5672  0.8545
 6381SOL    HW219890   4.549   5.864   2.833  2.1341  2.5828 -2.0952
 6382SOL     OW19891   2.251   0.593   4.873  0.3797 -0.5347 -0.1686
 6382SOL    HW119892   2.321   0.637   4.920  0.7190 -1.8720  0.6555
 6382SOL    HW219893   2.280   0.590   4.782  1.0900 -0.5003  0.0537
 6383SOL     OW19894   4.069   3.286   4.800 -0.2616 -0.6582 -0.3207
 6383SOL    HW119895   4.086   3.229   4.875 -0.0062 -0.4387 -0.2087
 6383SOL    HW219896   4.030   3.228   4.734  1.2363 -1.2646 -0.7159
 6384SOL     OW19897   1.617   0.987   5.305  0.3051 -0.1896  0.5156
 6384SOL    HW119898   1.629   0.909   5.359  1.3226 -0.9424 -0.7494
 6384SOL    HW219899   1.568   0.956   5.228  0.3266  0.5039  0.2133
 6385SOL     OW19900   2.914   4.182   0.163 -0.4459 -0.1477 -0.3250
 6385SOL    HW119901   2.950   4.153   0.079 -0.6119 -2.5825  0.3531
 6385SOL    HW219902   2.849   4.115   0.186 -2.4889  1.9736  0.4334
 6386SOL     OW19903   2.171   1.474   4.596 -0.6571  0.2733  0.1399
 6386SOL    HW119904   2.163   1.566   4.573 -1.7400  0.7212  2.1123
 6386SOL    HW219905   2.247   1.444   4.547 -0.7214  2.0063 -1.1225
 6387SOL     OW19906   0.714   2.818   2.234  0.4745 -0.4191 -0.7235
 6387SOL    HW119907   0.639   2.878   2.231  1.4527  0.8520 -0.6228
 6387SOL    HW219908   0.770   2.854   2.303  1.6668 -0.7352 -1.5139
 6388SOL     OW19909   2.526   3.692   4.827 -0.0499 -0.0255  0.1585
 6388SOL    HW119910   2.446   3.698   4.879 -0.1941 -4.6076  0.7937
 6388SOL    HW219911   2.496   3.675   4.738  0.2953  2.3445 -0.4832
 6389SOL     OW19912   3.124   4.070   1.890 -0.0806 -0.3357  0.7241
 6389SOL    HW119913   3.149   3.978   1.901  0.4867 -0.2807 -0.0619
 6389SOL    HW219914   3.208   4.117   1.885 -0.2356 -0.2284 -2.7535
 6390SOL     OW19915   2.450   0.105   3.695 -0.0119 -0.2520  0.3000
 6390SOL    HW119916   2.364   0.074   3.667  0.3427  1.0960 -2.6826
 6390SOL    HW219917   2.437   0.196   3.721  0.6142  0.2534 -1.0643
 6391SOL     OW19918   2.080   0.403   5.254 -0.2415 -0.0074 -0.5831
 6391SOL    HW119919   2.076   0.476   5.315  0.2263  0.2080 -0.8104
 6391SOL    HW219920   2.065   0.442   5.168  1.3978  0.0568 -0.8775
 6392SOL     OW19921   5.835   4.237   3.397 -0.7108 -0.5542  0.2653
 6392SOL    HW119922   5.891   4.185   3.340 -0.6725  0.0800 -0.2997
 6392SOL    HW219923   5.750   4.239   3.352 -0.1493  1.6256 -0.8724
 6393SOL     OW19924   0.484   5.426   4.232  0.4686  0.2733  0.6128
 6393SOL    HW119925   0.541   5.362   4.274 -1.5482 -0.9300  1.6897
 6393SOL    HW219926   0.412   5.374   4.195  0.0230  1.7101 -0.6571
 6394SOL     OW19927   3.622   3.861   1.760  0.0770 -0.4731 -0.5792
 6394SOL    HW119928   3.591   3.778   1.798  0.5904 -0.8767 -1.0162
 6394SOL    HW219929   3.671   3.903   1.831  0.1036 -0.7091 -0.4562
 6395SOL     OW19930   1.496   5.346   2.759 -0.0461 -0.0424 -0.0032
 6395SOL    HW119931   1.537   5.261   2.745 -0.7646 -0.1270 -1.8064
 6395SOL    HW219932   1.469   5.345   2.851  2.6707 -0.5270  0.8889
 6396SOL     OW19933   2.077   6.074   0.371 -0.1462  0.0746 -0.4806
 6396SOL    HW119934   2.078   5.987   0.412 -0.5433 -0.3156 -1.2739
 6396SOL    HW219935   2.161   6.080   0.327  0.7497  0.9417  1.2591
 6397SOL     OW19936   4.581   1.204   2.940  0.1128  0.2443  0.3118
 6397SOL    HW119937   4.610   1.143   3.007  1.7179  1.2148  0.5755
 6397SOL    HW219938   4.507   1.161   2.897 -0.6123 -0.6096  2.3424
 6398SOL     OW19939   2.758   1.604   6.180 -0.5687  0.3620 -0.8516
 6398SOL    HW119940   2.773   1.524   6.230 -1.3820  0.9449  0.3716
 6398SOL    HW219941   2.670   1.594   6.144 -1.4133  1.3872  0.7586
 6399SOL     OW19942   3.164   2.274   0.951  0.1560  0.0514 -0.8853
 6399SOL    HW119943   3.110   2.352   0.964  0.5572  0.0268  1.3917
 6399SOL    HW219944   3.110   2.215   0.899 -1.8579  0.2248  0.8989
 6400SOL     OW19945   1.668   4.835   4.809  0.6646 -0.4429 -0.2416
 6400SOL    HW119946   1.725   4.761   4.830 -1.1264 -2.0702 -0.7836
 6400SOL    HW219947   1.618   4.806   4.733 -1.2609  0.6538  0.5283
 6401SOL     OW19948   5.637   3.782   2.488  0.0249 -0.1834 -0.5441
 6401SOL    HW119949   5.583   3.716   2.531  0.9126 -1.0949 -0.7866
 6401SOL    HW219950   5.722   3.775   2.530  0.1285  0.8389 -0.5575
 6402SOL     OW19951   5.188   2.025   1.811 -0.2861 -0.1233 -0.3657
 6402SOL    HW119952   5.104   1.978   1.814 -0.2816 -0.1018  1.3444
 6402SOL    HW219953   5.170   2.108   1.855  1.0960 -1.0089  2.0789
 6403SOL     OW19954   2.558   5.453   0.955  0.3353 -0.0168 -0.0437
 6403SOL    HW119955   2.558   5.524   1.018  0.7082  0.0063 -0.0696
 6403SOL    HW219956   2.557   5.496   0.870 -0.2544 -0.0482 -0.0591
 6404SOL     OW19957   3.535   4.608   3.429  0.0206 -0.2600 -0.0062
 6404SOL    HW119958   3.528   4.703   3.433 -2.3803 -0.4091  1.6640
 6404SOL    HW219959   3.491   4.585   3.347  1.3324  0.0661 -0.8310
 6405SOL     OW19960   0.282   1.328   0.522  0.0767  0.6086  0.2001
 6405SOL    HW119961   0.278   1.424   0.511 -0.2939  0.7038  1.0987
 6405SOL    HW219962   0.370   1.305   0.494 -0.4372  0.9511 -1.9096
 6406SOL     OW19963   4.001   0.230   5.987 -0.0611 -0.2558 -0.0924
 6406SOL    HW119964   4.027   0.154   6.038 -1.5750 -1.5840 -1.2007
 6406SOL    HW219965   4.063   0.232   5.913 -1.5627 -2.0735 -1.5088
 6407SOL     OW19966   4.784   1.385   3.017  0.0933 -0.3526  0.2502
 6407SOL    HW119967   4.721   1.323   2.981  0.6732 -1.1876  0.6370
 6407SOL    HW219968   4.762   1.468   2.975 -1.3905 -0.5687  0.5236
 6408SOL     OW19969   1.597   5.812   0.686  0.3935  0.1264  0.2131
 6408SOL    HW119970   1.512   5.810   0.641  0.6024  1.0364 -0.2576
 6408SOL    HW219971   1.591   5.888   0.744  0.8962  0.2107  0.1559
 6409SOL     OW19972   1.468   6.225   1.010  0.6297 -0.1249  0.7159
 6409SOL    HW119973   1.510   6.227   1.096 -1.3574  0.0548  1.7419
 6409SOL    HW219974   1.461   6.316   0.984  0.4564 -0.1251  0.7618
 6410SOL     OW19975   3.130   4.870   0.157 -0.2976 -0.5995  0.7929
 6410SOL    HW119976   3.148   4.777   0.144 -0.7806 -0.5245 -0.6061
 6410SOL    HW219977   3.042   4.873   0.195 -0.4706 -0.7061  0.4041
 6411SOL     OW19978   2.083   3.939   3.411 -0.2007 -0.1353  0.0730
 6411SOL    HW119979   2.107   3.959   3.320 -0.1206 -0.6338 -0.0163
 6411SOL    HW219980   1.998   3.896   3.404 -0.8086  0.9786  0.3366
 6412SOL     OW19981   3.958   3.532   0.421 -0.2973 -0.1459 -0.2323
 6412SOL    HW119982   3.875   3.575   0.442 -0.7537 -1.2637  0.3715
 6412SOL    HW219983   3.932   3.446   0.388  0.6016 -0.1936 -0.8384
 6413SOL     OW19984   1.003   2.339   5.842  0.5496  0.0396  0.7005
 6413SOL    HW119985   1.032   2.426   5.812  1.6996 -0.5778 -0.0283
 6413SOL    HW219986   1.016   2.282   5.767 -0.7759 -0.6734  0.9775
 6414SOL     OW19987   5.639   5.393   0.032 -0.7919 -0.5918  0.0356
 6414SOL    HW119988   5.570   5.442  -0.013 -1.2599 -2.0569 -0.8886
 6414SOL    HW219989   5.635   5.424   0.123 -1.6157  0.4751 -0.3499
 6415SOL     OW19990   5.611   2.839   3.727  0.4299  0.2462  0.1030
 6415SOL    HW119991   5.632   2.838   3.634  1.4133 -0.4991  0.3168
 6415SOL    HW219992   5.593   2.931   3.746  2.5379  0.8063 -0.3460
 6416SOL     OW19993   1.938   5.281   1.253 -0.5693  0.1491  0.1396
 6416SOL    HW119994   1.958   5.340   1.181 -0.5884  0.6587  0.5487
 6416SOL    HW219995   2.006   5.214   1.249 -0.5729  0.1702 -0.3500
 6417SOL     OW19996   2.931   5.004   4.983 -0.2523  0.0589 -0.3299
 6417SOL    HW119997   3.018   4.998   4.946 -0.7310  0.5242 -1.5691
 6417SOL    HW219998   2.880   4.938   4.936 -0.1482 -1.5868  1.7206
 6418SOL     OW19999   1.971   5.338   4.545 -0.1857 -0.3810 -0.3187
 6418SOL    HW120000   2.043   5.277   4.565 -0.3628 -0.4501  0.1099
 6418SOL    HW220001   1.975   5.403   4.615  0.4131  0.4806 -1.1274
 6419SOL     OW20002   0.366   2.455   4.714 -0.7663  0.1975 -0.4672
 6419SOL    HW120003   0.389   2.535   4.667  1.8786 -0.8897 -1.1708
 6419SOL    HW220004   0.321   2.486   4.793  0.1531  2.3902 -0.7332
 6420SOL     OW20005   3.076   6.047   2.355  0.1977  0.3288  0.0695
 6420SOL    HW120006   3.061   6.042   2.449  1.4668 -1.3051  0.2172
 6420SOL    HW220007   3.091   5.957   2.328  2.3736  0.9976 -1.2358
 6421SOL     OW20008   3.776   4.181   0.725 -0.2867  0.6629  0.2270
 6421SOL    HW120009   3.745   4.248   0.786  0.4218  1.4660 -0.2701
 6421SOL    HW220010   3.697   4.147   0.684 -0.8311 -0.2470  1.9098
 6422SOL     OW20011   2.760   3.515   0.905  0.1760  0.2624 -0.3382
 6422SOL    HW120012   2.769   3.440   0.846  0.2991 -0.1315  0.1704
 6422SOL    HW220013   2.671   3.509   0.938  0.7676 -0.8161  1.2024
 6423SOL     OW20014   3.391   3.020   1.958 -0.2584  0.4932 -0.4606
 6423SOL    HW120015   3.318   3.014   2.019 -1.2027 -0.4163 -1.6262
 6423SOL    HW220016   3.421   3.111   1.965 -2.3633  1.2705 -0.8865
 6424SOL     OW20017   1.228   2.893   3.901 -0.5596 -0.2437 -0.1217
 6424SOL    HW120018   1.188   2.818   3.858 -0.0081  0.1199 -1.3122
 6424SOL    HW220019   1.177   2.968   3.870 -0.0596  0.0385 -0.2644
 6425SOL     OW20020   0.386   3.093   1.193  0.0628  0.0462 -0.1074
 6425SOL    HW120021   0.420   3.006   1.216 -0.2236  0.1518  0.7579
 6425SOL    HW220022   0.447   3.154   1.235  0.2511  0.2653 -0.6942
 6426SOL     OW20023   0.691   2.074   2.358  0.6963  0.2603 -0.5430
 6426SOL    HW120024   0.597   2.054   2.350  0.2379  0.7507  2.5089
 6426SOL    HW220025   0.695   2.170   2.353  1.0757  0.2185 -1.0112
 6427SOL     OW20026   3.518   0.596   4.386  0.5879 -0.1940  0.2863
 6427SOL    HW120027   3.588   0.587   4.321  1.6106  0.5919  1.2367
 6427SOL    HW220028   3.540   0.532   4.453  0.4426  0.1277  0.6394
 6428SOL     OW20029   5.459   1.285   6.148 -0.3065 -0.4768  0.5896
 6428SOL    HW120030   5.490   1.336   6.223 -0.0960 -2.1676  1.6937
 6428SOL    HW220031   5.537   1.241   6.115 -0.3517  0.4361 -0.8148
 6429SOL     OW20032   4.577   1.305   0.359 -0.8692 -0.0633  0.0018
 6429SOL    HW120033   4.655   1.360   0.366 -0.2326 -0.8756 -0.6247
 6429SOL    HW220034   4.518   1.355   0.302 -0.8355  0.5678  0.5053
 6430SOL     OW20035   4.619   0.624   6.025 -0.5433  0.2153 -0.2401
 6430SOL    HW120036   4.598   0.716   6.009  0.2693  0.7113  1.2780
 6430SOL    HW220037   4.588   0.608   6.114 -0.1435 -0.8097 -0.2723
 6431SOL     OW20038   3.269   1.013   2.854  0.4704  0.6510 -0.1515
 6431SOL    HW120039   3.232   1.006   2.765 -0.7988  0.1618  0.3864
 6431SOL    HW220040   3.357   0.977   2.846 -0.6935 -2.3658 -0.6030
 6432SOL     OW20041   6.049   3.184   3.142  0.1173 -0.4387  0.2666
 6432SOL    HW120042   6.127   3.181   3.198  1.2767  0.6918 -1.1736
 6432SOL    HW220043   5.983   3.228   3.195 -0.1586 -2.9093  2.1420
 6433SOL     OW20044   4.872   3.952   4.824 -0.0287 -0.4539  0.1144
 6433SOL    HW120045   4.837   4.037   4.849 -1.9146 -0.1172 -3.1557
 6433SOL    HW220046   4.959   3.949   4.864 -0.0137  2.8695  0.5813
 6434SOL     OW20047   1.932   3.216   4.152 -0.3420 -0.1629  0.0137
 6434SOL    HW120048   1.853   3.206   4.206  0.3485  0.0171  1.0900
 6434SOL    HW220049   1.902   3.200   4.063 -1.9156  1.4081  0.1974
 6435SOL     OW20050   3.624   0.834   5.156  0.1246  0.0795  0.4574
 6435SOL    HW120051   3.609   0.803   5.066 -1.0850  0.4745  0.5184
 6435SOL    HW220052   3.548   0.888   5.176  1.0978  1.2269  1.1939
 6436SOL     OW20053   5.223   5.538   3.916 -0.0883  0.0443 -0.0603
 6436SOL    HW120054   5.286   5.531   3.988  0.6450  3.0982 -0.2724
 6436SOL    HW220055   5.269   5.505   3.839  0.0918 -0.6820  0.3501
 6437SOL     OW20056   1.150   3.012   1.141 -0.2612  0.5901 -0.3735
 6437SOL    HW120057   1.085   2.942   1.129 -0.2370  0.1856  1.5285
 6437SOL    HW220058   1.234   2.965   1.147 -0.2775  0.7082  1.2173
 6438SOL     OW20059   4.754   5.668   1.723  0.6333  0.0844  0.0007
 6438SOL    HW120060   4.832   5.616   1.704  0.0596 -1.0681  0.6641
 6438SOL    HW220061   4.708   5.675   1.640  0.8779 -0.2136 -0.1614
 6439SOL     OW20062   1.514   3.529   0.261  0.0093 -0.2108 -0.1984
 6439SOL    HW120063   1.559   3.588   0.322 -0.1938 -0.4646  0.2011
 6439SOL    HW220064   1.567   3.532   0.181  0.6078 -0.3352  0.1899
 6440SOL     OW20065   1.401   2.887   2.344 -0.2162  0.5952  0.7838
 6440SOL    HW120066   1.370   2.951   2.280 -0.8977  0.5387  1.0599
 6440SOL    HW220067   1.478   2.929   2.384  0.4322  0.4902 -0.3056
 6441SOL     OW20068   1.956   6.085   0.630  0.2913  0.2045 -0.2413
 6441SOL    HW120069   1.954   5.991   0.650  0.1230  0.3518  0.4532
 6441SOL    HW220070   2.002   6.090   0.547  0.3295 -0.4959 -0.2721
 6442SOL     OW20071   3.231   0.150   6.189  0.4948 -0.5196 -0.0183
 6442SOL    HW120072   3.217   0.060   6.217 -0.7475  0.0632  1.4085
 6442SOL    HW220073   3.300   0.183   6.247  1.0967 -0.5909 -0.6770
 6443SOL     OW20074   3.153   1.016   1.408  0.5472  0.0488 -0.1206
 6443SOL    HW120075   3.171   0.995   1.316  2.9535 -2.1619  0.7347
 6443SOL    HW220076   3.106   0.940   1.441  0.1690  0.5894  0.6040
 6444SOL     OW20077   5.838   6.277   4.978  0.2126 -0.3268 -0.0276
 6444SOL    HW120078   5.810   6.186   4.983  1.3776 -0.6913  0.1034
 6444SOL    HW220079   5.779   6.317   4.914 -1.1047 -0.8577  0.8258
 6445SOL     OW20080   3.425   2.993   0.925  0.2052  0.2517  0.7283
 6445SOL    HW120081   3.493   2.976   0.990  1.3214  1.2685 -0.1252
 6445SOL    HW220082   3.367   3.056   0.967  0.6921  0.5952  0.8889
 6446SOL     OW20083   1.874   2.284   3.563  0.1494 -0.1976 -0.1486
 6446SOL    HW120084   1.883   2.357   3.624 -1.1002 -1.2678  1.3830
 6446SOL    HW220085   1.788   2.296   3.523  0.2319 -0.4581 -0.4077
 6447SOL     OW20086   5.469   0.386   2.691  0.0434  0.2196 -0.2221
 6447SOL    HW120087   5.463   0.396   2.786  1.1356 -0.3489 -0.0819
 6447SOL    HW220088   5.473   0.476   2.658 -0.7432  0.4308  0.2295
 6448SOL     OW20089   5.580   2.303   2.228 -0.1669  0.5620  0.5148
 6448SOL    HW120090   5.604   2.395   2.218 -0.6489  0.6754  0.3840
 6448SOL    HW220091   5.603   2.263   2.144 -2.5996  1.1591 -0.5286
 6449SOL     OW20092   4.988   5.273   5.661 -0.5695  0.6355  0.2690
 6449SOL    HW120093   4.911   5.225   5.692 -0.2768  0.1337  0.2278
 6449SOL    HW220094   5.024   5.218   5.592  0.7559  0.0558  1.3667
 6450SOL     OW20095   3.990   4.020   5.946 -0.0912  0.4621 -0.0934
 6450SOL    HW120096   3.936   4.075   5.890  0.7765  1.3765 -0.0441
 6450SOL    HW220097   4.005   3.940   5.895  0.3496  1.1138 -0.9988
 6451SOL     OW20098   3.595   3.395   1.678 -0.1492 -0.4727 -0.2902
 6451SOL    HW120099   3.685   3.426   1.691 -0.0700 -1.0599  0.6520
 6451SOL    HW220100   3.604   3.318   1.622 -0.1241 -0.2388 -0.6153
 6452SOL     OW20101   6.080   5.920   1.543 -0.0003  0.1136 -0.4656
 6452SOL    HW120102   6.084   5.851   1.477 -1.0780  0.8303 -1.3206
 6452SOL    HW220103   5.993   5.911   1.583 -0.2399  1.0982 -0.7395
 6453SOL     OW20104   3.508   0.822   4.143  0.4701  0.2193 -0.4599
 6453SOL    HW120105   3.470   0.905   4.113  0.4098  0.4618  0.2822
 6453SOL    HW220106   3.550   0.843   4.226  1.9460 -0.1221 -1.0795
 6454SOL     OW20107   0.074   2.995   5.490 -0.5445 -0.1440 -0.2370
 6454SOL    HW120108   0.079   3.013   5.584 -1.1324 -2.1201  0.2190
 6454SOL    HW220109   0.027   3.069   5.454 -0.6977  0.4439  1.1076
 6455SOL     OW20110   0.287   4.888   5.514  0.5609  0.2439 -0.0825
 6455SOL    HW120111   0.349   4.947   5.555  1.0557 -1.2753  1.4749
 6455SOL    HW220112   0.212   4.885   5.575  1.4586 -2.3236  1.0594
 6456SOL     OW20113   5.466   5.200   1.492  0.2065  0.4249 -0.1822
 6456SOL    HW120114   5.559   5.202   1.469  0.1126 -0.2020 -0.6587
 6456SOL    HW220115   5.449   5.284   1.533  1.3362 -0.0204  1.2827
 6457SOL     OW20116   0.138   1.193   1.819  0.1132  0.3370  0.2175
 6457SOL    HW120117   0.210   1.185   1.757 -0.1873 -0.4359 -0.0384
 6457SOL    HW220118   0.173   1.155   1.900  0.2462  0.6559  0.3125
 6458SOL     OW20119   1.851   1.837   4.529  0.1432  0.2647 -0.0072
 6458SOL    HW120120   1.946   1.841   4.542  0.1414  1.3775 -0.2817
 6458SOL    HW220121   1.829   1.918   4.483 -0.9929  0.1805  0.3502
 6459SOL     OW20122   4.461   2.931   6.165 -0.0409 -0.0956  0.5482
 6459SOL    HW120123   4.452   2.993   6.237  1.2696 -0.9150  1.4791
 6459SOL    HW220124   4.469   2.846   6.209 -1.3512 -0.8797 -0.6728
 6460SOL     OW20125   2.390   5.501   6.024  0.2349  0.3764 -0.5590
 6460SOL    HW120126   2.476   5.462   6.040 -0.0446  0.2178  0.6737
 6460SOL    HW220127   2.362   5.534   6.110 -0.3665  1.6015 -1.1909
 6461SOL     OW20128   4.156   0.730   2.994  0.1820  0.1140  0.3553
 6461SOL    HW120129   4.173   0.637   3.007  0.3839  0.2356  0.9777
 6461SOL    HW220130   4.219   0.757   2.927  0.5699 -0.0507  0.6506
 6462SOL     OW20131   5.584   4.142   6.145 -0.0595  0.0809 -0.4446
 6462SOL    HW120132   5.653   4.208   6.148 -0.3264  0.3346  0.4946
 6462SOL    HW220133   5.523   4.175   6.079  0.3265  0.2530 -0.7183
 6463SOL     OW20134   5.963   2.433   3.351 -0.5042 -0.0513  0.0249
 6463SOL    HW120135   5.950   2.463   3.261 -0.8533  2.1481  0.7512
 6463SOL    HW220136   6.058   2.437   3.364 -0.1576 -2.8033 -0.9546
 6464SOL     OW20137   1.983   6.026   3.154 -0.7445 -0.6199 -0.0809
 6464SOL    HW120138   2.051   5.994   3.095 -0.0725 -0.6394  0.6973
 6464SOL    HW220139   1.938   5.947   3.184 -2.1301 -0.5403 -1.7498
 6465SOL     OW20140   4.486   6.153   0.485  0.3773  0.6947  0.2265
 6465SOL    HW120141   4.392   6.140   0.479  0.2314  1.4783  0.7621
 6465SOL    HW220142   4.510   6.198   0.404  0.1168  1.4580  0.5647
 6466SOL     OW20143   5.923   2.196   2.266  0.0181  0.3450 -0.1483
 6466SOL    HW120144   5.897   2.259   2.199 -0.3111  1.9647  1.4518
 6466SOL    HW220145   5.861   2.208   2.337  0.6358 -1.0245  0.6726
 6467SOL     OW20146   4.119   4.661   2.770 -0.1462 -0.8419 -0.2532
 6467SOL    HW120147   4.129   4.716   2.848 -0.7687 -0.3816 -0.4940
 6467SOL    HW220148   4.025   4.645   2.763 -0.6735  2.3552 -3.0796
 6468SOL     OW20149   3.548   3.509   0.779 -0.0147  0.1970 -0.4374
 6468SOL    HW120150   3.467   3.509   0.729  0.8650 -0.0764 -1.9243
 6468SOL    HW220151   3.543   3.430   0.833 -0.5576 -0.0291 -0.8113
 6469SOL     OW20152   0.937   2.656   2.467  0.2060  0.1035 -0.3261
 6469SOL    HW120153   0.940   2.710   2.545  0.7648 -1.6704  0.9349
 6469SOL    HW220154   1.001   2.694   2.408  0.7723  0.6527  0.6304
 6470SOL     OW20155   3.071   5.952   5.272 -0.3078  0.0861  0.4276
 6470SOL    HW120156   3.122   5.872   5.262  1.4054  0.9581  1.7481
 6470SOL    HW220157   3.048   5.977   5.183  0.1206 -1.2438 -0.0780
 6471SOL     OW20158   3.236   1.329   4.803 -0.1304  0.2259  0.5635
 6471SOL    HW120159   3.215   1.415   4.766 -1.3376 -0.5522 -0.6876
 6471SOL    HW220160   3.189   1.327   4.886 -2.7178 -0.3231 -0.8109
 6472SOL     OW20161   1.828   0.057   1.197  0.1481 -0.2213 -0.5488
 6472SOL    HW120162   1.793   0.143   1.221 -0.4239 -0.0025 -2.0763
 6472SOL    HW220163   1.918   0.074   1.173  0.6602 -0.4057  1.0903
 6473SOL     OW20164   2.545   1.177   0.212  0.0079 -0.1060  0.2515
 6473SOL    HW120165   2.538   1.165   0.118 -3.3520  3.6829 -0.2677
 6473SOL    HW220166   2.626   1.226   0.225 -0.7127  1.4911 -1.0575
 6474SOL     OW20167   6.166   3.877   2.184 -0.1659  0.4243  0.7352
 6474SOL    HW120168   6.169   3.904   2.092 -0.6769  0.4734  0.7308
 6474SOL    HW220169   6.247   3.828   2.197 -0.1409  0.3210  0.2274
 6475SOL     OW20170   4.763   4.033   3.651  0.0386  0.0861  0.4418
 6475SOL    HW120171   4.817   3.979   3.709  0.2566 -1.2021 -0.8995
 6475SOL    HW220172   4.825   4.075   3.592 -0.1528  1.6550  1.2836
 6476SOL     OW20173   3.089   2.026   3.209 -0.4223 -0.2413 -0.0679
 6476SOL    HW120174   3.147   2.102   3.217 -0.1352 -0.3551 -0.9151
 6476SOL    HW220175   3.135   1.968   3.148 -0.7555 -0.9880  0.3760
 6477SOL     OW20176   6.199   0.060   2.519 -0.2209 -1.0707  0.0604
 6477SOL    HW120177   6.116   0.096   2.489 -0.1145 -1.0796 -0.2486
 6477SOL    HW220178   6.195   0.068   2.614  0.9734  2.4898 -0.0225
 6478SOL     OW20179   2.725   4.437   4.614  0.0797  0.1085  0.1536
 6478SOL    HW120180   2.718   4.527   4.645  0.6592  0.8838 -1.8118
 6478SOL    HW220181   2.711   4.443   4.519 -0.7531 -1.9983  0.1005
 6479SOL     OW20182   0.075   3.242   0.112 -1.1048 -0.0767 -0.0315
 6479SOL    HW120183   0.145   3.223   0.050 -0.9586 -1.2026  0.4407
 6479SOL    HW220184   0.040   3.327   0.085  1.0381  0.9770  0.2605
 6480SOL     OW20185   1.118   0.295   2.075 -0.2107  0.4036  0.5247
 6480SOL    HW120186   1.083   0.240   2.005  0.0593  1.7125 -0.6950
 6480SOL    HW220187   1.208   0.264   2.088 -0.0634  0.5210 -0.1469
 6481SOL     OW20188   3.675   3.947   0.006 -0.4035  0.3723 -0.2671
 6481SOL    HW120189   3.763   3.931  -0.029 -0.2470 -0.7608  0.5881
 6481SOL    HW220190   3.630   3.863  -0.003 -1.2366  0.8066 -0.2148
 6482SOL     OW20191   5.838   5.387   5.417 -0.2267  0.2591 -0.2217
 6482SOL    HW120192   5.792   5.466   5.387 -2.9924 -0.8569  0.7413
 6482SOL    HW220193   5.780   5.315   5.393  2.7214 -1.7157 -2.0927
 6483SOL     OW20194   1.708   1.080   4.549  0.4335 -0.1258 -0.4528
 6483SOL    HW120195   1.656   1.152   4.514  0.9789  0.2797 -0.4422
 6483SOL    HW220196   1.652   1.003   4.540 -0.2819  0.3474 -0.1766
 6484SOL     OW20197   3.094   6.237   0.337 -0.1499 -0.1622  0.2119
 6484SOL    HW120198   3.024   6.190   0.383  0.4202  0.1363  1.4129
 6484SOL    HW220199   3.091   6.326   0.372  0.5751 -0.0418 -0.0160
 6485SOL     OW20200   3.555   4.995   0.275  0.0222  0.0694  0.1489
 6485SOL    HW120201   3.540   4.989   0.180  0.5162  2.2004 -0.1157
 6485SOL    HW220202   3.489   5.058   0.305  1.4939  1.3751  0.7626
 6486SOL     OW20203   3.013   0.631   2.159  0.3188  0.4873  0.0454
 6486SOL    HW120204   2.951   0.648   2.088  0.6474  0.5707 -0.2227
 6486SOL    HW220205   2.990   0.693   2.227 -0.1976  0.2008  0.1371
 6487SOL     OW20206   3.702   0.187   5.779 -0.1476 -0.3867  0.0172
 6487SOL    HW120207   3.785   0.219   5.744  0.3882 -2.6377 -0.9406
 6487SOL    HW220208   3.727   0.117   5.840 -1.3074 -0.0403  0.9304
 6488SOL     OW20209   0.108   1.414   1.382 -0.1814 -0.3224 -0.1416
 6488SOL    HW120210   0.160   1.335   1.374 -0.7396 -0.7524  0.3737
 6488SOL    HW220211   0.075   1.431   1.294 -2.1289 -2.1194  0.1547
 6489SOL     OW20212   6.216   4.209   1.809  0.0480 -1.3008 -0.1097
 6489SOL    HW120213   6.143   4.217   1.748 -0.9472  0.2024  1.1850
 6489SOL    HW220214   6.190   4.137   1.867 -1.5341  0.5748  1.6734
 6490SOL     OW20215   4.131   5.436   3.560 -0.9830  0.3837  0.1533
 6490SOL    HW120216   4.179   5.415   3.480 -1.4822  2.0512 -0.6280
 6490SOL    HW220217   4.136   5.356   3.613  1.5221  0.0677 -0.4286
 6491SOL     OW20218   3.722   2.955   4.572 -0.1213  0.0436  0.4091
 6491SOL    HW120219   3.701   2.875   4.619  0.5418  0.0221  0.6741
 6491SOL    HW220220   3.785   2.928   4.505 -0.4405  0.2168  0.0360
 6492SOL     OW20221   1.121   5.834   2.673  0.1647  0.4607  0.1874
 6492SOL    HW120222   1.082   5.755   2.635 -1.5807  1.1737  0.3986
 6492SOL    HW220223   1.059   5.861   2.741  1.2923  1.3969  0.8775
 6493SOL     OW20224   4.075   2.843   3.827 -0.3585 -0.3061 -0.1609
 6493SOL    HW120225   4.137   2.796   3.771  0.2897  1.1164 -0.6895
 6493SOL    HW220226   4.110   2.932   3.833 -1.1052 -0.0741  1.4671
 6494SOL     OW20227   5.963   2.829   0.263  0.3208  0.1737 -0.2221
 6494SOL    HW120228   5.935   2.793   0.179  0.1305 -2.3876  0.8450
 6494SOL    HW220229   5.882   2.844   0.312  0.4734 -1.6069  0.6835
 6495SOL     OW20230   2.907   0.239   5.580 -0.0356 -0.2487  0.1952
 6495SOL    HW120231   2.899   0.317   5.636 -2.7266  0.8340 -1.4989
 6495SOL    HW220232   2.865   0.169   5.630  0.3651 -0.0771  0.7871
 6496SOL     OW20233   4.253   3.706   5.902  0.5597  0.1982  0.1044
 6496SOL    HW120234   4.268   3.766   5.975 -1.1402 -1.6893  2.1855
 6496SOL    HW220235   4.211   3.760   5.835 -0.4862  1.4739  1.6890
 6497SOL     OW20236   4.132   1.882   1.869  0.0356 -0.2185 -0.2388
 6497SOL    HW120237   4.144   1.858   1.961 -0.1250  0.3025 -0.0783
 6497SOL    HW220238   4.157   1.975   1.865 -0.1909 -0.1748 -0.6727
 6498SOL     OW20239   4.375   0.424   3.332 -0.2370 -0.4605 -0.5250
 6498SOL    HW120240   4.382   0.484   3.258 -0.5623 -2.3471 -2.1665
 6498SOL    HW220241   4.281   0.416   3.349 -0.1300  2.0164  1.9675
 6499SOL     OW20242   1.916   1.333   2.768  0.8067 -0.1419  0.7371
 6499SOL    HW120243   1.935   1.361   2.857  2.0234  0.3320  0.3438
 6499SOL    HW220244   1.951   1.244   2.762  0.8466 -0.1235  0.6951
 6500SOL     OW20245   4.315   0.901   3.610 -0.1907  0.2868  0.3995
 6500SOL    HW120246   4.305   0.812   3.643  0.5756 -0.2163 -0.6941
 6500SOL    HW220247   4.389   0.937   3.659  0.1896 -0.0541  0.0794
 6501SOL     OW20248   2.872   0.984   1.702  0.5361 -0.0190  0.3491
 6501SOL    HW120249   2.800   1.045   1.687  1.1615  0.5008 -0.6909
 6501SOL    HW220250   2.934   1.034   1.755  0.2633 -0.3614  0.9903
 6502SOL     OW20251   3.695   2.981   0.782  0.3850 -0.2625 -1.0145
 6502SOL    HW120252   3.611   2.951   0.816  0.4741 -0.9366 -1.3533
 6502SOL    HW220253   3.760   2.946   0.844  0.4021  0.4245 -0.6449
 6503SOL     OW20254   4.242   0.497   1.675  0.4571  0.0169  0.1291
 6503SOL    HW120255   4.155   0.537   1.683  0.1464 -0.4147 -0.9004
 6503SOL    HW220256   4.276   0.530   1.592  0.3841 -1.4537 -0.5120
 6504SOL     OW20257   2.237   6.254   5.713  0.6279 -0.9286 -0.8805
 6504SOL    HW120258   2.192   6.216   5.638  0.0666 -2.9824  0.4140
 6504SOL    HW220259   2.174   6.249   5.785  1.8517 -1.0067  0.2469
 6505SOL     OW20260   1.683   6.108   2.486 -0.8842  0.1993  0.0312
 6505SOL    HW120261   1.603   6.055   2.482 -0.5390 -0.4342  1.2241
 6505SOL    HW220262   1.712   6.113   2.395 -2.6792  1.0780 -0.5380
 6506SOL     OW20263   4.467   0.018   0.254 -0.2828 -0.3722 -0.0723
 6506SOL    HW120264   4.414   0.030   0.175 -0.1620 -2.0212 -0.4451
 6506SOL    HW220265   4.465   0.103   0.298 -2.2504 -0.0568 -0.6857
 6507SOL     OW20266   0.300   3.833   0.426 -0.0130 -0.0319  0.3541
 6507SOL    HW120267   0.327   3.757   0.478 -1.8228 -0.4342  0.7828
 6507SOL    HW220268   0.239   3.881   0.483 -0.9800  0.2648 -0.8776
 6508SOL     OW20269   4.482   1.512   3.951  0.5058 -0.1602  0.1494
 6508SOL    HW120270   4.535   1.582   3.988  0.5703  0.0064 -0.2562
 6508SOL    HW220271   4.504   1.435   4.004  0.0435  0.2355  0.9362
 6509SOL     OW20272   3.381   4.716   5.655  0.1746  0.6635  0.4180
 6509SOL    HW120273   3.294   4.680   5.641 -0.5773  2.3289  0.6206
 6509SOL    HW220274   3.371   4.810   5.645  2.0086  0.8801  0.1985
 6510SOL     OW20275   2.340   2.165   5.674  0.0553 -0.4007  0.4194
 6510SOL    HW120276   2.337   2.092   5.612  0.0317  0.8685 -1.1432
 6510SOL    HW220277   2.406   2.140   5.738 -0.2173 -1.9427  0.1364
 6511SOL     OW20278   5.569   0.772   5.418  0.4930 -0.0030 -0.4204
 6511SOL    HW120279   5.604   0.859   5.403 -0.4507  0.3851 -0.4612
 6511SOL    HW220280   5.504   0.759   5.349  2.0079 -1.5504 -1.6449
 6512SOL     OW20281   3.267   5.102   0.029  0.1220 -0.0639  0.0242
 6512SOL    HW120282   3.233   5.027   0.077  1.4020 -1.9420 -1.8049
 6512SOL    HW220283   3.342   5.067  -0.020  0.1303  2.1462 -1.7109
 6513SOL     OW20284   1.716   2.682   4.221 -0.1150  0.8715 -0.3350
 6513SOL    HW120285   1.755   2.596   4.235 -0.8556  0.6687  0.5354
 6513SOL    HW220286   1.714   2.722   4.308 -0.5892  1.4247 -0.5923
 6514SOL     OW20287   5.149   2.571   3.592  0.2519  0.3969  0.7230
 6514SOL    HW120288   5.133   2.494   3.646 -0.9932  0.0580 -0.0752
 6514SOL    HW220289   5.122   2.545   3.504 -0.1816  1.7326  0.4311
 6515SOL     OW20290   5.403   1.251   0.395  0.5141 -0.2725  0.1501
 6515SOL    HW120291   5.333   1.221   0.336  1.5756 -0.0114 -1.2997
 6515SOL    HW220292   5.429   1.173   0.443 -0.7711 -0.3710  0.7217
 6516SOL     OW20293   2.238   1.669   3.054  0.1452 -0.6414 -0.3069
 6516SOL    HW120294   2.197   1.704   3.134  0.6438 -0.3897 -0.1601
 6516SOL    HW220295   2.180   1.698   2.983 -0.3570 -0.9488 -0.0323
 6517SOL     OW20296   1.926   5.278   6.142 -0.5157  0.1784  0.0554
 6517SOL    HW120297   1.944   5.350   6.202 -0.7740  0.5626 -0.3200
 6517SOL    HW220298   1.942   5.315   6.055 -0.7502 -0.1867 -0.1459
 6518SOL     OW20299   5.953   3.845   2.360 -0.8151 -0.8729 -0.0150
 6518SOL    HW120300   6.033   3.835   2.308 -0.9685 -1.5087 -0.1364
 6518SOL    HW220301   5.941   3.940   2.368 -0.4719 -0.7730 -0.6451
 6519SOL     OW20302   4.632   5.405   5.932  0.7007 -0.6127 -0.1779
 6519SOL    HW120303   4.640   5.417   5.838 -0.5281 -0.0321 -0.2297
 6519SOL    HW220304   4.576   5.328   5.942  0.8159 -0.6667  0.0838
 6520SOL     OW20305   0.329   2.985   5.060  0.8016 -0.0521 -0.3936
 6520SOL    HW120306   0.253   3.026   5.020 -0.5990 -2.8876 -0.8824
 6520SOL    HW220307   0.294   2.908   5.106  3.2430 -0.8449  0.3100
 6521SOL     OW20308   5.619   2.702   1.515 -0.0343  0.6824  0.1947
 6521SOL    HW120309   5.691   2.708   1.577  0.2550  0.6611 -0.1308
 6521SOL    HW220310   5.646   2.633   1.454  0.0947  1.3068 -0.4662
 6522SOL     OW20311   5.339   2.522   5.280 -0.2716 -0.1586  0.3815
 6522SOL    HW120312   5.359   2.591   5.218 -2.5459 -0.5325 -0.8817
 6522SOL    HW220313   5.416   2.465   5.279  0.4087  0.7542 -0.8383
 6523SOL     OW20314   0.819   1.941   3.884 -0.0366  0.7522 -0.0708
 6523SOL    HW120315   0.829   1.928   3.790 -1.9520 -0.2615 -0.1954
 6523SOL    HW220316   0.802   2.034   3.895  0.1655  0.8660 -0.7335
 6524SOL     OW20317   0.808   2.700   4.354 -0.3598  0.1645 -0.1411
 6524SOL    HW120318   0.844   2.651   4.281 -0.9017  1.5056 -1.3588
 6524SOL    HW220319   0.808   2.791   4.324 -0.8530  0.7180  1.4252
 6525SOL     OW20320   4.656   3.881   0.193 -0.0099  0.2021  0.7920
 6525SOL    HW120321   4.725   3.948   0.197  1.6604 -1.4751  1.3899
 6525SOL    HW220322   4.677   3.820   0.263 -0.2022 -2.1148 -1.0374
 6526SOL     OW20323   1.649   6.071   3.281 -0.4853  0.4716  0.3133
 6526SOL    HW120324   1.698   6.061   3.363 -1.7736 -0.2655  1.0331
 6526SOL    HW220325   1.558   6.082   3.309 -0.6754  2.5770 -0.9542
 6527SOL     OW20326   5.926   3.924   2.794  0.0346 -1.0251 -0.3601
 6527SOL    HW120327   6.016   3.943   2.822 -0.5361  1.1197  0.2019
 6527SOL    HW220328   5.888   3.878   2.868  0.0587  0.0178  0.3279
 6528SOL     OW20329   0.136   1.603   2.312  0.0588 -0.4125 -0.3405
 6528SOL    HW120330   0.223   1.569   2.333 -0.3931 -0.0167  2.5707
 6528SOL    HW220331   0.076   1.544   2.356 -0.9198  1.6612  1.2570
 6529SOL     OW20332   2.839   0.250   0.329 -0.5567  0.3649  0.2278
 6529SOL    HW120333   2.848   0.183   0.262 -1.3769 -0.2015  0.6622
 6529SOL    HW220334   2.928   0.264   0.361 -0.0906  0.9561 -1.2531
 6530SOL     OW20335   1.500   4.536   0.599  0.2781  0.3562 -0.3685
 6530SOL    HW120336   1.521   4.623   0.564 -0.8877  0.2170 -1.4949
 6530SOL    HW220337   1.457   4.554   0.682 -1.1176  0.9755 -1.1759
 6531SOL     OW20338   6.079   5.718   5.243 -0.4846 -0.4609  0.0091
 6531SOL    HW120339   6.031   5.801   5.241 -1.2882 -0.9152 -1.4268
 6531SOL    HW220340   6.150   5.732   5.306 -0.4860  1.3729 -0.3460
 6532SOL     OW20341   3.637   0.010   3.845 -0.5700  0.1747  0.5805
 6532SOL    HW120342   3.675  -0.020   3.762  0.3344  0.2310  0.9668
 6532SOL    HW220343   3.570  -0.055   3.865 -0.1728 -0.3426  0.2599
 6533SOL     OW20344   1.981   4.863   6.093 -0.4547 -0.2181 -0.2214
 6533SOL    HW120345   2.005   4.792   6.034  0.5686  0.2302 -0.3637
 6533SOL    HW220346   2.021   4.941   6.055  0.5191  0.0313  1.2173
 6534SOL     OW20347   3.100   5.881   2.894 -0.2734 -0.0454  0.2326
 6534SOL    HW120348   3.060   5.910   2.976 -0.0270 -0.5311  0.5264
 6534SOL    HW220349   3.191   5.860   2.918 -0.0160  0.4190 -0.2937
 6535SOL     OW20350   0.997   3.893   6.263  0.7392 -0.4209 -0.6431
 6535SOL    HW120351   0.924   3.841   6.230 -0.7776  0.7137  0.7568
 6535SOL    HW220352   1.000   3.970   6.206  0.7241 -0.3858 -0.5967
 6536SOL     OW20353   0.664   1.686   3.981  0.3689 -0.1843  0.1297
 6536SOL    HW120354   0.582   1.637   3.987 -0.2397  0.5964 -1.3227
 6536SOL    HW220355   0.729   1.621   3.958  0.1725 -0.8010  1.2173
 6537SOL     OW20356   2.084   4.709   1.237 -0.2029 -0.1834  0.2990
 6537SOL    HW120357   1.999   4.686   1.274 -0.0136  0.2102  0.9910
 6537SOL    HW220358   2.132   4.626   1.233 -0.5220 -0.3617  0.1490
 6538SOL     OW20359   1.809   1.232   3.939  0.3056 -0.3651  0.3583
 6538SOL    HW120360   1.767   1.182   3.869  0.3346  0.0741  0.0216
 6538SOL    HW220361   1.737   1.276   3.985  0.3909  0.5615 -0.3541
 6539SOL     OW20362   4.073   1.372   6.051  0.3991  0.4086  0.4400
 6539SOL    HW120363   3.981   1.391   6.069  0.2414 -0.5493  0.7041
 6539SOL    HW220364   4.074   1.279   6.029  0.8302  1.0532 -2.8659
 6540SOL     OW20365   1.276   3.703   1.252 -0.0964 -0.5151  0.1586
 6540SOL    HW120366   1.225   3.704   1.170  2.1142 -1.8188 -1.3333
 6540SOL    HW220367   1.217   3.663   1.316 -1.2117 -1.3026 -1.2903
 6541SOL     OW20368   2.872   2.359   3.027 -1.0351 -0.2444  0.0624
 6541SOL    HW120369   2.933   2.289   3.004 -0.3774  0.2475  0.2810
 6541SOL    HW220370   2.790   2.335   2.983 -0.3937 -0.3631 -1.1031
 6542SOL     OW20371   2.026   4.549   2.599  0.6404 -0.2376  0.4135
 6542SOL    HW120372   1.971   4.582   2.528 -0.5130 -0.9399  0.9521
 6542SOL    HW220373   2.108   4.598   2.590  0.4179 -0.0952 -1.2031
 6543SOL     OW20374   2.106   0.110   3.360 -0.5263  1.1175  0.1589
 6543SOL    HW120375   2.196   0.095   3.331 -0.4868  1.7374 -0.0470
 6543SOL    HW220376   2.078   0.189   3.314 -0.9457  1.3132  0.7298
 6544SOL     OW20377   0.506   0.563   4.235  0.3388 -0.0721 -0.3189
 6544SOL    HW120378   0.573   0.515   4.186  0.0790 -0.2698 -0.4828
 6544SOL    HW220379   0.503   0.520   4.321 -0.0511 -0.4978 -0.5419
 6545SOL     OW20380   0.044   2.782   0.748 -0.2401 -0.4780 -0.6232
 6545SOL    HW120381  -0.000   2.787   0.833 -0.4045 -0.7472 -0.6931
 6545SOL    HW220382   0.137   2.779   0.770 -0.2319  0.4793 -0.4916
 6546SOL     OW20383   2.419   5.735   0.872 -0.4262  0.0489  0.1804
 6546SOL    HW120384   2.431   5.708   0.781 -0.2868  0.2518  0.1384
 6546SOL    HW220385   2.327   5.762   0.877 -0.3399  0.3763  0.0112
 6547SOL     OW20386   3.459   5.457   2.017  0.1552  0.1269 -0.3475
 6547SOL    HW120387   3.431   5.371   1.985  1.6506 -0.9468  1.0442
 6547SOL    HW220388   3.555   5.454   2.013  0.3193  0.8495  1.7842
 6548SOL     OW20389   0.750   2.283   0.641  0.5341  0.4312  0.1973
 6548SOL    HW120390   0.835   2.265   0.681  0.3304  2.4210  1.6412
 6548SOL    HW220391   0.766   2.354   0.579 -0.3735  2.3665  2.0582
 6549SOL     OW20392   6.140   1.765   2.363  0.3604  0.0724 -0.4477
 6549SOL    HW120393   6.190   1.845   2.373  0.1897  0.4215 -2.1897
 6549SOL    HW220394   6.087   1.760   2.443 -0.0321  1.9881 -0.5425
 6550SOL     OW20395   5.396   3.971   4.454 -0.2364 -0.6494  0.4182
 6550SOL    HW120396   5.344   3.911   4.400  1.3516 -1.3688 -0.3674
 6550SOL    HW220397   5.479   3.980   4.407  0.5313  0.1218  1.8508
 6551SOL     OW20398   2.408   1.446   4.400 -0.0851  0.0066 -0.2510
 6551SOL    HW120399   2.472   1.479   4.336  1.7751 -1.7209  0.5845
 6551SOL    HW220400   2.424   1.351   4.401 -1.1053 -0.1782  1.6968
 6552SOL     OW20401   1.597   4.673   2.312 -0.1926  0.0497  0.2390
 6552SOL    HW120402   1.548   4.609   2.260 -0.7337  0.7052 -0.0873
 6552SOL    HW220403   1.630   4.736   2.247 -0.8050  0.8329  0.6602
 6553SOL     OW20404   3.143   6.220   1.727  0.1216  0.0124 -0.0599
 6553SOL    HW120405   3.184   6.184   1.649  1.1894 -0.9404  0.8977
 6553SOL    HW220406   3.156   6.152   1.794 -0.9100  0.7296  0.8953
 6554SOL     OW20407   0.307   5.043   3.463  0.0833 -0.5684 -0.5325
 6554SOL    HW120408   0.219   5.031   3.499  0.2461 -0.3807 -0.0612
 6554SOL    HW220409   0.364   5.041   3.540  0.5696 -1.4970 -0.9088
 6555SOL     OW20410   5.804   6.139   4.432 -0.5284 -0.4859 -0.8733
 6555SOL    HW120411   5.874   6.155   4.496 -1.4952  1.2781 -0.1809
 6555SOL    HW220412   5.838   6.173   4.350  0.0114 -1.0708 -0.9001
 6556SOL     OW20413   5.742   1.467   3.620 -0.4428 -0.2150 -0.2032
 6556SOL    HW120414   5.731   1.469   3.525  0.5693  0.6568 -0.3239
 6556SOL    HW220415   5.703   1.550   3.650  1.8677  0.9393 -0.2087
 6557SOL     OW20416   1.215   3.754   2.883  0.0657 -0.3529  0.4139
 6557SOL    HW120417   1.291   3.708   2.917 -0.4970 -1.1010  0.6978
 6557SOL    HW220418   1.150   3.685   2.866 -0.1380  0.1414 -0.9485
 6558SOL     OW20419   3.725   4.694   1.651 -0.5015  0.3447 -0.4441
 6558SOL    HW120420   3.792   4.714   1.585 -0.0504 -1.7700 -0.7145
 6558SOL    HW220421   3.766   4.715   1.735  0.3445 -0.4715 -0.6389
 6559SOL     OW20422   1.708   2.152   2.678  0.1935  0.0303 -0.1912
 6559SOL    HW120423   1.789   2.204   2.680 -0.6178  1.3200  1.5884
 6559SOL    HW220424   1.735   2.069   2.639  1.7250  1.4481 -2.4286
 6560SOL     OW20425   6.040   0.859   4.710 -0.0983 -0.2469 -0.2991
 6560SOL    HW120426   6.016   0.771   4.680 -0.5764  0.2681 -1.5065
 6560SOL    HW220427   6.062   0.848   4.803  2.7913 -2.1582 -1.1087
 6561SOL     OW20428   4.940   0.515   0.692 -0.3028 -0.5417  0.5018
 6561SOL    HW120429   4.918   0.564   0.613 -2.1080 -1.1942  0.5618
 6561SOL    HW220430   4.865   0.527   0.750 -0.0625 -2.0002  1.1678
 6562SOL     OW20431   2.373   5.725   4.877  0.2254  0.2065 -0.3048
 6562SOL    HW120432   2.445   5.788   4.887  1.3110 -1.1990  1.1339
 6562SOL    HW220433   2.331   5.723   4.962 -0.5925 -0.1126 -0.7079
 6563SOL     OW20434   4.682   3.066   0.067  0.1530  0.1499 -0.3061
 6563SOL    HW120435   4.765   3.044   0.109 -0.6201 -1.1410  0.6211
 6563SOL    HW220436   4.700   3.059  -0.027  1.4279  1.2800 -0.1901
 6564SOL     OW20437   5.336   6.173   3.015 -0.5657 -0.0984  0.3608
 6564SOL    HW120438   5.258   6.152   3.067  0.4275  0.9640  2.3947
 6564SOL    HW220439   5.382   6.090   3.007 -0.7193 -0.2796  1.2452
 6565SOL     OW20440   5.556   2.514   4.651 -0.2967 -0.1144  0.0413
 6565SOL    HW120441   5.623   2.470   4.705 -1.7374 -4.7005 -1.4590
 6565SOL    HW220442   5.478   2.514   4.706 -0.2112  1.1729  0.1913
 6566SOL     OW20443   5.859   6.296   3.933  0.0818  0.3972 -0.0050
 6566SOL    HW120444   5.923   6.262   3.870  1.0081  2.6795 -0.3859
 6566SOL    HW220445   5.793   6.340   3.880 -0.1102  0.7686  0.5337
 6567SOL     OW20446   2.030   0.044   4.699  0.4084 -0.0664  0.4777
 6567SOL    HW120447   2.022   0.038   4.604 -0.5799 -0.1351  0.5531
 6567SOL    HW220448   2.108  -0.006   4.720  0.0493 -0.9456 -0.2039
 6568SOL     OW20449   0.345   1.604   4.932  0.1504  0.2299 -0.1266
 6568SOL    HW120450   0.422   1.636   4.886  1.4659 -0.6752  1.3659
 6568SOL    HW220451   0.341   1.511   4.911 -0.6395  0.2836 -0.2817
 6569SOL     OW20452   0.115   4.143   3.349  0.1190  0.2772 -0.0685
 6569SOL    HW120453   0.088   4.151   3.257  1.6978  0.9213 -0.5063
 6569SOL    HW220454   0.110   4.232   3.383 -0.1367  0.0928  0.3881
 6570SOL     OW20455   3.631   4.524   0.480 -0.3169 -0.6359 -0.2417
 6570SOL    HW120456   3.673   4.559   0.401  2.6183  1.8083  2.2017
 6570SOL    HW220457   3.580   4.597   0.515 -0.6114 -1.3103  0.7686
 6571SOL     OW20458   3.239   5.440   2.192 -0.2837  0.2983 -0.0957
 6571SOL    HW120459   3.284   5.505   2.138 -2.0633  0.9937 -0.8358
 6571SOL    HW220460   3.242   5.360   2.140 -0.5310  0.5265 -0.4622
 6572SOL     OW20461   2.101   3.470   4.573 -0.6015 -0.3729  0.0501
 6572SOL    HW120462   2.106   3.437   4.663 -0.6625  0.1389  0.2484
 6572SOL    HW220463   2.098   3.566   4.583 -0.9817 -0.3234 -0.4829
 6573SOL     OW20464   5.881   1.756   1.329 -0.5163 -0.5824  0.4223
 6573SOL    HW120465   5.825   1.720   1.398 -0.7024 -1.2755 -0.0868
 6573SOL    HW220466   5.824   1.814   1.279 -1.5238 -3.2060 -1.6581
 6574SOL     OW20467   3.364   5.473   4.251 -0.2279  0.0928 -0.2978
 6574SOL    HW120468   3.347   5.507   4.339  1.0592 -1.0398  0.4359
 6574SOL    HW220469   3.447   5.427   4.259  2.9865  4.5331 -3.3487
 6575SOL     OW20470   5.609   6.072   6.239 -0.1392 -0.1731  0.0904
 6575SOL    HW120471   5.647   6.147   6.193 -0.7532 -0.0149 -0.1673
 6575SOL    HW220472   5.677   6.005   6.236  0.9497  0.8101  1.5138
 6576SOL     OW20473   5.390   4.270   4.991  0.0852 -0.2566 -0.7760
 6576SOL    HW120474   5.476   4.231   4.980 -0.1580 -1.8133  2.0227
 6576SOL    HW220475   5.328   4.201   4.967 -0.3363 -1.0441  2.2492
 6577SOL     OW20476   3.955   2.664   4.775 -0.6646 -0.3169 -0.5792
 6577SOL    HW120477   3.983   2.736   4.833  0.5025 -1.1375 -0.0829
 6577SOL    HW220478   3.962   2.586   4.830  1.9953 -1.3559 -2.2109
 6578SOL     OW20479   3.121   4.077   2.548  0.1217 -0.3463 -0.6969
 6578SOL    HW120480   3.098   4.133   2.622 -2.2046 -0.7664 -0.9980
 6578SOL    HW220481   3.106   3.988   2.580  0.6266 -0.6194 -1.1981
 6579SOL     OW20482   0.878   3.832   1.517 -0.4137  0.0175  0.4071
 6579SOL    HW120483   0.932   3.794   1.448 -1.5086 -0.4883 -0.2158
 6579SOL    HW220484   0.883   3.770   1.589 -0.9748 -0.5811 -0.0437
 6580SOL     OW20485   3.856   6.096   0.120 -0.1189  0.1331  0.0307
 6580SOL    HW120486   3.840   6.190   0.108 -2.1984 -0.4756 -3.1540
 6580SOL    HW220487   3.768   6.057   0.122  0.7105 -1.8256  0.6923
 6581SOL     OW20488   2.021   1.545   4.138 -0.1069  0.2424 -0.1205
 6581SOL    HW120489   1.976   1.463   4.157 -0.0520  0.8759  3.4549
 6581SOL    HW220490   1.961   1.593   4.082 -0.8141 -1.5489 -1.0052
 6582SOL     OW20491   1.697   3.089   1.925  0.6943 -0.5930 -0.0837
 6582SOL    HW120492   1.643   3.169   1.932 -1.5114 -1.9781 -0.1936
 6582SOL    HW220493   1.784   3.117   1.952 -0.5985  1.2214  2.7888
 6583SOL     OW20494   0.436   2.931   4.004  0.1682 -0.1198  0.1252
 6583SOL    HW120495   0.521   2.886   3.998 -0.4383 -1.3064  0.1539
 6583SOL    HW220496   0.371   2.862   3.992 -0.8482  0.4519  1.8919
 6584SOL     OW20497   4.534   3.453   6.173  0.3613  0.1640  0.3190
 6584SOL    HW120498   4.625   3.451   6.143  0.8765  0.9582  1.7089
 6584SOL    HW220499   4.529   3.531   6.230 -1.2051  0.1802  0.2181
 6585SOL     OW20500   2.278   5.436   1.764  0.2702 -0.4045  0.3574
 6585SOL    HW120501   2.283   5.365   1.828  0.6475 -0.7514 -0.0579
 6585SOL    HW220502   2.296   5.395   1.680 -1.6978 -0.2362 -0.1964
 6586SOL     OW20503   3.518   2.685   1.604 -0.1821 -0.1624  0.0016
 6586SOL    HW120504   3.521   2.623   1.532  1.6359 -0.9144  0.6636
 6586SOL    HW220505   3.555   2.638   1.678  1.3473  1.6857  0.5054
 6587SOL     OW20506   1.034   4.693   6.184 -0.4982 -0.3757 -0.7328
 6587SOL    HW120507   1.006   4.603   6.198  0.5490 -0.3298  2.4029
 6587SOL    HW220508   1.129   4.687   6.168 -0.5298  0.1545 -1.1727
 6588SOL     OW20509   5.762   6.011   5.946 -0.4874  0.3265  0.3738
 6588SOL    HW120510   5.778   6.078   6.013 -2.6428 -0.0546  1.3456
 6588SOL    HW220511   5.705   6.054   5.883 -1.3024 -0.3470  0.6316
 6589SOL     OW20512   4.241   0.612   1.136 -0.4491  0.2290 -0.8228
 6589SOL    HW120513   4.188   0.647   1.065 -1.9622 -0.5037 -0.1145
 6589SOL    HW220514   4.177   0.582   1.201  0.7745 -2.0519 -0.5615
 6590SOL     OW20515   3.119   0.548   0.444 -0.3506 -0.3532  0.3452
 6590SOL    HW120516   3.073   0.472   0.409  1.1986 -1.1756  0.0366
 6590SOL    HW220517   3.072   0.623   0.407 -1.2079 -1.1527 -0.2514
 6591SOL     OW20518   1.195   3.811   0.122 -0.1597  0.2652  0.2103
 6591SOL    HW120519   1.247   3.746   0.074 -0.9755  0.2996 -0.7516
 6591SOL    HW220520   1.137   3.849   0.056  0.9184  2.6442  0.5567
 6592SOL     OW20521   0.371   2.618   1.020  0.1616 -0.1488  0.3779
 6592SOL    HW120522   0.327   2.648   1.098 -1.5098 -0.0676 -0.5546
 6592SOL    HW220523   0.431   2.689   0.996  0.5546 -0.1066  1.4525
 6593SOL     OW20524   3.117   6.070   3.911 -0.2024 -0.0053 -0.2064
 6593SOL    HW120525   3.196   6.024   3.938 -0.0825  0.6406  0.6011
 6593SOL    HW220526   3.062   6.003   3.870 -0.5264 -1.1592  1.9533
 6594SOL     OW20527   3.209   0.670   0.980 -0.2503 -0.4707 -0.0450
 6594SOL    HW120528   3.203   0.704   0.891 -0.8949 -0.4372  0.0088
 6594SOL    HW220529   3.119   0.669   1.012 -0.0667 -0.8276  0.4781
 6595SOL     OW20530   5.113   5.490   0.055 -0.1391  0.5821  0.2761
 6595SOL    HW120531   5.142   5.400   0.041 -0.1917  0.5062  0.6507
 6595SOL    HW220532   5.192   5.543   0.040 -0.0183  0.4456  0.4318
 6596SOL     OW20533   2.270   1.287   0.050  0.2738 -0.1915  0.5012
 6596SOL    HW120534   2.284   1.328   0.135 -2.0275  0.8752  0.4221
 6596SOL    HW220535   2.178   1.264   0.048  0.5096 -1.1952 -1.2972
 6597SOL     OW20536   2.678   0.834   3.783 -0.3849  0.6010 -0.6386
 6597SOL    HW120537   2.686   0.838   3.878 -1.7739  1.9865 -0.5269
 6597SOL    HW220538   2.608   0.771   3.767  0.4530 -0.3059 -0.8094
 6598SOL     OW20539   1.710   0.539   0.035 -0.5657  0.4896  0.5774
 6598SOL    HW120540   1.775   0.595  -0.008 -0.2292 -0.9968 -0.9599
 6598SOL    HW220541   1.634   0.595   0.049 -0.3794  1.2543 -1.2519
 6599SOL     OW20542   5.364   5.389   2.635 -1.2871  0.2713  0.6115
 6599SOL    HW120543   5.311   5.310   2.645 -1.5029  0.1081 -1.4393
 6599SOL    HW220544   5.311   5.458   2.674 -0.9537 -0.5794  2.7491
 6600SOL     OW20545   3.196   2.743   1.011  0.1424 -0.7058  0.3251
 6600SOL    HW120546   3.147   2.685   0.953  0.8299 -2.0223  0.9940
 6600SOL    HW220547   3.284   2.746   0.973 -0.1620  0.7824 -0.2917
 6601SOL     OW20548   4.591   6.116   2.666  0.6311 -0.1573 -0.7400
 6601SOL    HW120549   4.542   6.035   2.684  0.2554  0.0634 -0.7538
 6601SOL    HW220550   4.525   6.185   2.673  1.0282  0.1852 -0.3522
 6602SOL     OW20551   4.115   1.027   4.488 -0.7253  0.1300 -0.6032
 6602SOL    HW120552   4.179   0.997   4.424 -0.4618 -0.0610 -0.2548
 6602SOL    HW220553   4.130   1.122   4.494 -0.6818  0.1330 -0.7445
 6603SOL     OW20554   3.049   2.501   0.880 -0.3433  0.2788 -0.0989
 6603SOL    HW120555   2.995   2.579   0.894 -2.0075 -0.8205 -0.0965
 6603SOL    HW220556   3.027   2.473   0.792 -0.2884 -0.5674  0.1534
 6604SOL     OW20557   3.049   0.455   5.064 -0.1616  0.2485  0.6720
 6604SOL    HW120558   3.029   0.438   5.156  0.0751  0.7010  0.8085
 6604SOL    HW220559   3.122   0.396   5.044 -0.0457  0.3293  0.8477
 6605SOL     OW20560   5.316   1.965   5.777  0.1161 -0.1786  0.2483
 6605SOL    HW120561   5.236   1.963   5.724  0.6666 -0.5107 -0.5972
 6605SOL    HW220562   5.387   1.959   5.713  0.8900  1.7218  0.8610
 6606SOL     OW20563   1.464   4.555   1.801 -0.6059 -0.3399  0.4706
 6606SOL    HW120564   1.414   4.479   1.773  0.0237 -0.0540 -1.5891
 6606SOL    HW220565   1.438   4.624   1.740  0.8279  0.3549  0.6215
 6607SOL     OW20566   2.365   3.481   2.137  0.0373 -0.1711 -0.1960
 6607SOL    HW120567   2.435   3.441   2.189  0.3797 -0.0893 -0.5890
 6607SOL    HW220568   2.362   3.430   2.057  1.3806  1.3589 -1.2928
 6608SOL     OW20569   2.153   2.574   6.261 -0.0138 -0.0565 -0.2860
 6608SOL    HW120570   2.072   2.526   6.281 -0.0338  0.0486 -0.1124
 6608SOL    HW220571   2.141   2.659   6.303 -0.0951  0.2039 -0.8319
 6609SOL     OW20572   3.295   1.504   5.332  0.4315 -0.2692 -0.5338
 6609SOL    HW120573   3.211   1.459   5.326  0.2426 -0.0347  0.2344
 6609SOL    HW220574   3.352   1.456   5.272 -0.2494 -0.4222 -1.0725
 6610SOL     OW20575   3.192   1.132   3.935 -0.2338  0.2838 -0.3970
 6610SOL    HW120576   3.201   1.057   3.877  1.7836  1.6559 -2.0445
 6610SOL    HW220577   3.197   1.096   4.023 -0.5889 -1.6050 -1.1081
 6611SOL     OW20578   5.887   5.531   6.172 -0.4501  0.3062 -0.0584
 6611SOL    HW120579   5.843   5.510   6.090  2.7394 -1.9970 -1.3747
 6611SOL    HW220580   5.865   5.459   6.230  0.9975 -0.5634 -0.5404
 6612SOL     OW20581   1.805   3.521   1.845 -0.0450  0.0066  0.0269
 6612SOL    HW120582   1.872   3.564   1.791 -0.1596 -0.4877 -0.5318
 6612SOL    HW220583   1.724   3.530   1.794 -0.1774 -0.3638  0.1637
 6613SOL     OW20584   0.697   1.164   2.333 -0.3045 -0.4179 -0.4223
 6613SOL    HW120585   0.623   1.205   2.378 -0.0331 -1.3909  0.9734
 6613SOL    HW220586   0.658   1.090   2.286 -0.7014  0.9837 -2.4787
 6614SOL     OW20587   2.940   2.328   2.326  0.0817  0.1814  0.2444
 6614SOL    HW120588   2.957   2.279   2.406  0.7316 -1.1213 -0.6549
 6614SOL    HW220589   2.991   2.283   2.259 -0.6107  1.1136 -0.9543
 6615SOL     OW20590   2.561   6.087   5.177  0.2418 -0.2447 -0.3109
 6615SOL    HW120591   2.568   6.114   5.268 -3.1597 -0.1401  0.0591
 6615SOL    HW220592   2.574   5.992   5.179  0.8558 -0.1550  0.1591
 6616SOL     OW20593   6.050   1.910   4.721 -0.5940  0.5950  0.2714
 6616SOL    HW120594   6.057   1.987   4.664  1.3813  0.0145 -0.3545
 6616SOL    HW220595   6.024   1.839   4.662 -1.7201  0.6121  0.7203
 6617SOL     OW20596   3.910   4.999   1.262  0.1825  0.0119 -0.2959
 6617SOL    HW120597   3.895   4.974   1.171 -1.2821  0.5657 -0.2284
 6617SOL    HW220598   3.991   4.954   1.286  0.1535 -0.7915 -1.6199
 6618SOL     OW20599   3.944   5.603   1.354 -0.0319 -0.6727  0.4213
 6618SOL    HW120600   3.923   5.590   1.261  1.3767 -0.4211  0.0499
 6618SOL    HW220601   4.034   5.572   1.363 -0.2608 -0.9787  1.7850
 6619SOL     OW20602   2.966   4.171   4.794  0.1247  0.3152 -0.3321
 6619SOL    HW120603   2.963   4.173   4.698  1.0907  3.8758 -0.4293
 6619SOL    HW220604   3.053   4.139   4.815  0.4558  0.9520 -0.7072
 6620SOL     OW20605   5.262   5.609   0.875  0.4048  0.3906 -0.6418
 6620SOL    HW120606   5.172   5.606   0.841 -1.3754  0.2829  3.4806
 6620SOL    HW220607   5.308   5.667   0.815 -2.1977 -0.0772 -3.3358
 6621SOL     OW20608   4.367   0.193   2.010  0.2526  1.0175 -0.0102
 6621SOL    HW120609   4.363   0.263   2.075  1.5047  1.4798 -0.3945
 6621SOL    HW220610   4.460   0.190   1.984  0.5590 -1.7570  1.0535
 6622SOL     OW20611   4.699   3.728   0.427 -0.0140  0.4425 -0.1147
 6622SOL    HW120612   4.674   3.636   0.420  1.6663 -0.0612  0.0969
 6622SOL    HW220613   4.795   3.728   0.423  0.0019  2.2778 -1.0830
 6623SOL     OW20614   4.443   5.283   1.296  0.0735  0.0953 -0.2070
 6623SOL    HW120615   4.462   5.214   1.360  1.4862  0.8845  0.2923
 6623SOL    HW220616   4.360   5.258   1.257 -0.2070 -1.0788  1.0535
 6624SOL     OW20617   5.377   2.094   5.430  0.2854  0.4940 -0.2557
 6624SOL    HW120618   5.456   2.097   5.484  0.9458  0.2043 -1.1897
 6624SOL    HW220619   5.345   2.004   5.439  1.0312  0.1185 -1.2232
 6625SOL     OW20620   1.130   0.146   5.193  0.5324  0.2044 -0.5632
 6625SOL    HW120621   1.148   0.096   5.114  0.3625 -2.0457  0.7461
 6625SOL    HW220622   1.105   0.081   5.258 -1.4456  2.1538  0.7903
 6626SOL     OW20623   0.720   3.648   2.937 -0.1880 -0.0414 -0.0530
 6626SOL    HW120624   0.730   3.663   2.843 -1.8882 -0.8758 -0.4050
 6626SOL    HW220625   0.718   3.735   2.976 -0.3559  0.3331 -0.8977
 6627SOL     OW20626   1.707   5.859   5.565  0.5098  0.6562 -0.8519
 6627SOL    HW120627   1.655   5.882   5.643 -0.6098  3.5063 -2.2722
 6627SOL    HW220628   1.797   5.879   5.589  0.6195 -1.3656  0.6318
 6628SOL     OW20629   1.048   5.336   5.438 -0.4253 -0.2160  0.5880
 6628SOL    HW120630   1.073   5.372   5.353  0.3350 -1.1472  0.3956
 6628SOL    HW220631   1.129   5.338   5.490 -0.8297  0.1322  1.2220
 6629SOL     OW20632   2.336   0.616   4.612 -0.8710  0.1891 -0.2023
 6629SOL    HW120633   2.413   0.658   4.573 -0.5061  0.1531  0.4713
 6629SOL    HW220634   2.262   0.658   4.568 -0.4787  0.5763 -0.5066
 6630SOL     OW20635   2.067   2.186   0.391 -0.4832 -0.9604  0.1453
 6630SOL    HW120636   2.028   2.099   0.389 -0.5851 -0.9210 -2.0619
 6630SOL    HW220637   2.006   2.241   0.341  0.4233  0.0013  0.0485
 6631SOL     OW20638   4.425   3.706   0.577  0.7299  0.1903 -0.0950
 6631SOL    HW120639   4.507   3.740   0.543  0.6839  0.4986  0.0956
 6631SOL    HW220640   4.357   3.752   0.526  0.6763 -0.6235 -0.7872
 6632SOL     OW20641   3.496   0.022   4.679  0.1019  0.1502 -0.4290
 6632SOL    HW120642   3.493   0.071   4.598  0.3737  0.4248 -0.2744
 6632SOL    HW220643   3.571  -0.036   4.669  0.4254  0.5253 -0.1807
 6633SOL     OW20644   4.517   3.315   0.606  0.5203 -0.3520  0.6793
 6633SOL    HW120645   4.484   3.262   0.533  3.2170 -1.6266  0.2514
 6633SOL    HW220646   4.478   3.401   0.593  1.6631 -0.2268 -2.8986
 6634SOL     OW20647   4.507   0.501   1.786  0.1696  0.7703 -0.2045
 6634SOL    HW120648   4.534   0.444   1.714 -1.1547 -0.4637  0.2395
 6634SOL    HW220649   4.418   0.528   1.762 -0.5562 -0.2204  1.2797
 6635SOL     OW20650   0.501   4.589   1.955  0.0351 -0.3184 -0.1731
 6635SOL    HW120651   0.490   4.530   1.881  0.5325  0.2969 -0.7554
 6635SOL    HW220652   0.534   4.534   2.026 -0.8694 -0.9953 -0.2661
 6636SOL     OW20653   4.143   4.497   0.395 -0.2089 -0.1658 -0.1917
 6636SOL    HW120654   4.087   4.476   0.321  2.7573 -3.2173 -1.8582
 6636SOL    HW220655   4.103   4.451   0.469 -0.6259 -1.2312 -1.0432
 6637SOL     OW20656   4.775   2.767   4.453 -0.4133  0.0264 -0.2411
 6637SOL    HW120657   4.828   2.730   4.524 -0.5506  0.9286  0.3362
 6637SOL    HW220658   4.837   2.816   4.400 -0.9452  3.0909  1.7456
 6638SOL     OW20659   5.996   5.452   0.211 -0.3567  0.2318  0.1362
 6638SOL    HW120660   6.036   5.535   0.186  1.7432 -0.1789  1.7670
 6638SOL    HW220661   6.005   5.397   0.134 -0.8673  1.1971 -0.6302
 6639SOL     OW20662   5.355   4.773   6.072  0.0189 -0.1594  0.1325
 6639SOL    HW120663   5.338   4.710   6.142  0.4855  1.1122  1.4482
 6639SOL    HW220664   5.403   4.845   6.116  0.2904  0.6893 -1.4844
 6640SOL     OW20665   5.525   5.161   4.752  0.3015 -0.0413  0.1478
 6640SOL    HW120666   5.519   5.074   4.714  0.8487  0.5703 -1.3967
 6640SOL    HW220667   5.585   5.209   4.695  0.4969  1.1728  1.3164
 6641SOL     OW20668   2.296   1.523   4.137  0.7051  0.1007  0.5365
 6641SOL    HW120669   2.211   1.500   4.100  0.8175 -0.2464  0.4901
 6641SOL    HW220670   2.299   1.478   4.222  0.9755 -0.1647  0.3914
 6642SOL     OW20671   3.790   3.135   4.051 -0.1699 -0.4127 -0.2264
 6642SOL    HW120672   3.753   3.123   3.964 -0.5936 -1.5038  0.0764
 6642SOL    HW220673   3.721   3.180   4.100 -0.2951 -0.6218 -0.2102
 6643SOL     OW20674   3.270   4.030   3.543 -0.2082 -0.0467  0.3341
 6643SOL    HW120675   3.206   4.079   3.595 -0.7241 -0.4062  0.0566
 6643SOL    HW220676   3.228   4.019   3.458  0.1149 -0.5165  0.2315
 6644SOL     OW20677   2.312   6.177   1.191 -0.2804 -0.2849 -0.0904
 6644SOL    HW120678   2.220   6.197   1.206 -0.1886  0.7598 -0.7866
 6644SOL    HW220679   2.317   6.149   1.100  0.2925  1.1853 -0.5409
 6645SOL     OW20680   0.640   3.386   5.449  0.1687 -0.6367  0.1367
 6645SOL    HW120681   0.728   3.352   5.438 -0.4319 -2.3806  0.3554
 6645SOL    HW220682   0.652   3.468   5.498  1.6478 -0.7719  0.0512
 6646SOL     OW20683   4.510   4.911   1.907 -0.4142  0.4215 -0.5095
 6646SOL    HW120684   4.483   4.827   1.944 -0.5929  0.0190 -1.5324
 6646SOL    HW220685   4.450   4.975   1.946 -1.4437 -0.1721 -1.0961
 6647SOL     OW20686   0.475   2.988   4.820 -0.0681  0.6046 -0.1908
 6647SOL    HW120687   0.436   2.952   4.899 -0.3061  0.1512 -0.5077
 6647SOL    HW220688   0.460   3.082   4.826 -1.8242  0.3876 -0.6208
 6648SOL     OW20689   1.688   0.222   1.602  0.3550  0.2257  0.1032
 6648SOL    HW120690   1.649   0.296   1.649  1.8005  1.7271 -0.9228
 6648SOL    HW220691   1.715   0.161   1.670 -1.0337  0.5561  0.9754
 6649SOL     OW20692   4.604   1.077   5.222 -0.0573  0.1314  0.5662
 6649SOL    HW120693   4.565   1.165   5.225 -1.8838 -0.4906 -1.6257
 6649SOL    HW220694   4.666   1.081   5.149  0.9373 -0.0384  1.3819
 6650SOL     OW20695   0.402   1.018   2.570 -0.4816  0.0802  0.3808
 6650SOL    HW120696   0.317   0.995   2.608 -0.1543  0.8303  1.6243
 6650SOL    HW220697   0.457   1.040   2.645  1.1597 -1.4088 -0.3215
 6651SOL     OW20698   0.427   1.809   2.766 -0.0123  0.6462 -0.0118
 6651SOL    HW120699   0.456   1.742   2.705  0.5631  1.9925 -1.2747
 6651SOL    HW220700   0.332   1.797   2.771  0.3473 -2.4331  2.5203
 6652SOL     OW20701   3.925   5.932   5.616 -1.4126 -0.1273  0.1320
 6652SOL    HW120702   4.010   5.897   5.643 -0.8810  1.6715  0.9396
 6652SOL    HW220703   3.939   5.960   5.526 -0.5812  1.7088  0.7773
 6653SOL     OW20704   5.949   0.309   2.596 -0.0179 -0.3075 -0.2294
 6653SOL    HW120705   5.981   0.233   2.645 -2.1496 -1.7408 -0.9044
 6653SOL    HW220706   5.854   0.302   2.600 -0.2664  1.6869 -1.3230
 6654SOL     OW20707   2.839   5.422   2.951 -0.1589 -0.8343 -0.5906
 6654SOL    HW120708   2.886   5.349   2.911  1.3345 -0.8921  1.1115
 6654SOL    HW220709   2.822   5.393   3.041  2.4672  1.6211  0.8641
 6655SOL     OW20710   2.472   4.292   3.313  0.2589 -0.9030 -0.5441
 6655SOL    HW120711   2.557   4.315   3.351 -0.8979 -0.8163  2.1652
 6655SOL    HW220712   2.466   4.197   3.325  0.2549 -1.0154 -1.3873
 6656SOL     OW20713   0.893   3.213   3.673 -0.5906  0.0740  0.5093
 6656SOL    HW120714   0.873   3.268   3.749  1.8277 -0.2340  1.4402
 6656SOL    HW220715   0.896   3.275   3.600 -2.1206  0.4970  0.7617
 6657SOL     OW20716   1.688   3.074   1.625  0.2313 -0.0410 -0.1108
 6657SOL    HW120717   1.686   2.985   1.660 -0.6728 -1.0517 -2.5418
 6657SOL    HW220718   1.740   3.123   1.689  2.0760 -2.6252  0.5757
 6658SOL     OW20719   3.534   3.294   5.088  0.1475 -0.4615  0.0611
 6658SOL    HW120720   3.443   3.273   5.109  0.6475 -1.2048  1.6386
 6658SOL    HW220721   3.530   3.332   5.000 -1.3039 -3.6315 -1.4243
 6659SOL     OW20722   6.260   1.339   5.020  0.2797  0.0776  0.0973
 6659SOL    HW120723   6.307   1.422   5.010  0.2388  0.0312 -0.5281
 6659SOL    HW220724   6.255   1.325   5.115 -0.1703  1.0593  0.2335
 6660SOL     OW20725   0.586   3.959   0.336  0.1118  0.0332  0.4054
 6660SOL    HW120726   0.516   3.907   0.296  0.5543  0.7915 -1.4615
 6660SOL    HW220727   0.629   3.899   0.397 -0.5929 -1.1841 -0.2622
 6661SOL     OW20728   5.265   5.164   6.179  0.1292  0.1215 -0.6152
 6661SOL    HW120729   5.326   5.096   6.153  1.5522  1.3974 -0.7138
 6661SOL    HW220730   5.252   5.150   6.273  2.3160  1.1368 -0.1166
 6662SOL     OW20731   2.006   2.301   2.938 -0.4188 -0.0650 -0.0222
 6662SOL    HW120732   1.958   2.377   2.969 -1.8629 -0.9131 -0.0767
 6662SOL    HW220733   1.959   2.273   2.859  1.6479  0.5101 -1.5271
 6663SOL     OW20734   0.062   5.612   2.727  0.1290  0.3097 -0.1992
 6663SOL    HW120735  -0.006   5.614   2.660  0.0384  1.0020 -0.0877
 6663SOL    HW220736   0.092   5.521   2.727  1.1415  0.5812 -2.1837
 6664SOL     OW20737   4.449   4.677   2.037 -0.4452  0.7275  0.2976
 6664SOL    HW120738   4.501   4.668   2.117  0.0923  2.1293  0.1368
 6664SOL    HW220739   4.358   4.681   2.068 -0.3820 -0.5671  0.6771
 6665SOL     OW20740   0.614   4.768   2.814  0.1027 -0.5349 -0.3528
 6665SOL    HW120741   0.701   4.761   2.854 -0.1848 -1.1627  0.1831
 6665SOL    HW220742   0.563   4.700   2.857 -1.1252  0.8821  0.4982
 6666SOL     OW20743   3.581   5.894   3.457  0.6891 -0.0639  0.2667
 6666SOL    HW120744   3.501   5.859   3.416  0.5597 -0.7927  1.1261
 6666SOL    HW220745   3.597   5.837   3.531  2.0017  0.1060  0.1339
 6667SOL     OW20746   2.982   5.875   3.789  0.0296  0.0020 -0.9452
 6667SOL    HW120747   3.000   5.785   3.818  0.2823 -0.1921 -1.6687
 6667SOL    HW220748   3.006   5.875   3.696 -0.3847  0.7032 -1.0587
 6668SOL     OW20749   2.504   3.580   2.987 -0.0592  0.0600  0.3199
 6668SOL    HW120750   2.546   3.666   2.999 -0.3237  0.1092  0.9386
 6668SOL    HW220751   2.570   3.528   2.940 -0.4356  1.0180 -1.3432
 6669SOL     OW20752   4.006   4.673   4.391 -0.3572 -0.6093 -0.5141
 6669SOL    HW120753   3.942   4.711   4.451 -1.2556  0.9264 -2.3472
 6669SOL    HW220754   4.088   4.717   4.413 -0.5043 -0.6062  0.0607
 6670SOL     OW20755   1.039   2.635   5.788  0.1171 -0.0441  0.4683
 6670SOL    HW120756   1.021   2.729   5.778  1.6547  0.2020 -0.2364
 6670SOL    HW220757   1.074   2.627   5.877  1.1403  0.2617  0.1034
 6671SOL     OW20758   2.315   6.258   4.362 -0.0510  0.2289 -0.1624
 6671SOL    HW120759   2.267   6.221   4.436 -0.1784 -0.4988 -0.5956
 6671SOL    HW220760   2.301   6.195   4.290  0.9991  0.3354 -0.4818
 6672SOL     OW20761   5.940   0.342   0.763 -0.5632  0.2889 -0.0100
 6672SOL    HW120762   5.910   0.257   0.734 -1.4117  0.4452  0.3908
 6672SOL    HW220763   6.036   0.335   0.764 -0.5330  0.0034 -1.9251
 6673SOL     OW20764   4.302   1.828   3.231  0.5767 -0.1178  0.1478
 6673SOL    HW120765   4.312   1.767   3.303  1.8277 -1.0708 -0.7921
 6673SOL    HW220766   4.392   1.847   3.203  0.0986 -0.6321 -1.8561
 6674SOL     OW20767   4.332   6.150   5.830  0.3170  0.2096  0.4332
 6674SOL    HW120768   4.368   6.063   5.845 -1.6352 -0.5668  0.9969
 6674SOL    HW220769   4.292   6.174   5.914  0.2109  1.3505  0.0801
 6675SOL     OW20770   5.037   4.009   6.197  0.5104 -0.0584  0.0813
 6675SOL    HW120771   5.092   4.023   6.120  1.5373 -0.2144  0.7586
 6675SOL    HW220772   5.068   3.926   6.233 -1.8813 -1.4842 -0.9066
 6676SOL     OW20773   2.228   2.606   2.084 -0.2299  0.4432 -0.1722
 6676SOL    HW120774   2.208   2.565   2.169  0.0119  2.1188  0.7369
 6676SOL    HW220775   2.324   2.606   2.080 -0.2165  1.3477  0.0657
 6677SOL     OW20776   2.339   2.809   0.285 -0.4370  0.2597  0.0923
 6677SOL    HW120777   2.350   2.855   0.368 -0.3253  1.6973 -0.6930
 6677SOL    HW220778   2.428   2.794   0.253 -0.3956 -1.7429  0.9410
 6678SOL     OW20779   0.169   2.583   4.291 -0.1408 -0.0224 -0.0716
 6678SOL    HW120780   0.153   2.668   4.334 -1.4045  0.2280 -0.9898
 6678SOL    HW220781   0.091   2.532   4.310  0.0485 -0.5238 -0.6225
 6679SOL     OW20782   4.955   2.293   2.908  0.5983 -0.0667 -0.3453
 6679SOL    HW120783   5.020   2.315   2.841  0.1272  1.5239 -0.3212
 6679SOL    HW220784   4.877   2.342   2.882  0.4259  0.6400  1.3994
 6680SOL     OW20785   2.966   4.576   4.463 -0.3905 -0.4049 -0.0779
 6680SOL    HW120786   3.059   4.569   4.486 -0.0933  1.7948 -0.3738
 6680SOL    HW220787   2.924   4.506   4.513  0.9986  0.6343  2.7747
 6681SOL     OW20788   3.171   0.155   5.497 -0.3053  0.1651  0.3799
 6681SOL    HW120789   3.155   0.062   5.513  0.8581 -0.4913 -1.9042
 6681SOL    HW220790   3.115   0.200   5.560 -2.7809 -2.0560 -0.0758
 6682SOL     OW20791   3.771   6.232   0.958 -0.1726 -0.4360 -0.0914
 6682SOL    HW120792   3.859   6.205   0.982 -0.4693  0.3836  2.2731
 6682SOL    HW220793   3.744   6.172   0.889  2.5121 -0.1677 -1.4857
 6683SOL     OW20794   2.204   3.108   3.157  0.3398  0.3770 -0.3151
 6683SOL    HW120795   2.144   3.161   3.210 -0.4432 -2.3213  1.7115
 6683SOL    HW220796   2.288   3.115   3.201  0.3198  0.2144 -0.2506
 6684SOL     OW20797   3.471   2.902   2.724 -0.2705  0.0477  0.0885
 6684SOL    HW120798   3.429   2.865   2.647 -0.9470  1.5280 -0.2850
 6684SOL    HW220799   3.559   2.864   2.724 -1.4168 -2.8507  0.7150
 6685SOL     OW20800   1.818   0.438   2.450 -0.6594  0.3262 -0.3474
 6685SOL    HW120801   1.892   0.482   2.492  0.3392 -1.7418  0.1767
 6685SOL    HW220802   1.760   0.414   2.522  0.1743 -1.6101 -0.2488
 6686SOL     OW20803   2.805   0.240   4.470  0.2011 -0.0855  0.1406
 6686SOL    HW120804   2.854   0.287   4.538  0.2551  0.4599 -0.2757
 6686SOL    HW220805   2.723   0.216   4.513  0.7937 -0.9708  0.8291
 6687SOL     OW20806   1.830   4.538   1.003  0.0412 -0.2357 -0.2006
 6687SOL    HW120807   1.900   4.578   0.952  0.3626 -1.8107 -1.0763
 6687SOL    HW220808   1.764   4.513   0.939 -1.6601  1.7143  0.6623
 6688SOL     OW20809   2.680   0.326   1.754  0.0561 -0.4137  0.0681
 6688SOL    HW120810   2.711   0.268   1.825 -0.8153 -0.9963 -0.0095
 6688SOL    HW220811   2.675   0.268   1.678 -0.7283 -0.2126 -0.0351
 6689SOL     OW20812   5.344   4.660   5.084  0.3099 -0.4634  0.0864
 6689SOL    HW120813   5.388   4.744   5.069 -1.5210  0.5328  0.0351
 6689SOL    HW220814   5.329   4.625   4.996 -0.6502  0.1167  0.0020
 6690SOL     OW20815   1.461   4.728   0.172  0.2864  0.0556  0.2382
 6690SOL    HW120816   1.477   4.638   0.142 -0.8648  0.2582 -1.0781
 6690SOL    HW220817   1.528   4.780   0.127 -0.2856  0.1047 -0.5846
 6691SOL     OW20818   6.029   0.525   6.237 -0.6492 -0.1211 -0.3668
 6691SOL    HW120819   5.992   0.530   6.149 -1.3131 -1.4294 -0.1924
 6691SOL    HW220820   5.987   0.449   6.276  0.6860 -0.4029  0.5940
 6692SOL     OW20821   4.772   0.404   4.607 -0.4269 -0.1494  0.0613
 6692SOL    HW120822   4.696   0.439   4.654  0.1538  1.6002 -0.2251
 6692SOL    HW220823   4.847   0.425   4.663  0.1494  0.9302 -1.0766
 6693SOL     OW20824   1.872   2.837   0.980  0.1793  0.2144  0.5893
 6693SOL    HW120825   1.944   2.891   0.947  1.2674 -0.9412  0.9538
 6693SOL    HW220826   1.910   2.749   0.984 -0.8657 -0.1927  2.0479
 6694SOL     OW20827   2.211   1.059   5.719  0.4426  0.9475 -0.0872
 6694SOL    HW120828   2.116   1.064   5.722  0.2531 -0.5527 -1.7733
 6694SOL    HW220829   2.236   1.024   5.805 -0.5383  1.0530  0.2509
 6695SOL     OW20830   5.961   2.662   2.197 -0.2148 -0.7424 -0.4971
 6695SOL    HW120831   5.872   2.696   2.196 -0.5102 -1.4988 -0.3716
 6695SOL    HW220832   6.011   2.724   2.144 -0.7063 -0.0379 -0.1619
 6696SOL     OW20833   2.409   4.577   0.298  0.6434  0.0134 -0.0993
 6696SOL    HW120834   2.320   4.565   0.331  0.6893  0.2623  0.1186
 6696SOL    HW220835   2.446   4.646   0.354  1.0439 -0.2423 -0.0485
 6697SOL     OW20836   4.041   0.231   5.306 -0.1131 -0.2002 -0.8298
 6697SOL    HW120837   4.122   0.234   5.256 -0.2674  0.3109 -1.0545
 6697SOL    HW220838   3.975   0.265   5.246 -0.9300 -2.6966 -1.4652
 6698SOL     OW20839   1.371   4.507   3.362 -0.3763  0.0335 -0.7010
 6698SOL    HW120840   1.434   4.514   3.434 -2.1039  2.5855  0.7277
 6698SOL    HW220841   1.407   4.563   3.293 -0.3626  0.3790 -0.4207
 6699SOL     OW20842   2.586   3.473   6.168 -0.3691  0.3372  0.0245
 6699SOL    HW120843   2.624   3.547   6.214  1.1312 -1.0703  1.1614
 6699SOL    HW220844   2.634   3.468   6.085  1.7468 -1.1371  1.2451
 6700SOL     OW20845   3.167   2.633   5.947 -0.3835 -0.2847 -0.3151
 6700SOL    HW120846   3.263   2.632   5.955 -0.5558 -0.8644  4.5825
 6700SOL    HW220847   3.139   2.705   6.004 -2.9288 -0.6752 -0.9606
 6701SOL     OW20848   1.682   2.050   0.391  0.0891 -0.1672 -0.4922
 6701SOL    HW120849   1.731   2.007   0.320  0.7028 -1.1164  0.4748
 6701SOL    HW220850   1.694   1.992   0.467 -1.8581 -0.0013 -0.0009
 6702SOL     OW20851   2.838   4.404   5.868 -0.0717 -0.2845  0.2205
 6702SOL    HW120852   2.773   4.392   5.799  1.0483  0.0779 -0.9462
 6702SOL    HW220853   2.820   4.491   5.903 -0.8721 -0.6129  0.6483
 6703SOL     OW20854   2.190   4.025   0.514  0.0896  0.2924  0.4803
 6703SOL    HW120855   2.280   4.054   0.526  0.2638 -0.1950  0.3815
 6703SOL    HW220856   2.165   3.988   0.598  0.9516 -2.1480 -0.2389
 6704SOL     OW20857   0.719   3.903   3.093 -0.0490  0.1047 -0.3514
 6704SOL    HW120858   0.674   3.986   3.108 -1.1334 -0.5584  0.1870
 6704SOL    HW220859   0.720   3.860   3.178  2.6250  0.5443 -0.0862
 6705SOL     OW20860   5.756   2.891   0.830 -0.2703 -0.0706  0.2924
 6705SOL    HW120861   5.847   2.861   0.827 -0.2200 -0.0119  1.0298
 6705SOL    HW220862   5.732   2.886   0.923 -1.4840 -1.4537 -0.0571
 6706SOL     OW20863   1.695   3.016   0.873  0.0792 -0.0351  0.4653
 6706SOL    HW120864   1.751   3.091   0.890  2.0364 -1.0271 -1.2330
 6706SOL    HW220865   1.741   2.942   0.913 -1.0171 -0.6037  0.7318
 6707SOL     OW20866   5.899   0.810   0.231  0.1385 -0.3953  0.7993
 6707SOL    HW120867   5.874   0.789   0.141 -0.5895  1.9324  0.3828
 6707SOL    HW220868   5.994   0.795   0.234  0.3370  0.3770 -0.6581
 6708SOL     OW20869   0.600   5.526   1.785  0.4444 -0.0716  0.1839
 6708SOL    HW120870   0.560   5.567   1.708  0.1923  1.3927  1.0454
 6708SOL    HW220871   0.648   5.598   1.828  1.5075 -1.1087  0.8000
 6709SOL     OW20872   1.862   4.672   4.850  0.3187  0.0104 -0.4735
 6709SOL    HW120873   1.919   4.635   4.917  0.3045 -1.5051 -1.2610
 6709SOL    HW220874   1.923   4.699   4.780  0.1458 -1.0166 -1.0386
 6710SOL     OW20875   3.776   4.807   3.537  0.3253  0.0466 -0.1319
 6710SOL    HW120876   3.792   4.770   3.624  0.3137 -0.3073 -0.2750
 6710SOL    HW220877   3.681   4.805   3.528  0.3752 -1.1663 -0.6663
 6711SOL     OW20878   2.681   4.719   0.739  0.3590 -0.6043  0.2943
 6711SOL    HW120879   2.734   4.689   0.813  0.1381  0.2089  0.8000
 6711SOL    HW220880   2.713   4.669   0.665 -0.0756 -2.1619  1.1044
 6712SOL     OW20881   5.551   5.165   3.417  0.6065  0.0542  0.0445
 6712SOL    HW120882   5.517   5.106   3.484 -0.5186  0.8597  0.2136
 6712SOL    HW220883   5.509   5.249   3.436  2.1612  0.9086 -0.1955
 6713SOL     OW20884   3.702   0.470   5.561 -0.3507  0.2357  0.3518
 6713SOL    HW120885   3.691   0.537   5.493  0.6860  0.7117  0.6326
 6713SOL    HW220886   3.741   0.517   5.635 -1.3558 -0.3050  1.2431
 6714SOL     OW20887   3.851   2.616   0.922  0.1812 -0.0609 -0.1357
 6714SOL    HW120888   3.934   2.635   0.966  0.0194 -0.4171  0.3327
 6714SOL    HW220889   3.856   2.665   0.840  0.0772  1.4301  0.6972
 6715SOL     OW20890   1.584   0.300   4.944 -0.0658  0.1384  0.5239
 6715SOL    HW120891   1.510   0.349   4.980 -0.5975  0.3561 -0.7853
 6715SOL    HW220892   1.649   0.367   4.923 -0.1405  0.1220  0.2302
 6716SOL     OW20893   4.702   1.274   1.577 -0.0082 -0.0030 -0.1116
 6716SOL    HW120894   4.610   1.291   1.560 -0.0720  0.4108  0.6221
 6716SOL    HW220895   4.729   1.216   1.506 -1.0072 -0.7137  0.0767
 6717SOL     OW20896   5.903   3.789   0.650  0.1899 -0.2991  0.7144
 6717SOL    HW120897   5.890   3.695   0.638 -0.1963 -0.0347 -1.2804
 6717SOL    HW220898   5.825   3.829   0.613  0.8853  0.8575  0.4474
 6718SOL     OW20899   0.749   4.199   1.862 -0.0861  0.3566 -0.1141
 6718SOL    HW120900   0.716   4.111   1.840  1.7315  0.1471 -2.5080
 6718SOL    HW220901   0.681   4.259   1.831  0.1199 -0.1562 -1.6559
 6719SOL     OW20902   2.961   3.457   5.962  0.0493  0.4659  0.2742
 6719SOL    HW120903   3.025   3.431   6.028  1.4701  0.2238 -1.1387
 6719SOL    HW220904   3.006   3.524   5.910 -0.7615  0.1565 -0.8702
 6720SOL     OW20905   5.595   3.434   2.225 -0.5727  0.8095 -0.2940
 6720SOL    HW120906   5.552   3.458   2.143 -0.8128  1.0231 -0.1068
 6720SOL    HW220907   5.680   3.399   2.198 -0.6163  0.9562 -0.6278
 6721SOL     OW20908   0.618   4.156   6.162 -0.5586  0.3615 -0.0946
 6721SOL    HW120909   0.647   4.192   6.246 -0.3786  1.7569 -0.7294
 6721SOL    HW220910   0.659   4.212   6.097  1.2859 -2.1500 -1.2335
 6722SOL     OW20911   4.872   2.674   4.683  0.3361  0.7177 -0.3331
 6722SOL    HW120912   4.861   2.685   4.777  2.8170  3.7428 -0.2662
 6722SOL    HW220913   4.959   2.635   4.673 -0.6244 -1.3729 -1.4322
 6723SOL     OW20914   2.532   5.486   4.059 -0.1988  0.7145 -0.1350
 6723SOL    HW120915   2.604   5.430   4.029 -0.9160  0.4801 -1.5265
 6723SOL    HW220916   2.525   5.554   3.991 -0.0211  1.9061  1.0016
 6724SOL     OW20917   1.741   4.351   2.606  0.3393  0.1768  0.0253
 6724SOL    HW120918   1.759   4.269   2.560 -0.9437 -0.9210  1.3522
 6724SOL    HW220919   1.824   4.375   2.646  0.5120 -1.1230  0.5239
 6725SOL     OW20920   1.645   5.518   6.287  0.7834  0.2519 -0.0653
 6725SOL    HW120921   1.647   5.422   6.284 -0.6844  0.2360 -1.8530
 6725SOL    HW220922   1.705   5.546   6.219 -0.3524  0.5449 -0.9804
 6726SOL     OW20923   6.075   3.934   4.597 -0.1467 -0.3486  0.3133
 6726SOL    HW120924   6.133   3.907   4.668  0.9534  0.5190 -0.2317
 6726SOL    HW220925   6.110   3.890   4.520  0.6579  1.2355 -0.2741
 6727SOL     OW20926   0.116   2.153   4.254  0.2149 -0.2529 -0.6548
 6727SOL    HW120927   0.127   2.086   4.321 -0.2050  0.3140  0.0000
 6727SOL    HW220928   0.204   2.164   4.217  0.9351  0.8168  1.1915
 6728SOL     OW20929   3.093   5.560   5.837  0.3941 -0.2003  0.3720
 6728SOL    HW120930   3.000   5.549   5.819 -0.1463  1.1591  2.0990
 6728SOL    HW220931   3.112   5.496   5.906  0.7898 -0.5387 -0.0379
 6729SOL     OW20932   3.459   0.099   2.537  0.0707 -0.2119 -0.2048
 6729SOL    HW120933   3.414   0.055   2.465  1.3010 -0.2873 -0.9634
 6729SOL    HW220934   3.551   0.078   2.524  0.8776  3.1453 -1.0691
 6730SOL     OW20935   0.104   5.748   4.285  0.0497  0.2963  0.3538
 6730SOL    HW120936   0.037   5.733   4.353 -0.3380  0.4509  0.0102
 6730SOL    HW220937   0.139   5.661   4.267 -0.0329  0.2174  0.5634
 6731SOL     OW20938   5.602   1.246   1.328  0.0287  0.0162  0.1193
 6731SOL    HW120939   5.668   1.315   1.316  0.9980 -0.7756  0.7579
 6731SOL    HW220940   5.559   1.240   1.242  1.2365  0.0966 -0.5204
 6732SOL     OW20941   1.233   0.365   1.521  0.0242 -0.2024 -0.0660
 6732SOL    HW120942   1.308   0.408   1.480 -0.1854  0.1989 -0.0328
 6732SOL    HW220943   1.259   0.273   1.528  0.8297  0.0598  0.6587
 6733SOL     OW20944   1.761   0.018   0.909 -0.1969 -0.1846 -0.1638
 6733SOL    HW120945   1.765   0.020   1.004  0.4845  0.2299 -0.1978
 6733SOL    HW220946   1.687   0.075   0.886 -0.4193 -0.3602  0.1176
 6734SOL     OW20947   0.964   4.117   5.225  0.2567  0.1679  0.1176
 6734SOL    HW120948   1.014   4.082   5.151 -0.6884 -1.4228  0.1664
 6734SOL    HW220949   0.945   4.208   5.201 -0.2327 -0.3794 -1.7327
 6735SOL     OW20950   4.250   2.099   4.067  0.1472  0.3632  0.1112
 6735SOL    HW120951   4.156   2.116   4.070 -0.0579  0.0042 -2.2397
 6735SOL    HW220952   4.276   2.125   3.979  2.1773  0.0153  0.5593
 6736SOL     OW20953   3.510   3.379   1.217 -0.3696 -0.0444 -0.2185
 6736SOL    HW120954   3.442   3.400   1.280  0.2119 -0.6280  0.6390
 6736SOL    HW220955   3.591   3.378   1.269  0.2631  0.4453 -1.1687
 6737SOL     OW20956   5.949   4.830   0.636 -0.4774  0.5518  0.1549
 6737SOL    HW120957   6.031   4.801   0.676 -0.9575 -0.9520  0.0798
 6737SOL    HW220958   5.972   4.914   0.595  0.4520  1.3152  2.0678
 6738SOL     OW20959   0.731   4.686   3.854 -0.8437  0.1118  0.4913
 6738SOL    HW120960   0.658   4.736   3.890 -1.9010 -1.5930  0.7889
 6738SOL    HW220961   0.752   4.730   3.771 -1.4069  1.3207  0.9709
 6739SOL     OW20962   3.152   5.212   4.615 -0.1563  0.1510  0.6127
 6739SOL    HW120963   3.140   5.296   4.660  2.3196 -0.4466  2.6334
 6739SOL    HW220964   3.128   5.147   4.680 -1.7762 -0.7663 -0.8457
 6740SOL     OW20965   2.691   2.211   2.560  0.3485  0.5239  0.6803
 6740SOL    HW120966   2.653   2.263   2.489 -0.3967 -2.0689 -0.9617
 6740SOL    HW220967   2.629   2.220   2.632 -1.6184 -0.7580 -0.7394
 6741SOL     OW20968   1.295   3.530   0.773 -0.6473  0.1043 -0.0090
 6741SOL    HW120969   1.280   3.464   0.706 -1.5840  0.5482 -0.2487
 6741SOL    HW220970   1.325   3.607   0.725 -5.4855  1.9614 -0.6356
 6742SOL     OW20971   0.555   0.447   2.133  0.3942 -0.3845  0.1895
 6742SOL    HW120972   0.580   0.511   2.067 -0.1572  0.4445  0.7646
 6742SOL    HW220973   0.608   0.468   2.210  0.3084 -0.7071  0.3407
 6743SOL     OW20974   3.388   4.284   5.233  0.1317 -0.6743 -0.3977
 6743SOL    HW120975   3.422   4.200   5.266 -0.6542 -1.7471 -2.1295
 6743SOL    HW220976   3.371   4.336   5.311 -0.1345 -2.4580  0.7869
 6744SOL     OW20977   0.093   0.800   5.981 -0.0583  0.0508  0.3107
 6744SOL    HW120978   0.139   0.751   5.914  0.3080  0.4916  0.2404
 6744SOL    HW220979   0.001   0.774   5.970  0.1789 -0.9503  0.5622
 6745SOL     OW20980   2.793   4.818   4.830  0.0750 -0.2770 -0.1498
 6745SOL    HW120981   2.860   4.810   4.762  0.6169  0.2413  0.3224
 6745SOL    HW220982   2.763   4.728   4.843 -0.2053 -0.3607 -1.2346
 6746SOL     OW20983   2.884   4.766   0.305  0.3326 -0.0296  0.3916
 6746SOL    HW120984   2.905   4.742   0.395 -1.1755 -2.3387  0.2167
 6746SOL    HW220985   2.799   4.810   0.311 -2.1330 -4.1893 -0.1212
 6747SOL     OW20986   4.826   2.413   3.663 -0.0067  0.1424  0.0265
 6747SOL    HW120987   4.852   2.378   3.748  2.5608  0.3465 -0.5966
 6747SOL    HW220988   4.740   2.375   3.647 -0.1728 -0.6039  2.2903
 6748SOL     OW20989   0.428   1.723   0.909  0.5524  0.4775  0.0998
 6748SOL    HW120990   0.455   1.718   0.817 -0.0694  1.5534 -0.1661
 6748SOL    HW220991   0.374   1.802   0.913 -2.6560 -1.5522  0.5455
 6749SOL     OW20992   3.123   2.885   5.598  0.2111  0.4744  0.4356
 6749SOL    HW120993   3.121   2.966   5.547 -0.2510  0.4292  0.3801
 6749SOL    HW220994   3.062   2.826   5.553  1.2326 -0.2300 -0.0554
 6750SOL     OW20995   0.858   4.428   3.616  0.4960 -0.1205 -0.2196
 6750SOL    HW120996   0.917   4.432   3.541 -1.4011 -3.0011 -2.0671
 6750SOL    HW220997   0.772   4.449   3.579 -0.3996 -0.9741  1.2985
 6751SOL     OW20998   5.926   5.099   5.578 -0.2123 -0.4183  0.2375
 6751SOL    HW120999   5.968   5.173   5.534 -1.1537  0.1460  0.2394
 6751SOL    HW221000   5.961   5.022   5.536  0.6564  0.0402  0.1052
 6752SOL     OW21001   4.605   1.625   3.562 -0.4818  0.3458  0.0157
 6752SOL    HW121002   4.587   1.605   3.470  1.3330 -0.7124 -0.1670
 6752SOL    HW221003   4.532   1.586   3.610 -1.5955  1.1477 -0.9727
 6753SOL     OW21004   0.647   2.703   4.866 -0.1334  0.1325 -0.0590
 6753SOL    HW121005   0.715   2.639   4.845 -0.0684  0.8821 -2.4114
 6753SOL    HW221006   0.591   2.659   4.930  1.4385 -1.2198  0.4462
 6754SOL     OW21007   5.192   5.173   0.150  0.5017 -0.3483 -0.5190
 6754SOL    HW121008   5.173   5.082   0.125 -1.3490 -0.0658 -0.2128
 6754SOL    HW221009   5.119   5.199   0.206  0.5260  1.6303 -1.3223
 6755SOL     OW21010   0.952   5.299   4.953 -0.1296 -0.0455 -0.0387
 6755SOL    HW121011   0.926   5.373   5.007  0.0794 -0.1138  0.1600
 6755SOL    HW221012   1.019   5.254   5.006 -0.1144 -0.2602 -0.2417
 6756SOL     OW21013   2.044   2.875   5.652  0.4551 -0.1891 -0.0983
 6756SOL    HW121014   1.978   2.855   5.585  0.8190 -0.0620 -0.4994
 6756SOL    HW221015   2.119   2.821   5.627  0.4707 -0.4136  0.4179
 6757SOL     OW21016   1.906   3.640   3.393  0.2950  0.0083 -0.1286
 6757SOL    HW121017   1.877   3.551   3.410 -0.4659  0.5790  1.6943
 6757SOL    HW221018   2.001   3.632   3.380  0.1076 -1.1610 -0.9722
 6758SOL     OW21019   3.915   3.241   3.357 -0.5257  0.4268 -0.2173
 6758SOL    HW121020   3.871   3.169   3.402  0.6715 -0.8255 -0.9817
 6758SOL    HW221021   3.980   3.272   3.420  1.0619 -1.2401 -0.9369
 6759SOL     OW21022   4.039   3.382   1.038 -0.2614  0.3369 -0.2134
 6759SOL    HW121023   3.966   3.377   0.976  0.2041 -0.0926 -0.7456
 6759SOL    HW221024   4.090   3.303   1.020 -0.3969 -0.0636  1.0847
 6760SOL     OW21025   4.015   6.281   6.147  0.8686 -0.1927  0.0132
 6760SOL    HW121026   3.999   6.265   6.240 -0.7031  0.4165 -0.1236
 6760SOL    HW221027   4.104   6.249   6.132  1.4162  0.3563  1.8754
 6761SOL     OW21028   0.735   5.162   1.521 -0.1301  0.2525  0.2970
 6761SOL    HW121029   0.780   5.103   1.461  0.3574 -0.3767  1.2561
 6761SOL    HW221030   0.785   5.244   1.516  0.6944 -0.2067  0.8012
 6762SOL     OW21031   2.473   5.141   5.724  0.0306  0.2537 -0.6245
 6762SOL    HW121032   2.445   5.092   5.801 -0.6100  2.3746  0.5459
 6762SOL    HW221033   2.565   5.116   5.712 -0.2475 -1.1479 -0.0436
 6763SOL     OW21034   2.415   4.272   0.159 -0.3533  0.6705  0.1512
 6763SOL    HW121035   2.320   4.264   0.167 -0.4364 -0.7021 -1.6190
 6763SOL    HW221036   2.430   4.363   0.133 -1.0821  1.1547  1.3545
 6764SOL     OW21037   2.797   2.959   6.061  0.1577 -0.0317 -0.0343
 6764SOL    HW121038   2.789   2.923   5.973 -0.1906  0.7022 -0.3074
 6764SOL    HW221039   2.795   3.054   6.049  0.4606  0.0782  0.7304
 6765SOL     OW21040   2.310   3.893   5.428 -0.7090  0.1071  0.4624
 6765SOL    HW121041   2.269   3.961   5.376 -0.4253 -0.5890 -0.6983
 6765SOL    HW221042   2.400   3.921   5.439 -0.8134  0.3406  0.7525
 6766SOL     OW21043   3.830   4.680   6.017 -0.7422 -0.2253  0.0429
 6766SOL    HW121044   3.742   4.699   5.984 -1.4268 -1.4827  1.0692
 6766SOL    HW221045   3.843   4.587   5.998  0.8410  0.1986 -1.1126
 6767SOL     OW21046   5.291   3.677   4.064 -0.1281 -0.1053 -0.3068
 6767SOL    HW121047   5.259   3.607   4.121 -1.9272  1.7243  1.1120
 6767SOL    HW221048   5.379   3.695   4.095 -0.4198 -0.3627  0.7141
 6768SOL     OW21049   3.069   2.017   5.693  1.0150 -0.1565  0.5357
 6768SOL    HW121050   3.098   2.105   5.669  0.2937 -0.2010 -0.5838
 6768SOL    HW221051   3.088   1.963   5.616 -0.3417 -0.5486  0.4369
 6769SOL     OW21052   4.395   0.165   5.615  0.2470 -0.5529 -0.1919
 6769SOL    HW121053   4.432   0.252   5.626 -1.4801  0.1936  0.0874
 6769SOL    HW221054   4.462   0.105   5.647  1.7174  0.6159 -0.9763
 6770SOL     OW21055   4.368   5.817   4.735  0.3436 -0.0037 -0.0252
 6770SOL    HW121056   4.378   5.870   4.814  2.2094 -1.8885  1.1140
 6770SOL    HW221057   4.457   5.791   4.712 -0.1725  0.2490 -2.6426
 6771SOL     OW21058   3.915   2.676   2.845 -0.1868  0.0570  0.4488
 6771SOL    HW121059   3.923   2.735   2.920  0.5127  0.5290  0.0178
 6771SOL    HW221060   4.005   2.647   2.828 -0.4534 -0.6997  0.3082
 6772SOL     OW21061   5.514   0.314   1.685 -0.0188 -0.4898  0.4242
 6772SOL    HW121062   5.478   0.376   1.622 -0.8608 -0.3421  1.0212
 6772SOL    HW221063   5.460   0.236   1.677 -1.2691  0.1396  2.1245
 6773SOL     OW21064   1.863   3.188   5.420  0.4186 -0.1323  0.0178
 6773SOL    HW121065   1.925   3.118   5.401  1.1925  0.0925  1.5434
 6773SOL    HW221066   1.915   3.254   5.467 -0.2739  1.5013 -1.3926
 6774SOL     OW21067   6.094   2.977   2.195  0.1449 -0.3881  0.0380
 6774SOL    HW121068   6.053   2.982   2.109  1.7872  1.1813 -0.7364
 6774SOL    HW221069   6.022   2.992   2.256 -0.7924  0.2274 -1.1546
 6775SOL     OW21070   3.164   4.878   5.803  0.0392  0.3668  0.0790
 6775SOL    HW121071   3.221   4.931   5.858  0.1621 -0.4085  0.7240
 6775SOL    HW221072   3.154   4.796   5.851 -0.1516 -0.1938 -0.8850
 6776SOL     OW21073   2.014   3.440   5.887  0.7842 -0.3976 -0.2536
 6776SOL    HW121074   1.936   3.411   5.840  1.3550 -0.6928 -1.0463
 6776SOL    HW221075   2.036   3.524   5.847 -0.1884  0.6035  1.2420
 6777SOL     OW21076   4.759   0.302   0.964  0.2252 -0.7643 -0.3160
 6777SOL    HW121077   4.794   0.385   0.930 -2.1597  0.3845 -0.1518
 6777SOL    HW221078   4.714   0.263   0.889  1.5513 -2.1243 -0.4699
 6778SOL     OW21079   1.208   4.313   6.140  0.2545 -0.4262 -0.7634
 6778SOL    HW121080   1.119   4.347   6.128 -0.0850 -1.6460 -1.8724
 6778SOL    HW221081   1.199   4.244   6.205  0.7246  0.6373  0.4807
 6779SOL     OW21082   1.009   4.697   1.920  0.1149 -0.4067 -0.2507
 6779SOL    HW121083   1.016   4.605   1.946  1.1790 -0.4791 -0.7582
 6779SOL    HW221084   1.066   4.743   1.981 -1.3976  0.1099  0.8316
 6780SOL     OW21085   4.901   2.100   5.305  0.8551  0.1096 -0.1749
 6780SOL    HW121086   4.993   2.102   5.281  0.7898 -0.6552 -0.5105
 6780SOL    HW221087   4.854   2.111   5.222  0.6322 -2.0485 -0.3930
 6781SOL     OW21088   1.651   3.399   1.199  0.1501 -0.0134 -0.2211
 6781SOL    HW121089   1.614   3.477   1.158  0.7990 -0.1186 -1.0390
 6781SOL    HW221090   1.745   3.409   1.190  0.3125 -0.1515  1.0921
 6782SOL     OW21091   5.844   1.166   5.587 -0.1235  0.3058 -0.1343
 6782SOL    HW121092   5.786   1.205   5.652 -1.8217 -0.6355 -1.0036
 6782SOL    HW221093   5.859   1.077   5.619  1.1553  0.6335  0.2436
 6783SOL     OW21094   0.938   5.780   0.885  0.3925 -0.2091 -0.5691
 6783SOL    HW121095   0.866   5.719   0.873  0.4644 -0.2437 -0.8237
 6783SOL    HW221096   1.016   5.732   0.855  0.5660 -0.2817 -0.0070
 6784SOL     OW21097   0.699   0.278   5.410 -0.2405 -0.2234  0.9326
 6784SOL    HW121098   0.624   0.233   5.448 -0.5134 -1.2611 -0.6985
 6784SOL    HW221099   0.757   0.207   5.382 -0.0106  0.4742 -0.4379
 6785SOL     OW21100   3.799   1.019   2.438  0.1819  0.4299 -0.1324
 6785SOL    HW121101   3.788   1.068   2.356 -3.1590  1.5595  0.8110
 6785SOL    HW221102   3.720   0.965   2.445  1.4218 -1.3278  1.3293
 6786SOL     OW21103   1.091   1.837   0.591  0.1672  0.5651  0.7457
 6786SOL    HW121104   1.033   1.911   0.577 -1.5485 -0.7070  0.8434
 6786SOL    HW221105   1.120   1.812   0.503  0.7394  1.2980  0.7111
 6787SOL     OW21106   3.658   3.668   4.764  1.0280  0.9422 -0.2631
 6787SOL    HW121107   3.652   3.749   4.714  0.7862  0.5965 -0.8103
 6787SOL    HW221108   3.752   3.654   4.776  1.0697  1.2792 -0.2002
 6788SOL     OW21109   2.313   0.189   5.957  0.0843 -0.4130 -0.1971
 6788SOL    HW121110   2.399   0.148   5.943 -0.1458 -0.3470 -1.9348
 6788SOL    HW221111   2.308   0.257   5.890  0.0279  1.8683  1.9856
 6789SOL     OW21112   0.088   3.053   3.206 -0.2311  0.0068 -0.4572
 6789SOL    HW121113   0.012   3.013   3.164 -0.5483  0.2789 -0.1546
 6789SOL    HW221114   0.146   3.077   3.133 -1.7297  2.4393 -0.9561
 6790SOL     OW21115   2.546   6.025   4.182  0.2434 -0.1706  0.7782
 6790SOL    HW121116   2.530   5.962   4.252  0.0338 -0.4247  0.5022
 6790SOL    HW221117   2.631   6.064   4.204 -0.4216  0.7100  1.9014
 6791SOL     OW21118   0.538   3.004   2.195 -0.3584  0.4457 -0.5772
 6791SOL    HW121119   0.505   2.998   2.105 -1.0584  0.1872 -0.3082
 6791SOL    HW221120   0.479   3.065   2.239 -0.1168  0.4483 -0.2497
 6792SOL     OW21121   4.267   0.950   5.436 -0.2918  0.3411 -0.4388
 6792SOL    HW121122   4.289   1.034   5.395 -1.5560  1.6944  1.4897
 6792SOL    HW221123   4.339   0.933   5.496 -0.2675  0.2818 -0.4844
 6793SOL     OW21124   2.740   5.332   1.237 -0.0581  0.4891 -0.1580
 6793SOL    HW121125   2.687   5.332   1.158 -0.4425  0.1656  0.0947
 6793SOL    HW221126   2.789   5.250   1.233  0.4368  0.7931 -0.3966
 6794SOL     OW21127   1.493   3.979   1.632 -0.1325 -0.5208 -0.4686
 6794SOL    HW121128   1.583   4.011   1.639 -0.8062  1.2415  0.8599
 6794SOL    HW221129   1.498   3.909   1.567  2.1996 -0.5310 -0.3725
 6795SOL     OW21130   3.086   1.658   5.573  0.7814  0.1667  0.6904
 6795SOL    HW121131   3.040   1.641   5.655  1.0712 -2.1549  0.4315
 6795SOL    HW221132   3.178   1.647   5.595  0.8460 -0.7039  0.0237
 6796SOL     OW21133   2.252   2.440   5.842  0.2510  0.3601 -0.2713
 6796SOL    HW121134   2.198   2.510   5.878 -0.1405  0.0956 -0.3365
 6796SOL    HW221135   2.333   2.443   5.893  0.6601  1.5228 -0.9545
 6797SOL     OW21136   3.018   4.779   4.695  0.2696 -0.3346  0.0005
 6797SOL    HW121137   3.111   4.761   4.712 -0.2356 -0.8176  2.6271
 6797SOL    HW221138   2.983   4.696   4.663 -0.0457 -1.4438  2.9498
 6798SOL     OW21139   1.389   2.416   0.073 -0.0965 -0.6099  0.0925
 6798SOL    HW121140   1.338   2.480   0.122 -0.3064 -0.4502 -0.3250
 6798SOL    HW221141   1.452   2.380   0.136 -1.6195 -1.8168  0.9958
 6799SOL     OW21142   3.574   2.578   1.873  0.2385  0.2145  0.3327
 6799SOL    HW121143   3.523   2.639   1.926 -2.8503 -0.6479 -1.4148
 6799SOL    HW221144   3.513   2.507   1.852  3.3402 -3.0938  1.4034
 6800SOL     OW21145   6.009   5.885   3.768 -0.4065  0.2058 -0.4919
 6800SOL    HW121146   6.050   5.818   3.823 -0.9698 -1.6634 -2.2047
 6800SOL    HW221147   5.935   5.916   3.820  0.2066 -0.0881  0.5845
 6801SOL     OW21148   4.094   3.273   0.778  0.1689 -0.7837 -0.6657
 6801SOL    HW121149   4.008   3.309   0.756 -0.2159  0.9420  2.9709
 6801SOL    HW221150   4.154   3.318   0.719 -1.1368  0.0052 -1.4565
 6802SOL     OW21151   4.690   1.960   5.644 -0.0325  0.0456 -0.0020
 6802SOL    HW121152   4.725   1.898   5.580  0.7408  1.3495 -0.8968
 6802SOL    HW221153   4.626   2.012   5.594 -0.2765  0.3219  0.5869
 6803SOL     OW21154   5.124   4.060   0.539  0.1783  0.4533  0.5606
 6803SOL    HW121155   5.182   4.051   0.464  0.3878 -0.4142  0.8069
 6803SOL    HW221156   5.122   4.154   0.558  1.5190  0.4948  0.5549
 6804SOL     OW21157   1.709   1.078   3.724 -0.5146  0.3188  0.1160
 6804SOL    HW121158   1.678   1.000   3.770 -1.0779  0.0659 -0.6786
 6804SOL    HW221159   1.632   1.110   3.677 -0.5743  1.9323  1.2097
 6805SOL     OW21160   4.481   5.312   4.195  0.8438  0.6316 -0.5465
 6805SOL    HW121161   4.519   5.350   4.115  1.1442  0.9441 -0.2609
 6805SOL    HW221162   4.409   5.372   4.217  0.8164  0.5940 -0.5354
 6806SOL     OW21163   1.744   2.844   4.454  0.3749 -0.5556 -0.4380
 6806SOL    HW121164   1.833   2.829   4.485 -0.0105 -0.5753  0.7053
 6806SOL    HW221165   1.688   2.826   4.530 -0.5120  0.7500 -0.7302
 6807SOL     OW21166   2.619   4.445   5.266 -0.4367 -0.6651 -0.3605
 6807SOL    HW121167   2.714   4.442   5.280 -0.3547 -1.6577 -0.9994
 6807SOL    HW221168   2.606   4.397   5.184 -1.7161 -2.6216  0.9037
 6808SOL     OW21169   5.504   5.199   5.569 -0.4395 -0.0858 -0.1214
 6808SOL    HW121170   5.586   5.233   5.603 -1.0779  0.8815  0.5048
 6808SOL    HW221171   5.449   5.186   5.646 -0.2399 -2.6200 -0.3185
 6809SOL     OW21172   0.283   4.625   0.449  0.0693 -0.3609 -0.4356
 6809SOL    HW121173   0.376   4.610   0.469  0.5644  1.0717 -1.4271
 6809SOL    HW221174   0.248   4.539   0.428  1.7426 -0.6776 -2.1733
 6810SOL     OW21175   3.885   5.144   0.550  0.5641 -0.4642  0.6180
 6810SOL    HW121176   3.886   5.202   0.627 -0.6727  2.3997 -1.3352
 6810SOL    HW221177   3.957   5.176   0.495 -0.4099 -0.4408 -0.6974
 6811SOL     OW21178   3.254   0.317   4.965  0.0872 -1.0693 -0.3225
 6811SOL    HW121179   3.216   0.229   4.967  1.0233 -1.4932 -0.6353
 6811SOL    HW221180   3.272   0.332   4.872 -0.5695 -0.3124 -0.3424
 6812SOL     OW21181   5.232   5.839   5.975 -0.1314  0.1896 -0.1878
 6812SOL    HW121182   5.271   5.896   6.042  0.2359 -0.6437  0.3292
 6812SOL    HW221183   5.253   5.881   5.892  1.5987 -0.0323  0.0924
 6813SOL     OW21184   1.368   2.603   0.758  0.1007 -0.3220 -1.2134
 6813SOL    HW121185   1.433   2.641   0.699 -1.2866  2.1325 -1.3070
 6813SOL    HW221186   1.417   2.543   0.814  2.1238  0.2280 -2.3311
 6814SOL     OW21187   6.223   4.804   0.694 -0.2561  0.5041 -0.4847
 6814SOL    HW121188   6.240   4.789   0.601  1.0432 -1.9777  0.0560
 6814SOL    HW221189   6.309   4.805   0.734 -0.7631  2.2780  0.6458
 6815SOL     OW21190   5.771   2.095   4.625  0.1749 -0.2950  0.1406
 6815SOL    HW121191   5.865   2.108   4.608 -0.1537  0.9841 -0.9028
 6815SOL    HW221192   5.746   2.170   4.680 -0.8651  1.3123 -2.3261
 6816SOL     OW21193   0.658   2.127   2.831  0.2317  0.4621 -0.1966
 6816SOL    HW121194   0.633   2.197   2.891 -0.3994 -0.1108  0.2133
 6816SOL    HW221195   0.672   2.171   2.747 -2.2554  0.8208 -0.4967
 6817SOL     OW21196   6.222   2.626   1.797  0.2177 -0.3636 -0.2996
 6817SOL    HW121197   6.202   2.657   1.885  0.6253  2.6397 -1.1538
 6817SOL    HW221198   6.140   2.590   1.764  0.2363 -2.1921  1.4836
 6818SOL     OW21199   2.520   3.361   2.331 -0.5581  0.0989 -0.3266
 6818SOL    HW121200   2.581   3.432   2.311 -0.4224  0.0916  0.0630
 6818SOL    HW221201   2.568   3.281   2.310 -0.9827  0.1308 -1.5298
 6819SOL     OW21202   1.300   6.230   0.007  0.3007 -0.7265 -0.1721
 6819SOL    HW121203   1.242   6.302   0.031  0.4249 -0.5907 -0.2770
 6819SOL    HW221204   1.281   6.213  -0.085  0.5251 -0.5891 -0.2444
 6820SOL     OW21205   6.054   1.130   4.302 -0.5113 -0.4609  0.2502
 6820SOL    HW121206   6.001   1.079   4.241 -0.4046 -1.3555  0.8844
 6820SOL    HW221207   6.015   1.113   4.388  0.8523 -1.2513  0.7519
 6821SOL     OW21208   1.273   1.308   3.043 -0.2246  0.4735 -0.3919
 6821SOL    HW121209   1.329   1.354   3.106  1.1129  0.0113 -1.1889
 6821SOL    HW221210   1.279   1.216   3.069 -1.4979  0.5164  0.1460
 6822SOL     OW21211   1.627   3.689   1.167  0.3027 -0.2916  0.2759
 6822SOL    HW121212   1.700   3.689   1.228  0.1994 -1.1041  0.4023
 6822SOL    HW221213   1.560   3.743   1.210  0.4463 -0.3811  0.6107
 6823SOL     OW21214   3.884   0.452   4.655 -0.2259  0.3021 -0.5995
 6823SOL    HW121215   3.912   0.368   4.620 -0.7500  0.6768 -1.9768
 6823SOL    HW221216   3.940   0.516   4.612 -1.0285  0.7924 -0.9279
 6824SOL     OW21217   2.420   0.440   3.696 -0.2386 -0.5183 -0.2830
 6824SOL    HW121218   2.460   0.524   3.673  0.1584 -0.8524 -0.8446
 6824SOL    HW221219   2.349   0.430   3.632 -0.3735 -0.5433 -0.1282
 6825SOL     OW21220   6.043   3.984   4.158 -0.0593 -0.0054 -0.0271
 6825SOL    HW121221   6.070   4.034   4.081  0.1240 -1.3557 -0.8767
 6825SOL    HW221222   6.054   4.044   4.231 -1.0971  1.6068 -1.1479
 6826SOL     OW21223   2.455   3.587   3.266 -0.4427 -0.7900  0.2377
 6826SOL    HW121224   2.375   3.606   3.217  0.3823  0.0510 -0.8250
 6826SOL    HW221225   2.526   3.617   3.209  0.5516  0.5283  2.0955
 6827SOL     OW21226   4.359   0.800   5.822 -0.5700  0.1217  0.1798
 6827SOL    HW121227   4.275   0.757   5.814 -0.7620  0.5351 -0.0686
 6827SOL    HW221228   4.385   0.820   5.732 -0.0998 -0.2049  0.2380
 6828SOL     OW21229   1.803   0.648   0.753 -0.6374 -0.1454 -0.5901
 6828SOL    HW121230   1.850   0.605   0.824 -0.1414  0.0684 -0.7797
 6828SOL    HW221231   1.724   0.684   0.794  0.5271  1.5783  0.2690
 6829SOL     OW21232   3.897   2.677   6.282 -0.2172  0.1852  0.4573
 6829SOL    HW121233   3.877   2.750   6.223 -2.0425  0.8638  1.8247
 6829SOL    HW221234   3.875   2.599   6.231 -1.7354  0.7510  0.1859
 6830SOL     OW21235   2.552   2.846   2.039 -0.5413 -0.0657 -0.1184
 6830SOL    HW121236   2.594   2.871   1.957 -4.0787  0.6516 -1.9183
 6830SOL    HW221237   2.581   2.912   2.102  0.2317  0.9430 -1.4772
 6831SOL     OW21238   3.702   3.406   1.030 -0.0708  0.0961  0.2331
 6831SOL    HW121239   3.614   3.397   1.065  0.6602 -0.4579  2.0139
 6831SOL    HW221240   3.753   3.339   1.075  1.1399 -0.0641 -1.2648
 6832SOL     OW21241   0.268   4.645   5.402 -0.7195  0.1564 -0.4463
 6832SOL    HW121242   0.260   4.609   5.490  2.0367 -1.6065 -0.8116
 6832SOL    HW221243   0.304   4.733   5.416  0.0591 -0.2519  0.1747
 6833SOL     OW21244   2.371   6.180   2.714  0.5103  0.2370  0.0088
 6833SOL    HW121245   2.397   6.091   2.737  0.0934  0.3866  1.0937
 6833SOL    HW221246   2.442   6.235   2.746  1.1524  0.2494 -1.3697
 6834SOL     OW21247   0.419   0.358   0.312 -0.0204 -0.5054 -0.8782
 6834SOL    HW121248   0.504   0.396   0.290 -0.7628  1.5784 -0.3954
 6834SOL    HW221249   0.400   0.393   0.399 -0.9064 -1.8283 -0.5124
 6835SOL     OW21250   4.829   6.028   0.354 -0.0496 -0.1754 -0.2165
 6835SOL    HW121251   4.766   6.028   0.282  0.3136 -1.2548 -0.5473
 6835SOL    HW221252   4.865   5.940   0.355 -0.3533 -0.3133  1.5680
 6836SOL     OW21253   5.016   2.550   6.036  0.3428  0.0826 -0.2010
 6836SOL    HW121254   5.090   2.523   5.982 -0.5612 -0.5982 -1.1130
 6836SOL    HW221255   4.975   2.468   6.063  0.3815  0.4328  0.9814
 6837SOL     OW21256   1.344   5.118   1.600  0.3328  0.0042 -0.2391
 6837SOL    HW121257   1.438   5.133   1.591  0.3761 -0.9783 -1.9343
 6837SOL    HW221258   1.331   5.100   1.693  1.6175  1.3227  0.2274
 6838SOL     OW21259   1.122   2.503   2.209  0.2692 -0.1774  0.0603
 6838SOL    HW121260   1.138   2.580   2.263 -1.3607 -0.0207  0.3634
 6838SOL    HW221261   1.086   2.537   2.127 -0.0834 -0.5868  0.0395
 6839SOL     OW21262   0.323   3.090   0.780 -0.4791 -0.1397 -0.3896
 6839SOL    HW121263   0.350   2.999   0.766 -0.4217 -0.2392  0.3278
 6839SOL    HW221264   0.403   3.140   0.767 -0.0558 -0.3804  1.1430
 6840SOL     OW21265   5.216   0.637   2.612  0.4804  0.3117 -0.5379
 6840SOL    HW121266   5.175   0.578   2.548  2.2723 -0.1348 -1.3488
 6840SOL    HW221267   5.224   0.720   2.566  2.8859 -0.3249 -1.4732
 6841SOL     OW21268   2.042   3.336   2.964  0.1932 -0.2016 -0.2255
 6841SOL    HW121269   2.078   3.356   3.050  0.4177  0.5235 -0.4746
 6841SOL    HW221270   2.084   3.254   2.938 -2.5125 -2.4355  1.8553
 6842SOL     OW21271   1.324   3.031   2.152  0.2121 -0.0016 -0.6422
 6842SOL    HW121272   1.260   3.101   2.162  0.3729 -0.0964  1.4835
 6842SOL    HW221273   1.353   3.037   2.061 -1.3158  1.3234 -1.0769
 6843SOL     OW21274   2.596   6.281   2.830  0.0103 -0.2432 -0.2649
 6843SOL    HW121275   2.635   6.266   2.916  0.2350 -1.1317 -0.5136
 6843SOL    HW221276   2.619   6.372   2.808  2.5679 -0.9434 -0.7232
 6844SOL     OW21277   2.389   4.535   6.112 -0.0743  0.4528  0.0809
 6844SOL    HW121278   2.306   4.561   6.152 -0.1325  1.0193 -0.3937
 6844SOL    HW221279   2.427   4.473   6.174 -1.5867 -1.0619 -0.4415
 6845SOL     OW21280   6.129   0.082   4.327 -0.2620 -0.0613  0.1997
 6845SOL    HW121281   6.047   0.052   4.287 -0.1978 -0.6848  0.5167
 6845SOL    HW221282   6.171   0.001   4.358  0.4381  0.2606  0.1041
 6846SOL     OW21283   0.708   3.462   0.648 -0.2488  0.0805  0.2822
 6846SOL    HW121284   0.802   3.447   0.663  0.6589  1.4994 -3.1089
 6846SOL    HW221285   0.682   3.523   0.718  1.4999  0.1944  0.8868
 6847SOL     OW21286   1.886   1.092   5.194  0.2086  0.0553 -0.1047
 6847SOL    HW121287   1.831   1.086   5.272 -1.2292 -0.5841 -1.1151
 6847SOL    HW221288   1.825   1.080   5.121  1.2296  2.2199 -1.4159
 6848SOL     OW21289   0.924   4.109   2.125  0.4664 -0.3200  0.1441
 6848SOL    HW121290   0.879   4.138   2.204  0.5654  0.7215 -0.1639
 6848SOL    HW221291   1.006   4.071   2.156  1.1213  1.2899  0.4875
 6849SOL     OW21292   4.769   3.195   5.790 -0.0988 -0.4383  0.0335
 6849SOL    HW121293   4.706   3.125   5.776  0.8062 -1.1515 -0.5949
 6849SOL    HW221294   4.787   3.193   5.884  0.2599 -1.3475 -0.0514
 6850SOL     OW21295   0.921   5.067   0.341  0.5634 -0.3029  0.8200
 6850SOL    HW121296   0.829   5.094   0.340  0.3488 -1.0275  0.6288
 6850SOL    HW221297   0.970   5.149   0.328 -0.1300 -0.2664 -2.4334
 6851SOL     OW21298   2.904   3.816   4.319 -0.5308 -0.0847 -0.1071
 6851SOL    HW121299   2.976   3.764   4.356 -1.6376 -0.8358  1.0480
 6851SOL    HW221300   2.943   3.858   4.242  0.6090 -2.0703 -0.6939
 6852SOL     OW21301   0.200   2.088   2.186  0.1772 -0.4356  0.0779
 6852SOL    HW121302   0.183   2.043   2.269  0.7024 -1.6023 -0.4267
 6852SOL    HW221303   0.252   2.164   2.209 -3.0002  1.5851  1.3175
 6853SOL     OW21304   2.043   6.198   2.862 -0.5806 -0.6096 -0.3720
 6853SOL    HW121305   2.125   6.243   2.882 -0.1517 -0.7473 -1.7618
 6853SOL    HW221306   2.064   6.105   2.873 -0.5965 -0.6371 -0.5785
 6854SOL     OW21307   5.989   1.822   2.582 -0.9920 -0.3127  0.5699
 6854SOL    HW121308   6.054   1.811   2.651 -0.8163  0.5373  0.5592
 6854SOL    HW221309   5.967   1.915   2.585 -0.0728  0.0087 -1.3188
 6855SOL     OW21310   3.424   5.803   1.415 -0.0660 -0.4128 -0.0938
 6855SOL    HW121311   3.377   5.720   1.422  0.0440 -0.3474  1.7640
 6855SOL    HW221312   3.360   5.863   1.376 -1.3160 -0.5160  1.6994
 6856SOL     OW21313   4.738   3.186   3.780  0.6171 -0.2087  0.1718
 6856SOL    HW121314   4.713   3.196   3.689 -0.3379 -0.0912  0.4339
 6856SOL    HW221315   4.675   3.239   3.829  1.2954 -0.0205  0.8846
 6857SOL     OW21316   2.007   5.227   4.841  0.3543  0.0240  0.8407
 6857SOL    HW121317   1.948   5.173   4.787 -0.1379 -0.0595  1.4415
 6857SOL    HW221318   2.009   5.182   4.925  0.2930  0.7028  1.2111
 6858SOL     OW21319   5.648   5.199   5.335  1.3525 -0.1422  0.1078
 6858SOL    HW121320   5.553   5.201   5.340  1.4099  0.1541  1.4859
 6858SOL    HW221321   5.671   5.106   5.340  1.1824 -0.1324  1.4348
 6859SOL     OW21322   3.436   0.025   2.272  0.2298  0.2935  0.2492
 6859SOL    HW121323   3.464  -0.065   2.284  0.8409  0.6475  1.6162
 6859SOL    HW221324   3.476   0.051   2.188  0.6268 -0.4809  0.1905
 6860SOL     OW21325   5.707   5.286   5.755  0.1481 -0.0878 -0.3964
 6860SOL    HW121326   5.758   5.206   5.750 -0.9930 -0.7811 -1.3631
 6860SOL    HW221327   5.773   5.356   5.749  1.0908 -0.9379 -0.3096
 6861SOL     OW21328   2.921   5.403   6.210 -0.0183 -0.2052  0.1849
 6861SOL    HW121329   2.830   5.412   6.237 -0.4820 -2.8549 -0.2833
 6861SOL    HW221330   2.971   5.412   6.291 -0.7966 -0.3610  0.6956
 6862SOL     OW21331   5.745   0.505   3.983 -0.3517  0.4315  0.4235
 6862SOL    HW121332   5.839   0.515   3.997 -0.4376  0.6928  0.8149
 6862SOL    HW221333   5.705   0.569   4.042 -0.7892  0.0427  0.5462
 6863SOL     OW21334   0.267   3.531   2.144 -0.1359 -0.3057 -0.2537
 6863SOL    HW121335   0.213   3.466   2.187  1.2475 -0.8153  0.7902
 6863SOL    HW221336   0.344   3.483   2.113  1.1988  0.8802  1.0654
 6864SOL     OW21337   5.507   1.227   5.411  0.4837  0.5832 -0.0780
 6864SOL    HW121338   5.514   1.321   5.395 -1.5912  0.6820 -0.7627
 6864SOL    HW221339   5.540   1.215   5.500  0.6895  1.9762  0.0623
 6865SOL     OW21340   5.703   4.397   5.878  0.1870  0.2801  0.0201
 6865SOL    HW121341   5.633   4.344   5.839  0.7572  0.1093 -0.7977
 6865SOL    HW221342   5.664   4.485   5.885 -0.0682  0.2217 -0.5612
 6866SOL     OW21343   2.710   3.824   3.714  0.0339  0.0723  0.1167
 6866SOL    HW121344   2.679   3.853   3.628 -0.7833  1.4725  0.8437
 6866SOL    HW221345   2.757   3.900   3.749 -0.9919  0.0998  1.5243
 6867SOL     OW21346   3.665   5.576   3.949 -0.1949  0.3202  0.0804
 6867SOL    HW121347   3.744   5.540   3.908 -0.4061 -0.4262  0.3117
 6867SOL    HW221348   3.607   5.500   3.961 -0.3738  0.6100  1.2040
 6868SOL     OW21349   0.281   3.541   5.807  0.0202  0.3452  0.4746
 6868SOL    HW121350   0.374   3.542   5.829  0.4135  0.8513 -1.1158
 6868SOL    HW221351   0.237   3.527   5.891  1.5731 -1.5843  1.0402
 6869SOL     OW21352   5.852   0.329   3.306  0.3859  0.3760 -0.0298
 6869SOL    HW121353   5.812   0.251   3.269 -1.0174  0.5847  0.9638
 6869SOL    HW221354   5.836   0.398   3.241  1.4497 -0.0942 -0.8139
 6870SOL     OW21355   0.973   2.611   2.022 -0.1001  0.0558  0.0787
 6870SOL    HW121356   0.900   2.630   2.080  1.1043  1.1820  1.2925
 6870SOL    HW221357   0.976   2.685   1.962  0.3194  0.2523  0.3363
 6871SOL     OW21358   6.102   5.247   4.392  0.2518  0.2600 -0.3483
 6871SOL    HW121359   6.193   5.273   4.401  0.3090 -0.5774  2.2813
 6871SOL    HW221360   6.054   5.307   4.449 -0.3003 -1.6124  1.2967
 6872SOL     OW21361   2.843   1.222   5.174  0.0263  0.3797  0.4095
 6872SOL    HW121362   2.818   1.173   5.096  1.4508 -1.5484  1.1149
 6872SOL    HW221363   2.920   1.273   5.148 -0.1698  0.6095  0.2709
 6873SOL     OW21364   2.356   2.765   4.794  0.1759  0.5469  0.0559
 6873SOL    HW121365   2.353   2.674   4.764  0.1596  0.4021  0.4909
 6873SOL    HW221366   2.272   2.779   4.838  0.1547  0.7902 -0.0601
 6874SOL     OW21367   5.750   1.661   5.974  0.4093  0.0728  0.6859
 6874SOL    HW121368   5.783   1.751   5.968  1.4855 -0.3994 -1.1249
 6874SOL    HW221369   5.656   1.671   5.990  0.1393  1.5894 -1.4088
 6875SOL     OW21370   1.517   4.833   4.550 -0.1914 -0.4914  0.1858
 6875SOL    HW121371   1.500   4.904   4.612  0.0001 -0.8976  0.7206
 6875SOL    HW221372   1.544   4.876   4.469 -1.5114  0.0932  0.0302
 6876SOL     OW21373   4.534   5.700   4.314 -0.7752 -0.2210 -0.3103
 6876SOL    HW121374   4.520   5.716   4.221 -0.4099 -1.1784 -0.5431
 6876SOL    HW221375   4.617   5.744   4.334 -0.6156 -0.4130 -0.5491
 6877SOL     OW21376   5.025   0.310   1.313  0.1419 -0.0645 -0.0302
 6877SOL    HW121377   5.050   0.390   1.268 -0.6934  0.8192  1.0343
 6877SOL    HW221378   5.087   0.244   1.281  2.0100  1.3991  0.4090
 6878SOL     OW21379   4.068   4.321   4.721 -0.7132  0.2055  0.1612
 6878SOL    HW121380   3.997   4.287   4.775 -1.7886  2.0672 -0.0158
 6878SOL    HW221381   4.026   4.350   4.640  0.4866 -0.0396 -0.5828
 6879SOL     OW21382   1.905   5.592   4.036  0.5952  0.2067 -0.1014
 6879SOL    HW121383   1.884   5.682   4.012  1.7047 -0.0715 -2.4171
 6879SOL    HW221384   1.857   5.539   3.972  1.9530 -0.7051 -0.4079
 6880SOL     OW21385   4.549   5.051   5.364  0.1586  0.2951 -0.2585
 6880SOL    HW121386   4.521   5.080   5.451  0.0450  0.4470 -0.3437
 6880SOL    HW221387   4.633   5.095   5.350 -0.0000  0.5648 -0.3761
 6881SOL     OW21388   4.519   3.823   1.681 -0.6805 -0.5224 -0.1762
 6881SOL    HW121389   4.557   3.879   1.749  2.0775 -3.8444  1.3440
 6881SOL    HW221390   4.539   3.868   1.599  1.9221  0.5178  0.9155
 6882SOL     OW21391   0.166   4.162   1.693  0.0235 -0.3201 -0.2515
 6882SOL    HW121392   0.091   4.164   1.752  1.5808 -0.6877  1.8570
 6882SOL    HW221393   0.171   4.251   1.657 -2.0276 -0.5872 -1.3150
 6883SOL     OW21394   2.389   1.228   0.428  0.3291  0.0940 -0.2415
 6883SOL    HW121395   2.426   1.224   0.339  0.8794 -0.0111 -0.0099
 6883SOL    HW221396   2.457   1.191   0.484 -0.1191 -0.0738  0.1971
 6884SOL     OW21397   5.707   5.653   1.864 -0.3772 -0.0282  0.0466
 6884SOL    HW121398   5.618   5.683   1.846 -0.2216  0.8252  0.6107
 6884SOL    HW221399   5.736   5.614   1.782 -1.3841 -0.6264 -0.0442
 6885SOL     OW21400   4.187   1.812   2.130  0.7427  0.1648  0.0699
 6885SOL    HW121401   4.115   1.750   2.145 -0.7184  1.6800 -0.3222
 6885SOL    HW221402   4.253   1.787   2.194 -0.0899 -1.3325  0.4119
 6886SOL     OW21403   2.604   1.963   2.218  0.2520 -0.3578  0.4571
 6886SOL    HW121404   2.663   2.036   2.198  0.2256 -0.1532  1.1107
 6886SOL    HW221405   2.583   1.974   2.311  0.7607 -1.5753  0.7264
 6887SOL     OW21406   3.162   1.042   0.132 -0.2582 -0.4029  0.0451
 6887SOL    HW121407   3.153   1.037   0.227  1.1131  0.1860  0.2397
 6887SOL    HW221408   3.207   0.961   0.107 -0.3274 -0.4124 -0.0499
 6888SOL     OW21409   1.417   1.199   3.680 -0.3387 -0.7285  0.4293
 6888SOL    HW121410   1.357   1.273   3.685  0.5603  0.1637 -1.0414
 6888SOL    HW221411   1.393   1.154   3.599 -0.1016 -1.3301  0.6910
 6889SOL     OW21412   0.259   0.999   4.920 -0.3072  0.2323 -0.3185
 6889SOL    HW121413   0.211   0.917   4.933 -0.6202 -0.0729 -2.7553
 6889SOL    HW221414   0.332   0.975   4.863  0.4324  1.4057  0.1069
 6890SOL     OW21415   1.939   1.627   0.407 -0.1627  0.5069 -0.2310
 6890SOL    HW121416   1.925   1.656   0.497  0.5056  0.3998 -0.0890
 6890SOL    HW221417   1.857   1.582   0.383 -1.0072  1.9993 -0.2760
 6891SOL     OW21418   5.757   4.986   5.029  0.3850 -0.3003 -0.3464
 6891SOL    HW121419   5.703   5.032   4.966  2.2494  1.3451 -0.8406
 6891SOL    HW221420   5.802   4.919   4.977  0.4152 -0.2724 -0.3562
 6892SOL     OW21421   4.676   3.397   4.695  0.2960 -0.2204 -0.3935
 6892SOL    HW121422   4.769   3.408   4.678 -0.2659  1.6961 -2.6267
 6892SOL    HW221423   4.657   3.458   4.766  1.1083 -2.4133  1.8706
 6893SOL     OW21424   1.423   4.887   3.010 -0.0599  0.6150  0.2355
 6893SOL    HW121425   1.413   4.919   2.920  1.3536  2.1829  0.5854
 6893SOL    HW221426   1.426   4.792   3.001  1.4491  0.7664 -1.5574
 6894SOL     OW21427   2.516   1.186   3.506  0.0741  0.7114 -0.2975
 6894SOL    HW121428   2.459   1.261   3.520 -0.4235  0.3659 -0.4768
 6894SOL    HW221429   2.497   1.127   3.579  0.3071  0.6577 -0.2776
 6895SOL     OW21430   2.015   0.753   3.998  0.3456  0.0953 -0.7018
 6895SOL    HW121431   2.000   0.817   3.930  1.1082  0.5402 -0.4610
 6895SOL    HW221432   1.956   0.779   4.069 -1.1856 -0.9471 -1.5343
 6896SOL     OW21433   4.580   2.964   2.621 -0.1110  0.1948 -0.0659
 6896SOL    HW121434   4.508   3.004   2.572 -0.4897  0.6667  0.8463
 6896SOL    HW221435   4.623   3.038   2.664  1.9103  0.1262 -1.7974
 6897SOL     OW21436   1.507   5.822   4.022  0.0280  0.1421 -0.0561
 6897SOL    HW121437   1.516   5.910   4.059  0.7878 -0.1243  0.4106
 6897SOL    HW221438   1.572   5.770   4.068  1.3831 -0.0851 -2.1268
 6898SOL     OW21439   1.617   6.262   5.521  0.5920  0.7625 -0.5070
 6898SOL    HW121440   1.543   6.313   5.553  0.4723 -0.3448  1.1193
 6898SOL    HW221441   1.601   6.252   5.427 -0.9311  1.1528 -0.3088
 6899SOL     OW21442   1.828   1.727   0.636 -0.2714  0.5085  0.1629
 6899SOL    HW121443   1.794   1.755   0.722 -1.5363  0.9403 -0.4427
 6899SOL    HW221444   1.755   1.678   0.597  0.7803 -0.8933 -0.1168
 6900SOL     OW21445   1.706   4.662   5.972  0.1826  0.4011  0.1554
 6900SOL    HW121446   1.639   4.716   5.929  0.3950 -0.7184 -1.6693
 6900SOL    HW221447   1.670   4.574   5.972  0.3766  0.2763  1.9845
 6901SOL     OW21448   2.497   3.827   2.452 -0.0076 -0.4630  0.0770
 6901SOL    HW121449   2.536   3.741   2.436 -0.8333 -0.6549 -1.0202
 6901SOL    HW221450   2.418   3.827   2.398 -0.0825  0.9444  0.1706
 6902SOL     OW21451   5.148   4.349   1.873  0.5340 -0.3480 -0.0963
 6902SOL    HW121452   5.243   4.353   1.865  0.6173 -1.8465 -0.0571
 6902SOL    HW221453   5.123   4.265   1.836 -0.9603  0.6353 -1.4802
 6903SOL     OW21454   3.605   3.689   0.036  0.3193 -0.3385  0.0283
 6903SOL    HW121455   3.527   3.634   0.030  0.4507 -0.5885  0.5397
 6903SOL    HW221456   3.672   3.643  -0.015  0.2290 -0.2926 -0.1325
 6904SOL     OW21457   4.341   2.466   3.865  0.0302  0.2327  0.2393
 6904SOL    HW121458   4.375   2.547   3.903 -0.5543 -0.0433  1.4145
 6904SOL    HW221459   4.416   2.406   3.866  0.5866  0.8710 -1.0577
 6905SOL     OW21460   3.693   4.720   0.290  0.4519 -0.0466  0.6949
 6905SOL    HW121461   3.630   4.788   0.312  1.4649  0.9762  0.5095
 6905SOL    HW221462   3.676   4.702   0.197 -0.5232 -0.8389  1.0027
 6906SOL     OW21463   4.587   4.673   0.547 -0.0848  0.2586 -0.8620
 6906SOL    HW121464   4.625   4.757   0.524  0.6028  0.1618 -0.1023
 6906SOL    HW221465   4.655   4.628   0.596 -1.1567  0.0694  0.5103
 6907SOL     OW21466   3.344   4.541   0.670 -0.0476  1.1518  0.2110
 6907SOL    HW121467   3.386   4.518   0.752 -1.5457  0.4423  0.8103
 6907SOL    HW221468   3.390   4.620   0.641  0.6037  1.3223  1.6359
 6908SOL     OW21469   1.730   5.438   3.911 -0.0617 -0.4041 -0.9841
 6908SOL    HW121470   1.753   5.375   3.844  0.7837 -1.0528 -0.1132
 6908SOL    HW221471   1.634   5.435   3.915 -0.0832 -0.8544 -1.6751
 6909SOL     OW21472   5.395   0.504   5.238  0.0174 -0.4722 -0.0136
 6909SOL    HW121473   5.392   0.583   5.184  1.7120  0.1076  0.6798
 6909SOL    HW221474   5.432   0.437   5.182  0.7701 -0.1498  0.0859
 6910SOL     OW21475   1.179   3.360   1.899 -0.6140 -0.2915 -0.4287
 6910SOL    HW121476   1.195   3.453   1.882  1.2188 -0.1993  1.4749
 6910SOL    HW221477   1.259   3.316   1.872 -0.6663 -1.0610  0.6459
 6911SOL     OW21478   3.427   2.209   4.521  0.1668 -0.2033 -0.3323
 6911SOL    HW121479   3.348   2.184   4.472  1.0329 -0.1678 -1.7778
 6911SOL    HW221480   3.474   2.268   4.463  0.7622  0.6218  0.9427
 6912SOL     OW21481   0.419   3.518   3.846 -0.3455  0.3936 -0.8893
 6912SOL    HW121482   0.335   3.546   3.810 -0.7234  0.8601  0.2901
 6912SOL    HW221483   0.483   3.577   3.806 -0.9144  1.7725  0.1166
 6913SOL     OW21484   3.007   3.180   2.166 -0.2846  0.0251  0.1198
 6913SOL    HW121485   2.967   3.266   2.157  0.6879  0.2940 -3.1749
 6913SOL    HW221486   2.936   3.123   2.196 -2.1283  1.2291 -1.6649
 6914SOL     OW21487   1.640   3.079   4.733  0.0759  0.2584 -0.1795
 6914SOL    HW121488   1.589   3.152   4.767 -0.4937  0.2621 -1.0083
 6914SOL    HW221489   1.576   3.008   4.721  0.2775  0.2149 -1.0861
 6915SOL     OW21490   3.888   2.253   5.424 -0.3870  0.1480 -0.2616
 6915SOL    HW121491   3.847   2.252   5.337 -1.3208  0.0562  0.1659
 6915SOL    HW221492   3.968   2.202   5.413 -0.0070  0.9412 -1.2901
 6916SOL     OW21493   1.151   6.275   4.388  0.2014 -0.2346  0.0546
 6916SOL    HW121494   1.192   6.220   4.321  0.0126  0.7627 -0.9276
 6916SOL    HW221495   1.206   6.353   4.391 -0.8139  0.5161 -0.2687
 6917SOL     OW21496   2.105   0.543   0.669  0.5794 -0.3767 -0.3779
 6917SOL    HW121497   2.043   0.490   0.618 -0.4185  0.3982 -0.0029
 6917SOL    HW221498   2.140   0.483   0.735 -0.0675 -0.7312 -0.3528
 6918SOL     OW21499   3.319   1.686   2.589 -0.0493 -0.1340 -0.3519
 6918SOL    HW121500   3.342   1.593   2.578  1.7905  0.1310  0.7741
 6918SOL    HW221501   3.349   1.728   2.509  1.4491 -0.1492  0.1789
 6919SOL     OW21502   3.447   2.610   4.094  0.7085  0.3975 -0.0522
 6919SOL    HW121503   3.355   2.587   4.106  0.7092  0.8773  1.0014
 6919SOL    HW221504   3.476   2.555   4.021 -0.5339  0.6133 -0.7344
 6920SOL     OW21505   1.969   1.375   3.747  0.4850 -0.2612 -0.4306
 6920SOL    HW121506   1.893   1.339   3.794  1.3203 -1.8406 -0.2123
 6920SOL    HW221507   1.992   1.455   3.795 -0.7350 -0.0235 -0.2186
 6921SOL     OW21508   1.906   5.743   5.944 -0.0078  0.6984 -0.0433
 6921SOL    HW121509   1.904   5.669   5.884  1.4963 -0.8004  1.6201
 6921SOL    HW221510   1.814   5.759   5.966 -0.5024  0.6416 -1.9155
 6922SOL     OW21511   1.833   1.731   4.081  0.5900 -0.0805  0.3571
 6922SOL    HW121512   1.835   1.827   4.075  2.2590 -0.1373 -1.0009
 6922SOL    HW221513   1.765   1.705   4.019  0.4229  0.2060  0.4151
 6923SOL     OW21514   3.987   1.858   3.914 -0.7775 -0.0738  0.8280
 6923SOL    HW121515   3.968   1.882   4.004 -1.5785 -0.7322  0.8474
 6923SOL    HW221516   3.901   1.849   3.873 -0.4413  3.0244 -0.8053
 6924SOL     OW21517   2.773   2.499   5.680 -0.3063 -0.1435  0.0042
 6924SOL    HW121518   2.766   2.541   5.595  0.9005 -1.4182 -0.7733
 6924SOL    HW221519   2.847   2.542   5.723  0.2802 -0.7384 -0.3803
 6925SOL     OW21520   3.600   1.662   4.333  0.4702 -0.4558 -0.6345
 6925SOL    HW121521   3.559   1.675   4.418 -0.0862 -0.7385 -0.8533
 6925SOL    HW221522   3.682   1.710   4.338 -0.1695  0.6372 -0.4049
 6926SOL     OW21523   2.876   4.190   2.419 -0.0652 -0.5331 -0.3396
 6926SOL    HW121524   2.862   4.196   2.325  1.2489 -1.9274 -0.6718
 6926SOL    HW221525   2.971   4.201   2.429 -0.2172 -0.1897  0.8420
 6927SOL     OW21526   2.954   2.994   4.354  0.1830  0.1994 -0.3843
 6927SOL    HW121527   3.036   2.961   4.317  0.4153  0.5794 -0.2173
 6927SOL    HW221528   2.929   2.930   4.420  1.4678  1.1184  1.0854
 6928SOL     OW21529   5.885   4.137   1.259 -0.1470  0.7018 -0.2070
 6928SOL    HW121530   5.848   4.220   1.227 -0.7761  0.1916 -0.8480
 6928SOL    HW221531   5.808   4.082   1.277  0.2714 -0.1602 -0.9582
 6929SOL     OW21532   2.705   2.812   0.704  0.0587  0.4039 -0.2067
 6929SOL    HW121533   2.754   2.765   0.771 -2.4958  0.1591  1.6555
 6929SOL    HW221534   2.671   2.890   0.748 -1.8956  0.1219 -1.0683
 6930SOL     OW21535   3.536   4.811   2.846 -0.4244 -0.0182  0.0615
 6930SOL    HW121536   3.535   4.856   2.930 -1.3317 -0.2403  0.1873
 6930SOL    HW221537   3.526   4.881   2.781  2.8037  0.4484 -0.0684
 6931SOL     OW21538   0.124   1.532   3.999  0.5135  0.1230 -0.3927
 6931SOL    HW121539   0.106   1.623   3.978  0.0147 -0.0396 -0.6709
 6931SOL    HW221540   0.081   1.481   3.930  0.7058 -0.3282 -0.1897
 6932SOL     OW21541   0.879   3.127   2.960  0.1755  0.7192 -0.0828
 6932SOL    HW121542   0.822   3.138   2.884 -1.1249 -1.2370  0.5168
 6932SOL    HW221543   0.821   3.141   3.035 -0.0073 -2.7476  0.5711
 6933SOL     OW21544   5.445   0.989   1.839  0.0831  0.5389  0.4723
 6933SOL    HW121545   5.531   0.985   1.797 -0.2756 -1.0075 -0.1596
 6933SOL    HW221546   5.384   1.009   1.768 -0.6005 -2.6378 -0.0049
 6934SOL     OW21547   5.055   3.096   2.936 -0.2140  0.1161 -0.2678
 6934SOL    HW121548   5.115   3.031   2.902 -0.1629  1.0148 -2.0147
 6934SOL    HW221549   5.010   3.052   3.008  1.5531 -1.0072  0.2185
 6935SOL     OW21550   3.377   3.085   1.609  0.2832 -0.0219  0.2377
 6935SOL    HW121551   3.360   3.102   1.702 -0.4665 -2.3411  0.6020
 6935SOL    HW221552   3.300   3.120   1.564 -0.2918 -0.6260  0.7247
 6936SOL     OW21553   2.866   2.683   0.008 -0.1443 -0.1064  0.3867
 6936SOL    HW121554   2.793   2.630   0.039  0.2530 -0.8197  0.1260
 6936SOL    HW221555   2.913   2.626  -0.053  1.0278  0.0850  1.0765
 6937SOL     OW21556   2.469   3.884   1.781 -0.4703 -0.1096  0.4764
 6937SOL    HW121557   2.557   3.897   1.816 -0.3684 -0.0549  0.2001
 6937SOL    HW221558   2.445   3.796   1.809 -0.9588  0.4493  1.9193
 6938SOL     OW21559   3.610   1.998   2.128  0.2405 -0.0453 -0.1937
 6938SOL    HW121560   3.604   2.058   2.202  0.2160  1.2249 -1.1801
 6938SOL    HW221561   3.588   2.052   2.052  0.7599 -1.1821 -1.1861
 6939SOL     OW21562   1.146   5.628   5.894  0.1229  0.4118 -0.0481
 6939SOL    HW121563   1.145   5.695   5.826  0.2851 -1.0060 -1.5117
 6939SOL    HW221564   1.152   5.545   5.846 -0.1353 -0.6652  1.6899
 6940SOL     OW21565   4.566   4.736   3.047  0.2770  0.3380 -0.0535
 6940SOL    HW121566   4.567   4.741   2.951  1.3505  0.4037 -0.0533
 6940SOL    HW221567   4.643   4.786   3.074 -0.4824  1.0299  0.8924
 6941SOL     OW21568   1.515   4.095   4.494 -0.4711  0.3097 -0.1621
 6941SOL    HW121569   1.529   4.009   4.454 -1.2000 -0.0390  0.3165
 6941SOL    HW221570   1.581   4.100   4.563  0.0414  0.4417 -0.6454
 6942SOL     OW21571   3.304   4.829   1.824 -0.1796  0.0102 -0.2308
 6942SOL    HW121572   3.339   4.748   1.787 -0.5729 -0.7469  0.9784
 6942SOL    HW221573   3.228   4.849   1.769  1.3546  0.9715 -2.0793
 6943SOL     OW21574   1.771   1.470   4.644 -0.2736  0.3603  0.4487
 6943SOL    HW121575   1.820   1.487   4.563 -0.4495 -3.7564 -0.7543
 6943SOL    HW221576   1.839   1.456   4.710 -0.0428  0.9748  0.3470
 6944SOL     OW21577   1.506   4.782   3.907  0.4125 -0.1654  0.1692
 6944SOL    HW121578   1.438   4.723   3.938  1.3577 -1.0546  0.6308
 6944SOL    HW221579   1.481   4.804   3.817  0.4112 -1.8662 -0.2796
 6945SOL     OW21580   1.393   4.028   0.399  0.0503  0.1258 -0.2390
 6945SOL    HW121581   1.360   3.951   0.351  2.0301 -0.2985 -1.0307
 6945SOL    HW221582   1.317   4.061   0.445 -0.9020 -2.3171  0.1317
 6946SOL     OW21583   1.739   4.630   1.240  0.4011  0.3791  0.2321
 6946SOL    HW121584   1.757   4.587   1.157  1.5362 -0.2692  0.7921
 6946SOL    HW221585   1.658   4.589   1.272  0.4292  0.0294 -0.1445
 6947SOL     OW21586   1.985   5.514   4.273 -0.2908 -0.2723  0.1059
 6947SOL    HW121587   1.996   5.600   4.314 -0.3625 -0.8457  1.3679
 6947SOL    HW221588   1.948   5.533   4.187 -1.2743  0.9145  0.7605
 6948SOL     OW21589   2.738   1.081   2.655  0.5998  0.5824  0.2760
 6948SOL    HW121590   2.701   1.133   2.727 -0.4929 -1.0176  0.9416
 6948SOL    HW221591   2.831   1.101   2.657  0.2639  2.2962  0.6593
 6949SOL     OW21592   5.170   5.772   2.706  0.0679 -0.2716 -0.0461
 6949SOL    HW121593   5.157   5.859   2.743  0.1281  0.2065 -1.1191
 6949SOL    HW221594   5.237   5.731   2.762  0.8862  0.7947 -0.2265
 6950SOL     OW21595   1.754   3.893   2.416  0.5468  0.0469 -0.2099
 6950SOL    HW121596   1.795   3.877   2.501  0.5183 -0.2719 -0.2549
 6950SOL    HW221597   1.717   3.981   2.424 -0.7782 -0.5526  0.6386
 6951SOL     OW21598   0.218   2.793   3.899 -0.4396 -0.5577 -0.4882
 6951SOL    HW121599   0.194   2.812   3.808  0.3137 -0.3551 -0.6560
 6951SOL    HW221600   0.176   2.709   3.918 -0.8076 -0.4807 -0.9402
 6952SOL     OW21601   3.086   4.622   5.922 -0.4884  0.4223 -0.3758
 6952SOL    HW121602   3.152   4.639   5.990  0.0715  1.1639 -1.0887
 6952SOL    HW221603   3.077   4.526   5.922  0.3426  0.3295 -0.0415
 6953SOL     OW21604   5.859   3.474   4.214 -0.3994  0.2490 -0.5135
 6953SOL    HW121605   5.782   3.512   4.256  0.5578  0.4945  1.0921
 6953SOL    HW221606   5.848   3.495   4.121 -1.7477  1.1733 -0.1738
 6954SOL     OW21607   5.192   0.982   0.286 -0.2719 -0.0976 -0.2314
 6954SOL    HW121608   5.190   0.939   0.372 -0.6500  0.4053  0.0155
 6954SOL    HW221609   5.119   0.943   0.238  0.6522 -1.2409 -0.7588
 6955SOL     OW21610   1.059   5.198   4.138  0.1317 -0.0822 -0.7118
 6955SOL    HW121611   0.973   5.159   4.153  0.0941  0.3916  0.4016
 6955SOL    HW221612   1.054   5.233   4.049 -1.0443  0.4464 -0.4593
 6956SOL     OW21613   6.049   0.981   1.072 -0.2187  0.1702  0.1622
 6956SOL    HW121614   6.102   1.042   1.123 -0.1547 -0.0367  0.3495
 6956SOL    HW221615   6.091   0.977   0.987  0.1468 -0.0873  0.3500
 6957SOL     OW21616   2.914   0.901   3.020 -0.0330  0.0500  0.0343
 6957SOL    HW121617   2.887   0.905   3.111 -0.6419  1.3424 -0.1928
 6957SOL    HW221618   2.848   0.845   2.978  0.6626 -1.1703  0.4983
 6958SOL     OW21619   5.726   0.356   3.049  0.1277  1.2624  1.0105
 6958SOL    HW121620   5.773   0.273   3.050 -1.1762  0.1617 -3.3568
 6958SOL    HW221621   5.774   0.410   2.986 -1.3581  2.1393  0.5694
 6959SOL     OW21622   2.361   1.239   2.039 -0.1592 -0.1490  0.0378
 6959SOL    HW121623   2.439   1.270   2.085  0.0110 -0.9283  0.2761
 6959SOL    HW221624   2.287   1.272   2.091  0.0259 -0.5666  0.5635
 6960SOL     OW21625   1.328   1.814   3.633 -0.1991  0.0940  0.4090
 6960SOL    HW121626   1.312   1.802   3.727  0.6333  0.0888  0.5643
 6960SOL    HW221627   1.418   1.846   3.628 -0.6168  1.2128 -0.3302
 6961SOL     OW21628   3.021   2.722   2.527  0.2693 -0.8713  0.5027
 6961SOL    HW121629   3.004   2.669   2.605 -1.0312 -1.0723  0.1014
 6961SOL    HW221630   2.939   2.720   2.478  0.4000  0.9953  0.1512
 6962SOL     OW21631   5.737   4.309   3.687 -0.1332 -0.2288  0.0700
 6962SOL    HW121632   5.661   4.253   3.702 -0.1614 -0.5804 -1.2331
 6962SOL    HW221633   5.771   4.281   3.602  1.1183  0.3115  0.3632
 6963SOL     OW21634   5.054   2.363   0.645 -0.1363  0.8082 -0.3998
 6963SOL    HW121635   4.963   2.392   0.654 -0.2510  0.8236 -1.4557
 6963SOL    HW221636   5.055   2.311   0.565  0.5710 -0.1112  0.1719
 6964SOL     OW21637   4.668   1.337   3.384  0.4068 -0.2231 -0.2145
 6964SOL    HW121638   4.737   1.399   3.358  1.2323  0.6647  3.5137
 6964SOL    HW221639   4.586   1.383   3.365  0.9487  0.7535 -0.2656
 6965SOL     OW21640   2.002   5.554   3.101  0.2987 -0.7200 -0.2776
 6965SOL    HW121641   2.091   5.580   3.077  0.6252  0.3400  1.8557
 6965SOL    HW221642   1.951   5.635   3.094  0.2049 -0.5964  1.5253
 6966SOL     OW21643   4.419   6.016   1.420  0.2401  0.2376 -0.6631
 6966SOL    HW121644   4.432   5.926   1.392  1.3592  0.4069 -0.7358
 6966SOL    HW221645   4.371   6.009   1.503 -0.4098 -0.3772 -1.0835
 6967SOL     OW21646   5.289   4.125   0.318  0.1205  0.6390  0.2610
 6967SOL    HW121647   5.224   4.190   0.289 -1.2563 -0.0867  1.5902
 6967SOL    HW221648   5.364   4.139   0.260 -1.6157  0.7717 -2.1196
 6968SOL     OW21649   4.157   3.859   4.619  0.0354  0.0337  0.2753
 6968SOL    HW121650   4.219   3.840   4.548 -0.3985  0.2202 -0.1652
 6968SOL    HW221651   4.085   3.798   4.604 -0.4696  0.6727  0.0110
 6969SOL     OW21652   1.128   2.258   0.055 -0.2811 -0.3714  0.0091
 6969SOL    HW121653   1.216   2.295   0.051 -0.8429  0.8852 -2.7605
 6969SOL    HW221654   1.133   2.179   0.002 -0.8614 -0.1607 -0.3676
 6970SOL     OW21655   2.396   1.933   3.719 -0.1940  0.1057 -0.4573
 6970SOL    HW121656   2.453   1.931   3.642  1.0485  0.2883  0.4291
 6970SOL    HW221657   2.358   2.021   3.718  0.5050  0.4146 -0.3873
 6971SOL     OW21658   4.543   6.176   4.859  0.3345 -0.6942  0.1634
 6971SOL    HW121659   4.541   6.162   4.765  0.5116  0.8021 -0.0865
 6971SOL    HW221660   4.490   6.105   4.895  1.4768 -2.1549 -0.9271
 6972SOL     OW21661   0.392   3.307   4.140 -0.2641 -0.2648 -0.1866
 6972SOL    HW121662   0.300   3.289   4.159 -0.7750 -0.5719 -2.6235
 6972SOL    HW221663   0.406   3.272   4.052  2.3365 -0.6560  0.3066
 6973SOL     OW21664   0.590   2.376   3.266 -0.4689  0.0129 -0.5359
 6973SOL    HW121665   0.522   2.334   3.318  1.7196 -0.1298  2.4541
 6973SOL    HW221666   0.614   2.454   3.316  2.2428 -0.4902 -0.9159
 6974SOL     OW21667   5.254   5.286   5.467  0.1472  0.1985  0.7449
 6974SOL    HW121668   5.329   5.252   5.514 -0.6714  2.1156  3.7199
 6974SOL    HW221669   5.185   5.222   5.482  0.6644 -0.6647 -0.4490
 6975SOL     OW21670   0.744   1.833   2.148  0.3591 -0.3430  0.0229
 6975SOL    HW121671   0.701   1.855   2.231 -0.2643 -0.5113 -0.2500
 6975SOL    HW221672   0.706   1.893   2.085 -1.0261 -1.8349 -0.6387
 6976SOL     OW21673   3.530   1.807   5.026  0.1053 -0.2178 -0.0145
 6976SOL    HW121674   3.440   1.794   5.057  0.6186 -3.4426  0.4783
 6976SOL    HW221675   3.552   1.725   4.981  3.2484 -0.0858  1.0695
 6977SOL     OW21676   1.542   6.117   0.069  0.6849  0.0426  0.0479
 6977SOL    HW121677   1.448   6.136   0.067  0.4956 -0.7254  1.2305
 6977SOL    HW221678   1.549   6.026   0.040  1.1039  0.2178 -0.4115
 6978SOL     OW21679   3.729   3.438   3.841 -0.0059  0.4906  0.0772
 6978SOL    HW121680   3.720   3.365   3.779  1.0763 -0.0283  0.4969
 6978SOL    HW221681   3.704   3.515   3.791 -0.3244 -0.0639 -0.6386
 6979SOL     OW21682   0.520   4.510   4.996  0.3256 -0.1312  0.0590
 6979SOL    HW121683   0.538   4.586   5.051  0.9521  0.2653 -0.6691
 6979SOL    HW221684   0.578   4.442   5.030  1.5662  0.4533 -0.8079
 6980SOL     OW21685   3.554   0.116   4.438 -0.2995 -0.5605  0.0778
 6980SOL    HW121686   3.500   0.159   4.371 -1.1188 -0.0393  1.0388
 6980SOL    HW221687   3.643   0.144   4.418 -0.7405  1.1718  0.3030
 6981SOL     OW21688   2.231   0.499   2.808  0.0836 -0.5982 -0.0164
 6981SOL    HW121689   2.159   0.485   2.870 -0.8568  0.0605 -0.9219
 6981SOL    HW221690   2.284   0.420   2.815 -2.2506 -2.4473 -1.2819
 6982SOL     OW21691   0.848   4.030   0.238  0.1515 -0.1438 -0.0354
 6982SOL    HW121692   0.753   4.032   0.228  0.2294  1.0223 -0.7066
 6982SOL    HW221693   0.869   3.938   0.256 -1.0897 -0.4165  0.0484
 6983SOL     OW21694   0.841   1.902   4.183  0.2103  0.1365 -0.2056
 6983SOL    HW121695   0.803   1.862   4.104  1.0868 -0.1692 -0.4862
 6983SOL    HW221696   0.794   1.984   4.192 -1.4506 -0.8077  0.2255
 6984SOL     OW21697   0.185   5.447   1.159 -0.2214 -0.1860  0.5920
 6984SOL    HW121698   0.125   5.426   1.231 -0.2448 -0.5205  0.4765
 6984SOL    HW221699   0.133   5.499   1.098 -0.1544  0.2417  0.8954
 6985SOL     OW21700   2.274   3.899   3.616 -0.1273 -0.2592  0.0227
 6985SOL    HW121701   2.252   3.821   3.667 -1.0280 -0.1783 -0.2233
 6985SOL    HW221702   2.201   3.909   3.554 -0.5927  1.3819  0.7662
 6986SOL     OW21703   1.476   5.642   3.346 -0.0484  0.1418  0.2257
 6986SOL    HW121704   1.526   5.718   3.377 -0.1114  0.6005 -0.7469
 6986SOL    HW221705   1.524   5.611   3.270 -1.2822  0.6801 -0.8236
 6987SOL     OW21706   6.259   2.404   3.751  0.5551  0.1843 -0.1241
 6987SOL    HW121707   6.299   2.476   3.800  1.7177 -0.1775 -0.5252
 6987SOL    HW221708   6.305   2.326   3.780  1.9225  0.0541 -2.3959
 6988SOL     OW21709   4.935   3.342   4.276  0.1491 -0.0103 -0.0168
 6988SOL    HW121710   4.880   3.321   4.351  1.9220 -0.9638  1.0868
 6988SOL    HW221711   4.885   3.311   4.200 -1.2418  0.0731  0.8348
 6989SOL     OW21712   0.434   5.013   2.120 -0.4860  0.2646 -0.3560
 6989SOL    HW121713   0.463   5.101   2.097  0.9062 -0.2387 -0.6566
 6989SOL    HW221714   0.468   4.958   2.049 -0.4279 -0.6422  0.3633
 6990SOL     OW21715   0.949   0.142   4.228  0.3771  0.0681  0.1162
 6990SOL    HW121716   0.967   0.089   4.151 -0.2234  1.4611 -1.0421
 6990SOL    HW221717   0.985   0.093   4.302  2.4249 -0.5439 -1.2294
 6991SOL     OW21718   2.809   4.414   0.243  0.0462  0.0159 -0.7401
 6991SOL    HW121719   2.804   4.468   0.163  0.9596  1.1575 -0.0648
 6991SOL    HW221720   2.860   4.338   0.217  1.6086  1.0674 -0.9294
 6992SOL     OW21721   4.558   4.776   5.313  0.0672  0.7358 -0.0859
 6992SOL    HW121722   4.470   4.755   5.345  1.4094 -1.3021  2.5804
 6992SOL    HW221723   4.561   4.872   5.316 -1.0982  0.7953  2.8147
 6993SOL     OW21724   1.752   6.218   1.903 -0.3679  0.3589  0.6080
 6993SOL    HW121725   1.685   6.186   1.963  0.1338 -2.8012 -0.3586
 6993SOL    HW221726   1.744   6.163   1.825  2.4843  0.7007 -0.0476
 6994SOL     OW21727   3.606   5.457   5.000 -0.2950  0.0801  0.0790
 6994SOL    HW121728   3.548   5.413   5.063 -1.5112 -0.7656 -1.5623
 6994SOL    HW221729   3.688   5.408   5.006 -0.3736  0.0460  1.0427
 6995SOL     OW21730   5.947   5.071   5.849 -0.5867 -0.3738  0.4375
 6995SOL    HW121731   5.938   5.077   5.753 -1.2863  0.2259  0.5232
 6995SOL    HW221732   5.986   4.985   5.864 -0.7640 -0.6122 -0.3739
 6996SOL     OW21733   2.235   1.103   3.061 -0.1887 -0.0926 -0.0216
 6996SOL    HW121734   2.236   1.008   3.045  2.8229 -0.0584 -0.4693
 6996SOL    HW221735   2.248   1.142   2.975  1.8405  0.5765  0.5352
 6997SOL     OW21736   0.732   3.665   6.300  0.5155 -0.5310  0.3728
 6997SOL    HW121737   0.733   3.740   6.240  0.7819  0.8089  1.9793
 6997SOL    HW221738   0.640   3.638   6.302  0.2028  0.4983  0.6295
 6998SOL     OW21739   2.361   5.727   0.578 -0.3056 -0.0228  0.1890
 6998SOL    HW121740   2.312   5.646   0.561  0.4109 -0.6051  0.7738
 6998SOL    HW221741   2.352   5.778   0.498  0.7937 -1.5189 -0.9750
 6999SOL     OW21742   2.955   4.583   5.095  0.5526 -0.3814 -0.6404
 6999SOL    HW121743   2.950   4.490   5.074 -0.3646 -0.5077  0.0869
 6999SOL    HW221744   2.879   4.622   5.052  1.4301  0.2089 -1.7211
 7000SOL     OW21745   0.671   4.190   1.311  0.5775 -0.2362 -0.2521
 7000SOL    HW121746   0.588   4.164   1.351  1.1800 -1.2806  0.3523
 7000SOL    HW221747   0.737   4.142   1.360  1.6748  1.5504  0.1273
 7001SOL     OW21748   4.575   1.597   2.123  0.8541 -0.4829 -0.5957
 7001SOL    HW121749   4.574   1.596   2.219  2.0270  0.3344 -0.5484
 7001SOL    HW221750   4.570   1.505   2.097 -2.7919 -0.6302  0.1433
 7002SOL     OW21751   0.443   0.073   1.201 -0.9851 -0.4734  0.1604
 7002SOL    HW121752   0.386  -0.004   1.207 -2.3784  0.4481 -0.4396
 7002SOL    HW221753   0.436   0.100   1.109 -0.1642  0.1175  0.2601
 7003SOL     OW21754   4.584   3.237   3.569  0.0357 -0.1308  0.0290
 7003SOL    HW121755   4.560   3.328   3.587  1.3545 -0.1476  2.3990
 7003SOL    HW221756   4.501   3.189   3.572 -0.6977  0.9840 -1.4370
 7004SOL     OW21757   6.045   5.728   0.168 -0.3714 -0.3542 -0.1307
 7004SOL    HW121758   6.078   5.783   0.096  0.7816  0.0745  0.6879
 7004SOL    HW221759   5.961   5.767   0.190 -0.2123  0.2248 -0.4907
 7005SOL     OW21760   5.556   0.168   4.266  0.5077  0.0326 -0.2055
 7005SOL    HW121761   5.548   0.224   4.344  0.3882 -0.0379 -0.1671
 7005SOL    HW221762   5.643   0.189   4.230  0.6173 -0.0279  0.0203
 7006SOL     OW21763   5.299   4.918   0.658 -0.4250  0.3187 -0.1067
 7006SOL    HW121764   5.218   4.925   0.710 -1.1589  0.0969 -1.1840
 7006SOL    HW221765   5.358   4.866   0.713 -2.3102 -2.7695 -0.7644
 7007SOL     OW21766   2.985   2.446   4.847  0.6507  0.1163 -0.4550
 7007SOL    HW121767   3.025   2.437   4.933  2.3508  0.2251 -1.1877
 7007SOL    HW221768   3.058   2.472   4.790 -0.7009  1.3754 -1.6703
 7008SOL     OW21769   0.491   5.441   2.911 -0.2774 -0.6253 -0.5268
 7008SOL    HW121770   0.561   5.417   2.850  0.2481  2.5466 -1.3559
 7008SOL    HW221771   0.530   5.432   2.998  1.6123  1.9439 -0.9980
 7009SOL     OW21772   3.229   5.427   2.465 -0.2935 -0.4410 -0.0629
 7009SOL    HW121773   3.210   5.398   2.376  0.5221 -1.6314  0.1329
 7009SOL    HW221774   3.259   5.518   2.454  1.5126 -1.0999 -1.2460
 7010SOL     OW21775   3.010   2.588   0.452 -0.6060 -0.2989  0.3411
 7010SOL    HW121776   3.035   2.602   0.361  0.6117  2.4734  1.0116
 7010SOL    HW221777   3.076   2.528   0.487 -0.7734 -0.9444 -0.4273
 7011SOL     OW21778   1.168   2.122   5.874 -0.2561  0.0684  0.4222
 7011SOL    HW121779   1.128   2.206   5.893 -1.3254 -0.6371  1.4276
 7011SOL    HW221780   1.242   2.116   5.934  1.7473  1.5509 -1.7156
 7012SOL     OW21781   2.975   0.691   3.254  0.1811 -0.5499  0.0838
 7012SOL    HW121782   3.049   0.735   3.212 -1.2553 -0.6589 -2.8066
 7012SOL    HW221783   2.996   0.693   3.348  1.8509  3.1023 -0.2014
 7013SOL     OW21784   4.295   6.233   0.999 -0.1912  0.3150 -0.0928
 7013SOL    HW121785   4.378   6.193   0.974  0.1329  1.0786 -0.2597
 7013SOL    HW221786   4.316   6.288   1.075 -0.6102  0.2530  0.0744
 7014SOL     OW21787   1.415   3.059   2.789 -0.4895  0.4161  0.0631
 7014SOL    HW121788   1.333   3.045   2.837 -1.7935 -1.3308 -2.4173
 7014SOL    HW221789   1.458   2.974   2.791  0.7852  1.0451  0.4064
 7015SOL     OW21790   3.477   4.311   3.942 -0.1612 -0.0711 -0.1653
 7015SOL    HW121791   3.513   4.223   3.935  3.0779  0.6991  3.2773
 7015SOL    HW221792   3.502   4.353   3.859 -1.0263 -2.0506 -1.5163
 7016SOL     OW21793   5.317   5.298   2.028  0.3580  0.1207  0.2477
 7016SOL    HW121794   5.344   5.320   2.117 -0.1698  0.2547  0.3785
 7016SOL    HW221795   5.304   5.203   2.030 -0.2721  0.2058  0.4898
 7017SOL     OW21796   6.000   2.304   2.845  0.0152  0.3009  0.2228
 7017SOL    HW121797   6.095   2.311   2.853  0.0091 -0.2759  0.8351
 7017SOL    HW221798   5.980   2.349   2.763  0.7322  1.0846  0.4650
 7018SOL     OW21799   5.612   1.298   4.487  0.1588  0.3464  0.0334
 7018SOL    HW121800   5.639   1.212   4.519  0.7427  0.9578  1.2445
 7018SOL    HW221801   5.685   1.355   4.508 -0.6071  1.3277  0.1030
 7019SOL     OW21802   6.235   2.975   1.888  0.4313 -0.4495  0.1633
 7019SOL    HW121803   6.240   3.055   1.940 -0.4399 -1.4432  1.9055
 7019SOL    HW221804   6.141   2.955   1.885  0.7307 -2.2049  1.1440
 7020SOL     OW21805   3.797   4.462   5.682 -0.1869 -0.0946  0.5101
 7020SOL    HW121806   3.710   4.462   5.641  0.1298  3.4810 -0.4924
 7020SOL    HW221807   3.849   4.404   5.628 -0.7197  1.7089 -2.1340
 7021SOL     OW21808   2.941   3.660   3.163  0.2240  0.1391 -0.2444
 7021SOL    HW121809   2.873   3.727   3.161  0.0929  0.0993  1.2426
 7021SOL    HW221810   2.948   3.629   3.073 -0.5974  1.2617 -0.7168
 7022SOL     OW21811   6.130   3.211   4.942  0.3708  0.1257  0.1056
 7022SOL    HW121812   6.207   3.250   4.981 -0.4780  0.3743  1.5954
 7022SOL    HW221813   6.159   3.180   4.856  2.1123  0.1764  0.6558
 7023SOL     OW21814   5.447   0.174   0.257  0.3408  0.1581  0.6197
 7023SOL    HW121815   5.399   0.119   0.195  3.0526 -1.6393 -0.0601
 7023SOL    HW221816   5.514   0.217   0.204  0.6014  1.2534  1.7839
 7024SOL     OW21817   3.713   4.306   2.397  0.6760 -0.1535 -0.3905
 7024SOL    HW121818   3.654   4.249   2.348 -0.0300 -0.8638  1.2079
 7024SOL    HW221819   3.774   4.339   2.332  0.7245 -2.2407 -1.4894
 7025SOL     OW21820   3.262   6.163   6.088 -0.0358 -0.4229  0.8194
 7025SOL    HW121821   3.224   6.161   6.176 -0.2428 -1.6011  0.7091
 7025SOL    HW221822   3.190   6.191   6.032  0.2824  1.0656  1.0843
 7026SOL     OW21823   3.838   0.124   4.019  0.1474  0.0127  0.2740
 7026SOL    HW121824   3.819   0.218   4.010  0.6435  0.0614 -0.3513
 7026SOL    HW221825   3.770   0.080   3.969  1.2852  0.1609 -1.4813
 7027SOL     OW21826   3.596   3.932   5.660 -0.0763 -0.0990 -0.0444
 7027SOL    HW121827   3.637   3.871   5.598 -0.6373  0.9513 -1.4959
 7027SOL    HW221828   3.543   3.990   5.605 -0.1064  1.2573  1.3634
 7028SOL     OW21829   4.179   3.828   3.432 -0.1292  0.3256  0.0115
 7028SOL    HW121830   4.134   3.801   3.352 -0.1039  2.4218 -0.7720
 7028SOL    HW221831   4.213   3.746   3.469 -0.2186 -0.7262 -2.0566
 7029SOL     OW21832   1.532   5.243   0.931 -0.5714 -0.2510 -0.1887
 7029SOL    HW121833   1.466   5.283   0.988  0.4734 -0.4882  1.2763
 7029SOL    HW221834   1.555   5.312   0.869 -0.5280  0.6396  0.7700
 7030SOL     OW21835   4.964   5.432   3.855 -0.7342  0.6683 -0.2903
 7030SOL    HW121836   5.044   5.474   3.885  0.3705 -1.2750 -0.3465
 7030SOL    HW221837   4.960   5.453   3.762 -0.4356  1.0054 -0.2288
 7031SOL     OW21838   3.914   0.883   3.674  0.0608  0.4990  0.3618
 7031SOL    HW121839   3.935   0.832   3.595 -1.5450 -0.2272  0.3692
 7031SOL    HW221840   3.852   0.828   3.722  0.2094  1.3957  1.6307
 7032SOL     OW21841   3.519   5.347   3.657 -0.6028 -0.2368  0.0882
 7032SOL    HW121842   3.512   5.309   3.569  0.7800  0.0903 -0.1768
 7032SOL    HW221843   3.480   5.281   3.714 -1.0213 -0.6976 -0.7024
 7033SOL     OW21844   5.813   3.405   0.088  0.3486 -0.7116 -0.2249
 7033SOL    HW121845   5.846   3.315   0.081 -0.4641 -1.0215 -0.2765
 7033SOL    HW221846   5.782   3.412   0.178  1.7844  0.0282  0.2381
 7034SOL     OW21847   0.697   0.671   0.921  0.0105  0.7632  0.3352
 7034SOL    HW121848   0.726   0.671   1.012  0.0230  1.9678  0.3452
 7034SOL    HW221849   0.650   0.588   0.911  1.8210 -0.3615  0.8247
 7035SOL     OW21850   5.782   0.067   5.577 -0.2114 -0.6326  0.1918
 7035SOL    HW121851   5.777   0.055   5.672  0.8308  0.3143  0.3945
 7035SOL    HW221852   5.873   0.092   5.562  0.0243 -2.1683 -1.2341
 7036SOL     OW21853   0.643   3.446   2.659  0.2989 -0.1810 -0.1022
 7036SOL    HW121854   0.572   3.387   2.684 -0.5793  0.1704 -1.6603
 7036SOL    HW221855   0.638   3.517   2.723 -0.2435 -0.5472  0.2777
 7037SOL     OW21856   5.742   1.838   2.761 -0.0209 -0.1967 -0.4940
 7037SOL    HW121857   5.802   1.819   2.690  1.6798 -1.5419  1.2051
 7037SOL    HW221858   5.768   1.925   2.792  1.0886 -0.7638  0.2190
 7038SOL     OW21859   0.772   5.080   4.528 -0.1132  0.6439 -0.0798
 7038SOL    HW121860   0.815   5.086   4.614 -2.9024  0.6663  1.4566
 7038SOL    HW221861   0.841   5.050   4.469  1.9916  0.7725  2.1206
 7039SOL     OW21862   3.987   3.954   0.838  0.5384  0.3941  0.0268
 7039SOL    HW121863   3.961   4.029   0.890  0.8326  0.8074 -0.4145
 7039SOL    HW221864   4.082   3.963   0.828  0.2078  1.9057 -2.9496
 7040SOL     OW21865   4.704   5.027   1.211 -0.0235 -0.3732  0.0163
 7040SOL    HW121866   4.755   5.107   1.218  0.2511 -0.5503  0.0229
 7040SOL    HW221867   4.683   5.004   1.302  1.0102 -1.0289  0.0961
 7041SOL     OW21868   0.966   4.739   2.783 -0.7436  0.1562 -0.1292
 7041SOL    HW121869   0.973   4.737   2.687  0.0102  0.8785 -0.0987
 7041SOL    HW221870   0.971   4.647   2.809 -0.4855 -0.0164 -0.7615
 7042SOL     OW21871   4.470   1.287   4.099 -0.5829 -0.1551 -0.1100
 7042SOL    HW121872   4.478   1.249   4.186  0.5818  0.2976 -0.0036
 7042SOL    HW221873   4.443   1.214   4.043 -0.0515 -0.7485  0.3917
 7043SOL     OW21874   5.100   0.059   0.403  0.7899  0.4304  0.3358
 7043SOL    HW121875   5.103  -0.012   0.468  0.2701  0.9623  0.9566
 7043SOL    HW221876   5.155   0.128   0.440  1.0721  0.4642 -0.1376
 7044SOL     OW21877   2.248   2.840   2.629  0.3206  0.1040 -0.4425
 7044SOL    HW121878   2.233   2.846   2.535 -1.0437  0.7428 -0.2035
 7044SOL    HW221879   2.173   2.791   2.663  1.7314 -1.7935  0.1117
 7045SOL     OW21880   5.134   4.995   0.371  0.4991 -0.4779 -0.2418
 7045SOL    HW121881   5.229   4.987   0.368  0.5149 -1.8538  1.8470
 7045SOL    HW221882   5.104   4.910   0.404 -1.1823  0.9359  2.1252
 7046SOL     OW21883   2.477   0.708   4.984 -0.1124  0.4014  0.0053
 7046SOL    HW121884   2.478   0.795   5.024 -0.8156  0.4089  0.0105
 7046SOL    HW221885   2.539   0.715   4.911  0.0342  0.8283  0.1688
 7047SOL     OW21886   3.684   2.389   2.801 -0.2835 -0.4272  0.3465
 7047SOL    HW121887   3.776   2.371   2.816 -0.3776 -0.9984  0.2665
 7047SOL    HW221888   3.647   2.401   2.889  0.1823  1.4637  0.3103
 7048SOL     OW21889   1.431   4.533   2.139 -0.3863 -0.2986 -0.0076
 7048SOL    HW121890   1.469   4.474   2.074 -1.4115  0.1260 -1.0292
 7048SOL    HW221891   1.364   4.481   2.183  1.1292 -0.9684  1.6187
 7049SOL     OW21892   5.608   1.167   3.924  0.6826 -0.0620  0.2873
 7049SOL    HW121893   5.595   1.256   3.956 -0.9224  0.2131 -1.0143
 7049SOL    HW221894   5.631   1.117   4.002 -0.0972  1.1618  1.3372
 7050SOL     OW21895   1.839   4.908   5.795 -0.2945 -0.7996 -0.1462
 7050SOL    HW121896   1.865   4.837   5.853  0.2227 -0.6440 -0.1804
 7050SOL    HW221897   1.904   4.977   5.811 -0.5289 -0.5097 -0.4366
 7051SOL     OW21898   0.094   5.742   1.357 -0.2094 -0.1281  0.1102
 7051SOL    HW121899   0.121   5.650   1.357 -0.2940 -0.1522  0.1272
 7051SOL    HW221900   0.001   5.740   1.379 -0.7086 -0.1858 -1.8338
 7052SOL     OW21901   4.816   1.586   1.554 -0.2896 -0.4144 -0.2392
 7052SOL    HW121902   4.760   1.658   1.585  0.8392  0.4132 -0.0515
 7052SOL    HW221903   4.757   1.511   1.547 -1.5355  0.5649 -0.5927
 7053SOL     OW21904   3.101   1.549   1.972 -0.4479 -0.2428  0.1198
 7053SOL    HW121905   3.098   1.457   1.997  0.1640  0.0262  1.2648
 7053SOL    HW221906   3.034   1.591   2.025 -1.7621 -0.2322 -1.4724
 7054SOL     OW21907   4.401   4.153   4.953  0.0753 -0.1056  0.2473
 7054SOL    HW121908   4.395   4.217   4.882 -0.7667 -0.7791 -0.3072
 7054SOL    HW221909   4.461   4.193   5.016  1.0956  0.3754 -0.9801
 7055SOL     OW21910   4.310   3.760   4.830 -0.1691 -0.1357  0.2596
 7055SOL    HW121911   4.258   3.778   4.752  0.1791  1.7175  0.4078
 7055SOL    HW221912   4.260   3.693   4.877 -1.8930  0.8427 -0.0960
 7056SOL     OW21913   5.724   4.613   3.649  0.5552 -0.0990  0.0026
 7056SOL    HW121914   5.769   4.556   3.586  1.1807 -0.3822  0.6958
 7056SOL    HW221915   5.674   4.553   3.704  0.8480  0.0567  0.4401
 7057SOL     OW21916   1.895   5.482   1.016 -1.0034 -0.1631  0.8097
 7057SOL    HW121917   1.965   5.541   1.043 -1.2953  1.0149 -0.9085
 7057SOL    HW221918   1.872   5.510   0.928 -2.1266 -1.9611  0.4856
 7058SOL     OW21919   2.297   4.391   5.602  0.4198 -0.0135 -0.4918
 7058SOL    HW121920   2.314   4.405   5.695  0.2249 -0.6352 -0.3579
 7058SOL    HW221921   2.369   4.436   5.557 -0.0479  1.1772 -0.0857
 7059SOL     OW21922   5.460   2.963   4.437 -0.0956  0.2596  0.1925
 7059SOL    HW121923   5.486   2.983   4.347 -0.1293  1.2043  0.3886
 7059SOL    HW221924   5.512   2.886   4.460  1.9653  1.5974  0.2818
 7060SOL     OW21925   3.111   6.174   5.506 -0.1649  0.2473  0.1341
 7060SOL    HW121926   3.206   6.172   5.494 -0.0879  0.5717  0.6659
 7060SOL    HW221927   3.076   6.129   5.429  0.4521 -0.6269  0.3534
 7061SOL     OW21928   3.732   0.548   6.270 -0.1916 -0.0285  0.1543
 7061SOL    HW121929   3.726   0.525   6.177 -1.3330 -1.1248  0.4687
 7061SOL    HW221930   3.824   0.533   6.293 -0.0805 -0.5547 -0.6042
 7062SOL     OW21931   1.278   1.858   0.799 -0.1613  0.3131 -0.6622
 7062SOL    HW121932   1.333   1.928   0.763 -0.0992 -0.0880 -1.3777
 7062SOL    HW221933   1.206   1.850   0.736 -1.6475  1.5429  0.7910
 7063SOL     OW21934   5.455   3.036   1.228 -0.2080 -0.4047 -0.4907
 7063SOL    HW121935   5.390   3.056   1.162  1.1039  1.8380 -1.1939
 7063SOL    HW221936   5.477   3.120   1.268  0.2901 -1.4615  1.6453
 7064SOL     OW21937   4.563   0.536   3.735 -0.0359 -0.4040  0.2604
 7064SOL    HW121938   4.544   0.630   3.735  2.3090  0.1453  0.0896
 7064SOL    HW221939   4.488   0.496   3.778 -1.2559  1.5108  0.0265
 7065SOL     OW21940   6.151   1.391   5.840 -0.1653 -0.7782 -0.0947
 7065SOL    HW121941   6.123   1.359   5.754 -0.5136 -0.6543 -0.0306
 7065SOL    HW221942   6.131   1.319   5.900  1.9147 -1.6773 -0.3857
 7066SOL     OW21943   3.850   4.676   2.853  0.3473 -0.3547 -0.5770
 7066SOL    HW121944   3.759   4.706   2.854  1.2758  2.8053 -0.9563
 7066SOL    HW221945   3.880   4.687   2.943  0.6769 -0.3000 -0.6928
 7067SOL     OW21946   1.822   1.831   2.248 -0.6772  0.3504  0.7613
 7067SOL    HW121947   1.881   1.839   2.322  0.8311  1.5312 -0.5062
 7067SOL    HW221948   1.831   1.741   2.219  3.1554  1.1885 -1.3835
 7068SOL     OW21949   4.263   4.445   5.145  0.2167 -0.2972 -0.0566
 7068SOL    HW121950   4.355   4.424   5.160 -0.1507 -0.7260  1.8660
 7068SOL    HW221951   4.259   4.541   5.152  0.6777 -0.1515 -1.3976
 7069SOL     OW21952   3.771   0.830   1.383  0.1420  0.0383 -0.0219
 7069SOL    HW121953   3.684   0.796   1.401 -0.4332  0.8367 -1.2193
 7069SOL    HW221954   3.830   0.762   1.416 -0.7991  0.5917  3.1965
 7070SOL     OW21955   3.513   1.455   4.637  0.6430  0.1182  0.1585
 7070SOL    HW121956   3.495   1.362   4.623  0.3362  0.3071 -0.8350
 7070SOL    HW221957   3.428   1.498   4.622  0.9850  0.6325 -0.3514
 7071SOL     OW21958   2.954   2.986   0.763  0.9200 -0.2143 -0.6507
 7071SOL    HW121959   3.032   3.032   0.793  0.2160  0.0448  0.8929
 7071SOL    HW221960   2.889   3.056   0.749 -0.0748 -0.6386  1.4545
 7072SOL     OW21961   0.705   0.256   3.894  0.1076  0.1039 -0.0506
 7072SOL    HW121962   0.793   0.265   3.856 -0.1778  0.6076 -0.6010
 7072SOL    HW221963   0.705   0.168   3.933  0.9199  0.1735  0.1292
 7073SOL     OW21964   4.476   1.545   3.307  0.3310 -0.0710 -0.0315
 7073SOL    HW121965   4.464   1.523   3.214  1.7705 -1.8141  0.1282
 7073SOL    HW221966   4.388   1.556   3.341 -0.3716 -2.0793 -1.0523
 7074SOL     OW21967   0.757   5.663   0.592  0.3101  0.3432  0.0508
 7074SOL    HW121968   0.762   5.568   0.584  0.4713  0.1912  1.6172
 7074SOL    HW221969   0.777   5.696   0.504  2.0117 -1.0170 -0.1234
 7075SOL     OW21970   6.171   4.657   0.062 -0.6263  0.5755  0.1110
 7075SOL    HW121971   6.196   4.577   0.108 -0.3875  0.5536 -0.0481
 7075SOL    HW221972   6.150   4.627  -0.027 -1.4729  0.5632  0.3092
 7076SOL     OW21973   6.135   4.535   0.830  0.3965  0.1229 -0.2236
 7076SOL    HW121974   6.175   4.468   0.775 -0.8724 -0.9902  0.1303
 7076SOL    HW221975   6.179   4.616   0.807  0.9037 -0.5718 -1.8028
 7077SOL     OW21976   6.266   4.718   4.945  0.3916 -0.4319 -0.2173
 7077SOL    HW121977   6.230   4.796   4.989 -1.6790 -1.5474  0.1808
 7077SOL    HW221978   6.292   4.750   4.858 -2.4834  0.3201 -0.8911
 7078SOL     OW21979   6.214   5.981   6.039 -0.1191  0.6447 -0.1667
 7078SOL    HW121980   6.205   6.060   5.986 -1.7559  0.5248 -0.1124
 7078SOL    HW221981   6.153   5.918   6.001  1.2615 -0.6728 -0.2946
 7079SOL     OW21982   4.541   1.168   2.466  0.1300 -0.0815 -0.1596
 7079SOL    HW121983   4.589   1.216   2.534  0.4155  0.8007 -0.9706
 7079SOL    HW221984   4.449   1.186   2.486  0.2006 -0.0583  0.1579
 7080SOL     OW21985   4.093   0.722   0.938  0.0928  0.0146 -0.1317
 7080SOL    HW121986   4.027   0.694   0.874 -0.8952 -0.5510  1.0859
 7080SOL    HW221987   4.043   0.744   1.016  1.3351 -0.1466  0.7417
 7081SOL     OW21988   0.811   5.177   3.057  0.2573  0.1767 -0.0809
 7081SOL    HW121989   0.757   5.128   2.995 -0.4600 -0.5463  1.0719
 7081SOL    HW221990   0.748   5.213   3.120  1.0830 -0.3377  1.0561
 7082SOL     OW21991   3.418   1.155   0.546  0.0261 -0.1484 -0.4221
 7082SOL    HW121992   3.447   1.076   0.502 -0.1719 -0.6695  0.3618
 7082SOL    HW221993   3.428   1.136   0.639 -1.1057  0.3205 -0.1877
 7083SOL     OW21994   1.493   3.256   2.469 -0.3061 -0.7306  0.0837
 7083SOL    HW121995   1.550   3.240   2.394  2.1119  1.0259  1.4271
 7083SOL    HW221996   1.532   3.206   2.541 -0.7756  0.0626  0.9169
 7084SOL     OW21997   1.964   6.185   3.363 -0.6477 -0.1327 -0.5831
 7084SOL    HW121998   2.027   6.255   3.346 -0.4996  0.0807  0.7842
 7084SOL    HW221999   1.969   6.130   3.285  0.4122  0.4937 -0.9842
 7085SOL     OW22000   0.988   1.975   0.262  0.3483  0.3657  0.1316
 7085SOL    HW122001   1.056   1.914   0.291  0.0833 -1.4380 -2.6471
 7085SOL    HW222002   1.016   2.002   0.174 -0.6970  2.5536  0.4071
 7086SOL     OW22003   6.105   4.796   2.698  0.1471  0.4459 -0.5310
 7086SOL    HW122004   6.040   4.729   2.718  0.7704 -0.7730 -2.2603
 7086SOL    HW222005   6.186   4.747   2.684  0.9214  1.6988 -0.5677
 7087SOL     OW22006   3.550   3.445   2.857  0.1318  0.0003 -0.5426
 7087SOL    HW122007   3.591   3.382   2.915 -0.7623  1.1195  1.3854
 7087SOL    HW222008   3.459   3.449   2.886  0.0743  1.9084 -0.8459
 7088SOL     OW22009   6.230   2.165   4.740  0.4026  0.5669 -0.0770
 7088SOL    HW122010   6.234   2.118   4.824  0.8571  1.7719  0.6079
 7088SOL    HW222011   6.290   2.117   4.683 -0.6534 -0.8469 -0.0376
 7089SOL     OW22012   2.344   1.273   3.250 -0.2340  0.3653 -0.1672
 7089SOL    HW122013   2.293   1.259   3.329  1.6156 -0.4303  0.9333
 7089SOL    HW222014   2.327   1.195   3.197  1.8522 -1.2378  1.3774
 7090SOL     OW22015   1.960   4.864   0.688 -0.0337  0.2167 -0.4877
 7090SOL    HW122016   2.053   4.861   0.712 -0.3599  0.0940  0.8216
 7090SOL    HW222017   1.940   4.776   0.657  0.4781  0.4703 -1.6019
 7091SOL     OW22018   2.088   4.940   4.714  0.2503  0.4368  0.0939
 7091SOL    HW122019   2.104   4.892   4.795 -0.0504  0.0842 -0.0497
 7091SOL    HW222020   2.031   4.882   4.663  0.8361  0.4441 -0.5735
 7092SOL     OW22021   5.094   1.489   0.106 -0.3102  0.5333  0.0226
 7092SOL    HW122022   5.099   1.499   0.201  0.5143 -0.1972  0.0632
 7092SOL    HW222023   5.148   1.413   0.087 -0.3131  0.7905 -1.0584
 7093SOL     OW22024   5.857   2.479   4.097  0.3054 -0.4577 -0.1939
 7093SOL    HW122025   5.907   2.415   4.046  0.8496 -0.0402 -0.1852
 7093SOL    HW222026   5.916   2.504   4.168 -0.4585 -1.0609  0.6776
 7094SOL     OW22027   6.037   5.740   6.144 -0.1066  0.1504 -0.4527
 7094SOL    HW122028   6.129   5.718   6.159  0.1542  0.5956 -1.3567
 7094SOL    HW222029   5.992   5.656   6.144  0.6763 -0.3120 -2.4810
 7095SOL     OW22030   2.493   5.696   1.409 -0.2275 -0.7454 -0.0160
 7095SOL    HW122031   2.520   5.604   1.412 -1.2902 -1.0576  0.4568
 7095SOL    HW222032   2.411   5.698   1.457 -0.4072  0.3953 -0.3489
 7096SOL     OW22033   5.055   4.899   3.314  0.0770 -0.0471 -0.1140
 7096SOL    HW122034   5.116   4.825   3.318  0.5948  0.3471 -0.5533
 7096SOL    HW222035   4.982   4.873   3.369  0.5891 -0.5867  0.3253
 7097SOL     OW22036   2.997   0.165   4.930  0.3794  0.3375 -0.3474
 7097SOL    HW122037   2.958   0.087   4.892  0.9453 -0.5195  0.7515
 7097SOL    HW222038   2.928   0.203   4.984  0.8148 -0.8446  1.1196
 7098SOL     OW22039   2.470   1.438   2.916 -0.8334  0.5013 -0.1104
 7098SOL    HW122040   2.409   1.385   2.968 -0.6792 -0.3984 -0.8242
 7098SOL    HW222041   2.540   1.377   2.893  1.1647  1.8423  1.9579
 7099SOL     OW22042   5.553   2.439   2.677  0.1310 -0.2448  0.0611
 7099SOL    HW122043   5.602   2.414   2.598 -0.6396  0.8638 -0.7989
 7099SOL    HW222044   5.590   2.384   2.746  2.2780  0.2247 -0.6279
 7100SOL     OW22045   2.458   0.423   3.978  0.0110  0.1638  0.1668
 7100SOL    HW122046   2.407   0.504   3.984 -0.5170 -0.1263 -0.3110
 7100SOL    HW222047   2.475   0.413   3.885  1.0041  0.2821  0.3215
 7101SOL     OW22048   4.046   0.934   0.415  0.3820  0.3730 -1.0604
 7101SOL    HW122049   4.117   0.988   0.451  0.2364 -0.8112  1.1769
 7101SOL    HW222050   3.979   0.997   0.388  0.4451  1.3759  0.9583
 7102SOL     OW22051   4.052   4.009   5.253  0.3356  0.3913 -0.1982
 7102SOL    HW122052   3.969   4.055   5.238 -0.5659 -1.2342 -0.4220
 7102SOL    HW222053   4.095   4.008   5.167 -0.7513 -1.2151 -0.7661
 7103SOL     OW22054   6.173   4.970   1.910 -0.0228 -0.6307 -0.2822
 7103SOL    HW122055   6.084   4.950   1.883 -0.4029  0.3782  0.1510
 7103SOL    HW222056   6.214   4.885   1.923 -0.8376 -1.1077 -0.7457
 7104SOL     OW22057   5.492   2.386   0.451  0.4029 -0.2093 -0.0364
 7104SOL    HW122058   5.495   2.463   0.508  1.1885 -1.0784  1.1352
 7104SOL    HW222059   5.573   2.390   0.401 -0.2969  0.5654 -1.1537
 7105SOL     OW22060   3.717   2.723   4.709 -0.1531  0.5020  0.2303
 7105SOL    HW122061   3.651   2.724   4.779 -1.0149  0.6185 -0.5571
 7105SOL    HW222062   3.797   2.693   4.751 -0.7953  0.0434  1.1457
 7106SOL     OW22063   5.304   0.640   1.838  0.1925 -0.3997  0.0088
 7106SOL    HW122064   5.264   0.554   1.823  1.9979 -1.0928 -1.0835
 7106SOL    HW222065   5.238   0.688   1.889 -1.2323 -2.1014 -0.1294
 7107SOL     OW22066   3.425   3.513   2.071 -0.7130 -0.8919  0.6236
 7107SOL    HW122067   3.337   3.495   2.106 -1.0682  1.3291  1.0321
 7107SOL    HW222068   3.478   3.532   2.148 -0.0916 -1.3671  0.3146
 7108SOL     OW22069   0.007   6.155   4.363  0.0806 -0.0894  0.2575
 7108SOL    HW122070   0.019   6.192   4.450 -1.0917 -0.0244  0.3980
 7108SOL    HW222071   0.093   6.119   4.341  0.3749 -0.1798  1.4662
 7109SOL     OW22072   0.644   4.143   5.293  0.8301  0.3112 -0.7247
 7109SOL    HW122073   0.579   4.081   5.261 -0.4307  1.8487 -1.3291
 7109SOL    HW222074   0.717   4.089   5.324 -1.5725 -1.6385  2.0222
 7110SOL     OW22075   5.889   5.478   5.670 -0.0098  0.1940  0.0051
 7110SOL    HW122076   5.985   5.486   5.676 -0.1093  0.8857  0.8291
 7110SOL    HW222077   5.874   5.443   5.582  1.0429 -0.7361  0.1682
 7111SOL     OW22078   0.318   3.471   5.518 -0.4278  0.4046 -0.2379
 7111SOL    HW122079   0.399   3.420   5.511  1.5423  3.5204 -2.6750
 7111SOL    HW222080   0.326   3.518   5.601  0.2112  0.6445 -0.4364
 7112SOL     OW22081   4.291   2.396   1.268  0.2674  0.4053  0.0195
 7112SOL    HW122082   4.348   2.321   1.252  1.5979  1.1145  1.2176
 7112SOL    HW222083   4.346   2.458   1.315 -0.6762  2.3112 -1.2487
 7113SOL     OW22084   2.341   3.471   5.800  0.0660  0.0686 -0.8830
 7113SOL    HW122085   2.259   3.439   5.837 -0.0751 -0.9073 -1.9797
 7113SOL    HW222086   2.407   3.408   5.829  0.3956  0.6894 -0.2444
 7114SOL     OW22087   4.464   4.555   6.157 -0.3660 -0.0231 -0.2444
 7114SOL    HW122088   4.372   4.534   6.140  0.0942 -1.2232 -1.4017
 7114SOL    HW222089   4.466   4.651   6.162 -1.5474  0.0635 -1.0013
 7115SOL     OW22090   3.932   2.427   2.633 -0.0999  0.1039  0.6031
 7115SOL    HW122091   4.001   2.373   2.671  0.7310  0.4482 -0.3656
 7115SOL    HW222092   3.937   2.510   2.680  0.5051  0.3074  0.1928
 7116SOL     OW22093   2.644   4.033   5.168  0.5090 -0.2878  0.2913
 7116SOL    HW122094   2.701   3.999   5.100 -0.9516  1.3664 -1.8815
 7116SOL    HW222095   2.692   4.107   5.206  0.1222  0.7466 -1.1463
 7117SOL     OW22096   4.550   4.848   3.931  0.3266 -0.2100 -0.1672
 7117SOL    HW122097   4.486   4.875   3.997  0.9244 -1.8725  1.1724
 7117SOL    HW222098   4.608   4.923   3.922 -1.3478  1.0598 -0.8744
 7118SOL     OW22099   3.604   1.833   1.341 -0.0782  0.1322  0.2128
 7118SOL    HW122100   3.666   1.842   1.269 -0.6421 -1.6108 -0.5709
 7118SOL    HW222101   3.518   1.851   1.301 -0.6186 -2.6668 -0.1301
 7119SOL     OW22102   5.037   3.996   2.183 -0.3159 -0.3286  0.2126
 7119SOL    HW122103   5.097   3.989   2.258  0.3347 -0.3170 -0.2961
 7119SOL    HW222104   4.959   4.038   2.219  0.8635  1.8557  0.3976
 7120SOL     OW22105   0.972   4.977   0.961  0.3014 -0.0441 -0.0042
 7120SOL    HW122106   1.021   4.995   0.881  0.0778  1.1419  0.1103
 7120SOL    HW222107   1.026   5.011   1.032  0.1902 -0.4729  0.2895
 7121SOL     OW22108   3.227   4.131   3.936 -0.9440 -0.3187  0.0865
 7121SOL    HW122109   3.271   4.215   3.945 -0.2419 -0.7272  0.6883
 7121SOL    HW222110   3.220   4.116   3.842  0.2971 -0.2671 -0.0305
 7122SOL     OW22111   3.476   0.254   3.940 -0.1659  0.1981  0.0992
 7122SOL    HW122112   3.436   0.309   3.872  2.2618  1.7800 -0.1566
 7122SOL    HW222113   3.524   0.187   3.892 -1.1871 -0.7498  0.3688
 7123SOL     OW22114   2.723   1.888   1.743 -0.1762  0.4125 -0.1257
 7123SOL    HW122115   2.792   1.884   1.810 -0.7630 -0.9227  0.4258
 7123SOL    HW222116   2.664   1.957   1.775 -0.8761 -0.7403  1.1924
 7124SOL     OW22117   2.396   4.980   5.949 -0.0852  0.4411 -0.0938
 7124SOL    HW122118   2.387   4.897   5.903  2.0561 -0.1722  0.4426
 7124SOL    HW222119   2.424   4.955   6.037  1.5817  1.7053 -0.2092
 7125SOL     OW22120   2.942   0.104   1.775  0.3223 -0.0679  0.2103
 7125SOL    HW122121   2.975   0.118   1.864  2.0165  0.9948 -0.5187
 7125SOL    HW222122   3.000   0.037   1.739  1.1453  1.1359 -0.7895
 7126SOL     OW22123   2.012   4.380   5.611 -0.0513 -0.1904 -0.1790
 7126SOL    HW122124   2.106   4.366   5.622  0.1656  1.1295 -0.1901
 7126SOL    HW222125   2.004   4.474   5.593 -1.3340 -0.3698 -0.6227
 7127SOL     OW22126   1.266   3.908   1.771 -0.2946  0.6197  0.7899
 7127SOL    HW122127   1.209   3.835   1.746  0.0788  0.5800  0.0017
 7127SOL    HW222128   1.350   3.887   1.731 -0.3484  1.7808  0.0155
 7128SOL     OW22129   5.998   2.071   1.783  0.0985  0.1289  0.3155
 7128SOL    HW122130   6.004   2.079   1.878  1.8645 -0.4366  0.2893
 7128SOL    HW222131   6.074   2.118   1.750 -0.1481 -0.2176 -0.7849
 7129SOL     OW22132   1.100   5.710   5.244 -0.2728 -0.7838  0.0361
 7129SOL    HW122133   1.049   5.790   5.261  0.6371 -0.4683  1.3974
 7129SOL    HW222134   1.143   5.727   5.161 -0.6395 -0.1457 -0.0340
 7130SOL     OW22135   5.567   5.600   0.563 -0.1296  0.9183 -0.1255
 7130SOL    HW122136   5.591   5.571   0.475 -0.9464  1.4137 -0.5186
 7130SOL    HW222137   5.529   5.522   0.604  1.4445  0.3241  0.2581
 7131SOL     OW22138   4.257   3.591   1.920  0.2846 -0.3857 -0.0456
 7131SOL    HW122139   4.301   3.506   1.933 -0.8127 -1.0113 -0.3004
 7131SOL    HW222140   4.304   3.651   1.978 -0.0844 -1.5709  1.5588
 7132SOL     OW22141   0.428   2.823   2.551  0.0717 -0.1328  0.3011
 7132SOL    HW122142   0.386   2.909   2.551 -1.0267 -0.6262  1.5818
 7132SOL    HW222143   0.509   2.835   2.601  1.1137  0.6415 -1.4887
 7133SOL     OW22144   5.706   4.649   2.581  0.2990  0.0525 -0.5635
 7133SOL    HW122145   5.629   4.602   2.549  0.3763  0.8620 -2.0000
 7133SOL    HW222146   5.708   4.730   2.532  0.7751  1.1289  1.1274
 7134SOL     OW22147   5.476   0.300   5.060 -0.4719 -0.2085  0.8465
 7134SOL    HW122148   5.405   0.241   5.086 -1.2175  0.5810  0.6303
 7134SOL    HW222149   5.552   0.243   5.053 -1.1241 -1.1083  0.8813
 7135SOL     OW22150   5.643   3.539   4.422  0.5087  0.0659 -0.1461
 7135SOL    HW122151   5.608   3.467   4.475  1.1001 -0.5384 -0.5700
 7135SOL    HW222152   5.593   3.616   4.450 -1.2545 -0.7872 -0.8275
 7136SOL     OW22153   0.754   2.697   1.298  0.2234  0.4229  0.4072
 7136SOL    HW122154   0.680   2.672   1.353  1.6678 -1.3621  1.6722
 7136SOL    HW222155   0.771   2.620   1.244  1.8094  0.3809  0.9156
 7137SOL     OW22156   0.421   2.246   0.129  0.4162  0.2703  0.4460
 7137SOL    HW122157   0.363   2.229   0.204  1.3617  0.5703  1.2796
 7137SOL    HW222158   0.508   2.223   0.161  0.5808 -1.9951 -1.3830
 7138SOL     OW22159   4.857   6.111   4.667 -0.5440  0.0303 -0.2241
 7138SOL    HW122160   4.933   6.095   4.612  0.4179 -0.1493  1.1120
 7138SOL    HW222161   4.810   6.183   4.624  1.3421  1.3703 -0.1502
 7139SOL     OW22162   3.975   5.950   1.654 -0.2943 -0.4970 -0.3339
 7139SOL    HW122163   4.025   5.902   1.588  1.2657 -0.5002  0.8015
 7139SOL    HW222164   3.958   6.035   1.614 -0.5004 -0.9362 -1.2144
 7140SOL     OW22165   3.187   4.460   3.978 -0.0545  0.2899 -0.3298
 7140SOL    HW122166   3.133   4.497   4.048 -0.3001 -0.0112 -0.3549
 7140SOL    HW222167   3.131   4.462   3.900 -0.2604 -0.5968 -0.2196
 7141SOL     OW22168   0.690   0.355   6.122 -0.2741 -0.4271  0.7681
 7141SOL    HW122169   0.637   0.362   6.202 -0.1213 -0.9796  0.9238
 7141SOL    HW222170   0.747   0.279   6.138  0.0841 -0.2529  0.3234
 7142SOL     OW22171   4.870   2.868   1.782 -0.7319  0.3680  0.1478
 7142SOL    HW122172   4.943   2.878   1.843 -1.1077 -1.2203  0.9123
 7142SOL    HW222173   4.842   2.777   1.793 -1.4635  0.3304 -1.6771
 7143SOL     OW22174   0.861   2.783   5.440 -0.2933 -0.1511 -0.0341
 7143SOL    HW122175   0.896   2.751   5.357 -0.7482  0.7871 -0.6102
 7143SOL    HW222176   0.933   2.834   5.478 -0.0490 -0.6672  0.2112
 7144SOL     OW22177   1.750   0.674   5.187 -0.2020 -0.1978 -0.1884
 7144SOL    HW122178   1.798   0.724   5.253 -1.3960  2.2398 -1.0246
 7144SOL    HW222179   1.667   0.651   5.229 -0.7906  0.9969 -0.6339
 7145SOL     OW22180   4.714   4.188   0.447 -0.0250 -0.2134  0.1938
 7145SOL    HW122181   4.790   4.176   0.390 -1.0442 -0.7933 -1.0796
 7145SOL    HW222182   4.679   4.274   0.425  1.2222  0.8441  2.0196
 7146SOL     OW22183   4.935   2.272   2.154 -0.8058 -0.1591  0.6872
 7146SOL    HW122184   5.015   2.239   2.114 -1.6357 -1.1998 -0.1684
 7146SOL    HW222185   4.873   2.280   2.081 -1.6441  0.1292  1.4116
 7147SOL     OW22186   6.203   3.800   1.008  0.3872  0.3229 -0.1665
 7147SOL    HW122187   6.222   3.865   1.075  1.3123 -0.0292 -0.0631
 7147SOL    HW222188   6.131   3.837   0.957 -0.7419  0.3332  1.3774
 7148SOL     OW22189   1.311   2.723   5.192 -0.2160  0.4484 -0.6065
 7148SOL    HW122190   1.387   2.698   5.245 -0.1988 -0.2229 -0.9263
 7148SOL    HW222191   1.291   2.644   5.141  0.2013  1.2784 -2.1169
 7149SOL     OW22192   6.222   2.076   3.121  0.4955  0.0595  0.4567
 7149SOL    HW122193   6.173   2.158   3.133  1.6400  0.6565  1.1729
 7149SOL    HW222194   6.228   2.039   3.209  2.0761  0.4399  0.5326
 7150SOL     OW22195   5.579   1.892   0.224 -0.1190  0.0083 -0.0095
 7150SOL    HW122196   5.489   1.917   0.246  0.2280  2.3510 -0.9940
 7150SOL    HW222197   5.624   1.888   0.309 -1.4956 -3.2152  0.7334
 7151SOL     OW22198   3.459   3.818   1.549 -0.0189  0.2607  0.1892
 7151SOL    HW122199   3.517   3.814   1.473 -0.6174  1.5355 -0.3676
 7151SOL    HW222200   3.518   3.833   1.623  0.4327  0.8744 -0.2807
 7152SOL     OW22201   3.563   3.265   1.965  0.1900  0.2663  0.1646
 7152SOL    HW122202   3.650   3.265   2.004 -0.3975 -0.7983  1.5518
 7152SOL    HW222203   3.524   3.347   1.994  0.3578  0.2454  0.4608
 7153SOL     OW22204   5.238   4.101   3.170  0.2494  0.2634  0.1703
 7153SOL    HW122205   5.276   4.136   3.089 -0.4707 -1.4180 -0.9459
 7153SOL    HW222206   5.152   4.144   3.176  0.1986  0.2021 -0.1001
 7154SOL     OW22207   2.722   1.342   0.356  0.6312  0.8206  0.0871
 7154SOL    HW122208   2.759   1.260   0.389  0.1221  0.6886  0.3357
 7154SOL    HW222209   2.750   1.409   0.419  0.4667  0.7229  0.2653
 7155SOL     OW22210   5.738   5.016   0.387  0.0794 -0.5075  0.1673
 7155SOL    HW122211   5.796   5.076   0.433 -1.0222 -0.4950  1.6165
 7155SOL    HW222212   5.728   5.053   0.299 -0.1585  1.1515  0.8695
 7156SOL     OW22213   5.314   1.131   5.780  0.0381 -0.2225  0.2152
 7156SOL    HW122214   5.278   1.089   5.702  0.8053 -0.1827 -0.1701
 7156SOL    HW222215   5.310   1.064   5.848 -0.1822 -0.4151  0.0127
 7157SOL     OW22216   2.486   4.219   5.467  0.4452  0.1615  0.1224
 7157SOL    HW122217   2.439   4.174   5.397 -0.2963  0.8135  0.1838
 7157SOL    HW222218   2.488   4.311   5.440  1.5844  0.1736  0.1890
 7158SOL     OW22219   0.304   6.121   1.203  0.1603  0.2053 -0.3477
 7158SOL    HW122220   0.314   6.026   1.209  1.3865  0.2836 -0.9645
 7158SOL    HW222221   0.213   6.137   1.228 -1.5313 -1.5519 -4.5205
 7159SOL     OW22222   2.961   3.559   2.234  0.0757 -0.0043 -0.2005
 7159SOL    HW122223   2.909   3.613   2.294 -0.1293 -1.1711  0.7126
 7159SOL    HW222224   2.948   3.599   2.148 -0.6214  0.9799  0.3429
 7160SOL     OW22225   4.000   0.412   4.283  0.0578  0.6974  0.1130
 7160SOL    HW122226   4.056   0.357   4.227 -0.7729 -0.8254  0.7065
 7160SOL    HW222227   4.059   0.478   4.318  1.1604  0.0556 -0.4615
 7161SOL     OW22228   1.733   6.268   3.103 -0.3867  1.0543  0.3748
 7161SOL    HW122229   1.738   6.201   3.171  0.6017 -1.1242 -1.6759
 7161SOL    HW222230   1.697   6.345   3.147 -0.1579 -0.3366  3.2191
 7162SOL     OW22231   2.306   2.976   5.011 -0.8933 -0.2884 -0.2037
 7162SOL    HW122232   2.332   2.988   4.920 -1.7200 -0.3771 -0.4615
 7162SOL    HW222233   2.372   3.023   5.061  0.2824 -1.2771 -0.7657
 7163SOL     OW22234   2.387   2.670   3.104 -0.0825 -0.2475 -0.5502
 7163SOL    HW122235   2.403   2.736   3.036 -0.2637  2.4804  1.8575
 7163SOL    HW222236   2.292   2.662   3.107 -0.7383  4.2651  3.0538
 7164SOL     OW22237   1.728   4.846   2.115  0.2495 -0.2734  0.0765
 7164SOL    HW122238   1.820   4.874   2.120 -0.2710  1.9092 -1.1007
 7164SOL    HW222239   1.725   4.788   2.039  0.2870  1.6244 -1.4565
 7165SOL     OW22240   5.586   4.549   2.326 -0.0034  0.0127 -0.7524
 7165SOL    HW122241   5.545   4.628   2.362  3.6271  1.3964  0.8459
 7165SOL    HW222242   5.551   4.543   2.237 -1.3258  2.7300 -0.5436
 7166SOL     OW22243   6.121   2.546   2.402  0.1418  0.2266  0.0750
 7166SOL    HW122244   6.185   2.616   2.401  0.0729  0.3118 -1.6599
 7166SOL    HW222245   6.053   2.574   2.340 -0.8643 -0.4947  0.8038
 7167SOL     OW22246   2.423   0.517   1.756  0.1000 -0.3052 -0.4921
 7167SOL    HW122247   2.505   0.482   1.791  1.2991  1.6205 -1.1883
 7167SOL    HW222248   2.429   0.502   1.662  0.5376  1.3991 -0.7796
 7168SOL     OW22249   4.850   0.381   2.717 -0.4326 -0.2490  0.8738
 7168SOL    HW122250   4.931   0.352   2.676 -0.0375  1.4186  0.3928
 7168SOL    HW222251   4.786   0.313   2.696  0.5051 -0.9225  0.1139
 7169SOL     OW22252   4.893   0.103   3.351 -0.2291 -0.0917  0.0476
 7169SOL    HW122253   4.917   0.162   3.280 -0.0056  0.2458  0.3997
 7169SOL    HW222254   4.853   0.159   3.417  1.3890 -0.0680  1.0645
 7170SOL     OW22255   0.577   2.386   2.929 -0.0772 -0.3156 -0.5434
 7170SOL    HW122256   0.488   2.351   2.932 -0.0786 -0.2311  0.6244
 7170SOL    HW222257   0.598   2.407   3.019  1.1000 -0.2343 -0.8189
 7171SOL     OW22258   4.908   0.929   4.510  0.6765 -0.4044 -0.0362
 7171SOL    HW122259   4.864   0.962   4.432 -0.1076 -0.3602  0.4143
 7171SOL    HW222260   4.850   0.860   4.543 -0.5892  1.5915  2.2138
 7172SOL     OW22261   3.952   3.026   0.226  0.1230  0.0978  0.4627
 7172SOL    HW122262   3.940   3.045   0.133  0.4574  1.5949  0.7076
 7172SOL    HW222263   3.878   2.969   0.248  0.3874 -0.7930 -0.8438
 7173SOL     OW22264   3.735   5.122   4.236 -0.0589 -0.0641  0.2722
 7173SOL    HW122265   3.776   5.134   4.151 -1.1686  1.3540 -0.1023
 7173SOL    HW222266   3.710   5.030   4.238 -0.8564  0.0897 -1.3417
 7174SOL     OW22267   5.373   3.504   3.394  0.0082  0.1717  0.3697
 7174SOL    HW122268   5.415   3.471   3.314  0.2395  2.4365 -0.5331
 7174SOL    HW222269   5.358   3.597   3.376 -2.1245  0.2346  2.0788
 7175SOL     OW22270   0.665   0.173   4.264 -0.5822  0.3081  0.4956
 7175SOL    HW122271   0.753   0.137   4.252 -0.9600 -0.7075  0.7141
 7175SOL    HW222272   0.626   0.172   4.176 -0.5670  0.2589  0.4894
 7176SOL     OW22273   0.956   5.427   3.641 -0.0025 -0.0506 -0.2460
 7176SOL    HW122274   1.050   5.435   3.656 -0.2917 -0.3921  2.2935
 7176SOL    HW222275   0.925   5.517   3.632  0.0051  0.5597  3.8885
 7177SOL     OW22276   4.494   0.744   4.375  0.5613 -0.2457  0.3708
 7177SOL    HW122277   4.517   0.704   4.459  1.7574  0.1582  0.2526
 7177SOL    HW222278   4.466   0.832   4.398 -1.0810 -0.7805  0.5284
 7178SOL     OW22279   0.713   4.107   0.734  0.1198  0.4792 -0.0541
 7178SOL    HW122280   0.744   4.018   0.715  1.0908  0.4224  1.5648
 7178SOL    HW222281   0.620   4.096   0.754  0.0501 -0.0428 -0.6226
 7179SOL     OW22282   3.007   0.870   2.311 -0.3636  0.3390  0.4533
 7179SOL    HW122283   3.009   0.851   2.405 -0.8632  0.2434  0.4448
 7179SOL    HW222284   3.024   0.964   2.305  0.6669  0.1741  0.5803
 7180SOL     OW22285   5.050   1.726   0.442  0.1806  0.6302  0.2267
 7180SOL    HW122286   5.022   1.806   0.398 -0.0200  0.5385  0.1851
 7180SOL    HW222287   5.021   1.737   0.533  1.7853  1.4097  0.6779
 7181SOL     OW22288   2.590   1.469   1.667 -0.2700 -0.3321 -0.2567
 7181SOL    HW122289   2.548   1.499   1.748  1.1348 -1.1292  0.8174
 7181SOL    HW222290   2.573   1.375   1.664 -3.0587  0.0956 -2.6407
 7182SOL     OW22291   2.113   3.070   0.457  0.4459  0.4179  0.4627
 7182SOL    HW122292   2.149   2.982   0.470  0.7524  0.4001 -0.4097
 7182SOL    HW222293   2.020   3.056   0.443  0.3724  0.3037  1.0440
 7183SOL     OW22294   5.174   5.699   3.467 -0.5249  0.1735 -0.4140
 7183SOL    HW122295   5.115   5.764   3.504 -1.0725 -0.0343 -0.9042
 7183SOL    HW222296   5.232   5.675   3.540 -1.4230 -0.0579  0.2356
 7184SOL     OW22297   2.009   3.086   0.093  0.1614 -0.0544 -0.5443
 7184SOL    HW122298   2.064   3.008   0.083  1.5369  0.6143  1.2630
 7184SOL    HW222299   1.921   3.052   0.105  1.0626 -1.5770  2.8629
 7185SOL     OW22300   2.688   1.027   2.154  0.3186 -1.0905  0.2263
 7185SOL    HW122301   2.778   1.000   2.142  0.3709 -1.5129  1.3672
 7185SOL    HW222302   2.638   0.972   2.094  0.8323 -0.7188 -0.5490
 7186SOL     OW22303   2.702   1.719   4.958  0.1037 -0.0532 -0.2529
 7186SOL    HW122304   2.761   1.794   4.963 -2.7931  2.3697  0.6304
 7186SOL    HW222305   2.687   1.706   4.864  0.5705  0.5385 -0.4138
 7187SOL     OW22306   0.875   1.530   2.727 -0.2524 -0.1420 -0.4118
 7187SOL    HW122307   0.911   1.612   2.695 -0.2604  0.6070  1.4064
 7187SOL    HW222308   0.949   1.486   2.769 -0.7077 -0.1172  0.4250
 7188SOL     OW22309   1.487   5.668   2.256 -0.8468 -0.9686 -0.0774
 7188SOL    HW122310   1.491   5.638   2.347 -1.3899 -0.3374  0.1621
 7188SOL    HW222311   1.418   5.733   2.255  0.5424  0.5606 -0.4968
 7189SOL     OW22312   4.339   1.681   2.633  0.3905  0.4245  0.5612
 7189SOL    HW122313   4.420   1.655   2.677  0.2926  0.4816  0.7736
 7189SOL    HW222314   4.270   1.660   2.696  0.2263  0.2275  0.3186
 7190SOL     OW22315   3.060   4.721   5.338  0.6737  0.0304 -0.6372
 7190SOL    HW122316   3.025   4.725   5.248  1.6734 -0.1678 -1.0462
 7190SOL    HW222317   3.132   4.783   5.338  1.3090 -0.7002 -0.2527
 7191SOL     OW22318   2.904   4.759   3.505 -0.3311 -0.5939 -0.4224
 7191SOL    HW122319   2.985   4.796   3.541 -1.1626  0.9767 -0.1138
 7191SOL    HW222320   2.836   4.785   3.567 -1.0633 -2.1698 -0.5111
 7192SOL     OW22321   1.864   3.857   3.254 -0.1200  0.3258  0.4770
 7192SOL    HW122322   1.838   3.770   3.285 -2.7236  0.5592 -0.7764
 7192SOL    HW222323   1.837   3.859   3.162  1.0837  2.0259  0.1119
 7193SOL     OW22324   2.754   5.314   5.395  0.3539 -0.3102 -0.4152
 7193SOL    HW122325   2.763   5.218   5.392 -0.4610 -0.5079  1.6029
 7193SOL    HW222326   2.722   5.337   5.308 -1.3703 -2.1519 -0.3683
 7194SOL     OW22327   1.907   0.743   4.715 -0.3599  0.0016 -0.1828
 7194SOL    HW122328   1.842   0.673   4.706 -1.5787  1.0638  0.0721
 7194SOL    HW222329   1.879   0.810   4.653  0.0280  0.8257  0.5098
 7195SOL     OW22330   4.302   4.491   5.473  0.6368 -0.0355 -0.4701
 7195SOL    HW122331   4.316   4.578   5.434  0.4383  0.2266  0.0288
 7195SOL    HW222332   4.240   4.507   5.544 -1.5941 -1.0351 -2.0919
 7196SOL     OW22333   5.412   2.011   6.027 -0.4715 -0.1358 -0.1774
 7196SOL    HW122334   5.358   1.991   5.951  0.0775 -2.9351  0.0726
 7196SOL    HW222335   5.357   1.989   6.102 -0.4990  1.2429  0.2325
 7197SOL     OW22336   5.501   6.283   1.079 -0.2863  0.1008 -0.4123
 7197SOL    HW122337   5.465   6.283   0.991  1.4389 -3.1409 -1.2580
 7197SOL    HW222338   5.430   6.247   1.133 -0.3772 -0.7063 -1.0400
 7198SOL     OW22339   3.367   5.742   3.350 -0.2755 -0.0464 -0.2550
 7198SOL    HW122340   3.323   5.701   3.424 -1.8105  0.1845 -0.9906
 7198SOL    HW222341   3.364   5.676   3.281  1.4262 -0.3817 -0.0549
 7199SOL     OW22342   5.353   2.483   5.950 -0.2449 -0.4019  0.2740
 7199SOL    HW122343   5.331   2.419   5.882  0.7868 -0.6070  0.1221
 7199SOL    HW222344   5.381   2.430   6.024  0.4837 -0.1472  0.1935
 7200SOL     OW22345   3.859   5.155   4.005 -0.0334  0.2934 -0.0346
 7200SOL    HW122346   3.772   5.174   3.969 -0.3518 -0.3277  0.3927
 7200SOL    HW222347   3.895   5.089   3.947  0.2943  0.7957 -0.4070
 7201SOL     OW22348   4.523   2.344   4.921 -0.4008  0.0775  0.1443
 7201SOL    HW122349   4.557   2.370   5.007  2.1391 -2.1050 -0.0916
 7201SOL    HW222350   4.557   2.409   4.860  0.9065 -0.4010  0.3389
 7202SOL     OW22351   5.290   1.984   4.991  1.1545 -0.3951  0.6364
 7202SOL    HW122352   5.227   1.919   4.961  2.3019 -0.3448 -2.1736
 7202SOL    HW222353   5.342   2.004   4.914  1.2093  3.4930  1.4808
 7203SOL     OW22354   1.127   4.619   0.949  0.2518 -0.1066  0.2000
 7203SOL    HW122355   1.125   4.658   1.036 -1.4837 -1.3524  0.7884
 7203SOL    HW222356   1.036   4.618   0.921  0.5211 -1.6105 -0.7415
 7204SOL     OW22357   4.262   4.781   6.081 -0.0076 -0.3509 -0.3275
 7204SOL    HW122358   4.202   4.768   6.154 -0.0192 -1.7363 -0.5582
 7204SOL    HW222359   4.250   4.703   6.026  0.0691  0.6006 -1.7596
 7205SOL     OW22360   5.171   0.749   5.477  0.0445  0.5435 -0.0160
 7205SOL    HW122361   5.245   0.783   5.427  0.2658 -1.3733 -1.0649
 7205SOL    HW222362   5.117   0.704   5.412 -2.0363  1.8176  0.7426
 7206SOL     OW22363   2.615   3.596   2.606 -0.2631  0.1122  0.2576
 7206SOL    HW122364   2.666   3.540   2.548 -0.2490  0.5288 -0.1407
 7206SOL    HW222365   2.680   3.644   2.657 -0.2180  1.0919 -0.6755
 7207SOL     OW22366   4.619   2.242   0.569  0.0922  0.1623  0.1187
 7207SOL    HW122367   4.540   2.214   0.523  0.6210 -0.1252 -0.6187
 7207SOL    HW222368   4.610   2.202   0.656 -0.1083 -0.6788 -0.2785
 7208SOL     OW22369   1.784   1.933   0.176  0.1620 -0.0706  0.1380
 7208SOL    HW122370   1.826   1.985   0.108 -2.7226  1.2953 -0.7248
 7208SOL    HW222371   1.760   1.851   0.132 -0.0258  0.0362  0.0432
 7209SOL     OW22372   4.270   0.722   0.672  0.6140  0.4086  0.0889
 7209SOL    HW122373   4.217   0.722   0.752  0.1811 -0.0894 -0.1902
 7209SOL    HW222374   4.331   0.794   0.684  1.6777 -0.6755  1.6086
 7210SOL     OW22375   0.601   6.234   0.094  0.4798 -0.3949 -0.4800
 7210SOL    HW122376   0.654   6.210   0.018  0.3275 -1.0508 -0.3780
 7210SOL    HW222377   0.583   6.151   0.139  0.3164 -0.0489  0.1081
 7211SOL     OW22378   4.151   4.879   1.281  0.1421  0.2952 -0.5736
 7211SOL    HW122379   4.116   4.837   1.203 -1.1060  2.6619 -1.4044
 7211SOL    HW222380   4.229   4.829   1.303  0.4865 -0.5067 -3.2948
 7212SOL     OW22381   2.719   4.139   3.573 -0.4549  0.3393 -0.5679
 7212SOL    HW122382   2.713   4.060   3.519  0.1434 -0.7220  0.8458
 7212SOL    HW222383   2.659   4.123   3.646 -0.6092  1.3729 -0.4518
 7213SOL     OW22384   0.192   2.963   3.444  1.3711 -0.0879  0.3221
 7213SOL    HW122385   0.151   3.005   3.369 -0.8120  1.0429  2.0298
 7213SOL    HW222386   0.264   2.912   3.407  0.1411  0.0874 -2.5491
 7214SOL     OW22387   3.934   5.338   4.271  0.8038 -0.7777  0.0172
 7214SOL    HW122388   3.909   5.247   4.284 -1.1625 -0.6098 -1.9124
 7214SOL    HW222389   3.957   5.343   4.178 -0.4838  0.9427 -0.2497
 7215SOL     OW22390   1.241   1.484   2.369  0.4971 -0.0834 -0.1706
 7215SOL    HW122391   1.145   1.481   2.364  0.5225 -0.0197 -0.7760
 7215SOL    HW222392   1.260   1.494   2.462 -0.0671 -0.9614  0.0540
 7216SOL     OW22393   5.368   3.675   3.055 -0.1120 -0.2973  0.3565
 7216SOL    HW122394   5.320   3.595   3.077  1.6864 -1.0206  1.9116
 7216SOL    HW222395   5.324   3.743   3.106 -1.0558 -0.4460 -0.2266
 7217SOL     OW22396   0.591   5.658   3.134 -0.5171  0.1546  0.2655
 7217SOL    HW122397   0.626   5.665   3.045 -0.8578 -3.1752 -0.2385
 7217SOL    HW222398   0.655   5.605   3.181 -1.0305  0.7051  1.6257
 7218SOL     OW22399   4.339   5.047   2.068 -0.3060  0.5271  0.2529
 7218SOL    HW122400   4.276   5.022   2.135 -1.8399 -0.3050 -1.4222
 7218SOL    HW222401   4.287   5.093   2.002  1.0474  0.8089 -0.6651
 7219SOL     OW22402   6.286   0.066   5.292  0.1987  0.1392  0.1423
 7219SOL    HW122403   6.298  -0.028   5.300 -0.4094  0.0743  0.3736
 7219SOL    HW222404   6.320   0.101   5.375 -0.3566  0.0382  0.4205
 7220SOL     OW22405   2.466   6.004   3.581 -0.2044 -0.5286 -0.3732
 7220SOL    HW122406   2.415   5.988   3.661  2.0440  3.1400  2.1170
 7220SOL    HW222407   2.556   5.985   3.606  0.4313 -0.4007 -2.4360
 7221SOL     OW22408   5.312   4.936   4.511 -0.1320  0.4859 -1.3552
 7221SOL    HW122409   5.263   4.857   4.488 -2.8129  0.9542  1.8961
 7221SOL    HW222410   5.384   4.904   4.565 -0.9696  0.1302 -0.3982
 7222SOL     OW22411   4.259   2.268   5.336  0.7770  0.6022 -0.2645
 7222SOL    HW122412   4.225   2.346   5.380  0.3911  0.9086 -1.0897
 7222SOL    HW222413   4.193   2.200   5.353  0.2504  0.9203 -0.9903
 7223SOL     OW22414   4.411   3.864   2.355 -0.0859  0.2654 -0.3904
 7223SOL    HW122415   4.498   3.826   2.362  1.0295  2.3645 -1.8430
 7223SOL    HW222416   4.380   3.868   2.446  1.1618 -0.8334  0.1198
 7224SOL     OW22417   4.289   5.604   2.740 -0.2670 -0.1168 -0.4535
 7224SOL    HW122418   4.290   5.623   2.833 -1.6122  0.6675 -0.5773
 7224SOL    HW222419   4.357   5.537   2.728 -0.5210 -0.6951  1.1713
 7225SOL     OW22420   0.989   5.776   0.067  0.1669 -0.1359  0.0180
 7225SOL    HW122421   0.896   5.795   0.060 -0.3597 -1.9831  1.2317
 7225SOL    HW222422   1.009   5.728  -0.014 -1.0459 -3.5402  1.5573
 7226SOL     OW22423   2.980   1.436   3.377  0.1774  0.1963 -0.4632
 7226SOL    HW122424   3.002   1.402   3.290 -0.8778 -0.5743 -0.4488
 7226SOL    HW222425   2.906   1.383   3.405  0.3727  0.5815  0.8259
 7227SOL     OW22426   3.966   5.984   2.423  0.1773 -0.2169  0.4525
 7227SOL    HW122427   3.906   5.971   2.496 -0.5870  0.8154  0.0320
 7227SOL    HW222428   4.016   6.062   2.447  0.1192 -0.0421  0.0205
 7228SOL     OW22429   2.567   3.008   3.614 -0.3820 -0.4790  0.1696
 7228SOL    HW122430   2.651   3.040   3.581 -0.0178 -2.7976 -1.4217
 7228SOL    HW222431   2.513   3.086   3.623  0.9050  0.7441 -1.9731
 7229SOL     OW22432   3.644   0.445   1.105  0.4311 -0.1980 -0.5583
 7229SOL    HW122433   3.663   0.410   1.018  0.0747 -0.5977 -0.4843
 7229SOL    HW222434   3.690   0.529   1.109 -0.6273  0.4665 -1.6321
 7230SOL     OW22435   0.304   1.577   0.429  0.5045  0.3872  0.5830
 7230SOL    HW122436   0.320   1.545   0.341  2.1919  0.8783  0.6711
 7230SOL    HW222437   0.293   1.672   0.418  1.3231  0.5323  0.9527
 7231SOL     OW22438   5.104   4.038   5.896  0.3845  0.1019  0.4010
 7231SOL    HW122439   5.059   4.017   5.814  0.8696 -0.6732  0.3255
 7231SOL    HW222440   5.100   4.134   5.901  1.1251  0.2330 -0.9752
 7232SOL     OW22441   4.298   1.460   6.230  0.4060 -0.1928  0.1506
 7232SOL    HW122442   4.300   1.408   6.310  1.5509 -0.3640  0.0251
 7232SOL    HW222443   4.229   1.420   6.176 -0.1016 -0.3165  0.8751
 7233SOL     OW22444   2.087   5.660   4.552  0.1716 -0.2917 -0.3741
 7233SOL    HW122445   2.161   5.718   4.572  0.8998 -0.6861 -1.7715
 7233SOL    HW222446   2.089   5.594   4.622 -0.9569  1.5430  1.5071
 7234SOL     OW22447   1.798   1.613   5.668 -0.7488 -0.1854 -0.1739
 7234SOL    HW122448   1.817   1.551   5.738 -0.5974 -0.9352 -0.8665
 7234SOL    HW222449   1.874   1.608   5.610 -1.0995  0.0383 -0.6610
 7235SOL     OW22450   3.021   1.729   4.560 -0.1935 -0.2196  0.4427
 7235SOL    HW122451   2.934   1.691   4.570 -0.7125  0.8884  0.3584
 7235SOL    HW222452   3.016   1.781   4.480 -0.2340  1.7805  1.6522
 7236SOL     OW22453   1.028   5.753   0.341  0.2098 -0.0902 -0.8288
 7236SOL    HW122454   1.024   5.775   0.248  0.6269 -0.1177 -0.8531
 7236SOL    HW222455   0.937   5.738   0.365 -0.0680  1.3156 -0.8894
 7237SOL     OW22456   1.806   5.041   2.328  0.2630 -0.2793  0.6311
 7237SOL    HW122457   1.828   5.085   2.245 -0.5433 -0.6140  0.2329
 7237SOL    HW222458   1.856   5.089   2.394  2.6735 -1.3337 -0.2774
 7238SOL     OW22459   0.892   5.742   4.698  0.5995 -0.2864  0.3322
 7238SOL    HW122460   0.953   5.721   4.627  0.4863 -0.6618  0.3409
 7238SOL    HW222461   0.918   5.684   4.770  1.1644  0.5845  0.8547
 7239SOL     OW22462   0.705   6.063   2.314 -0.0834 -0.0546  0.4483
 7239SOL    HW122463   0.613   6.065   2.287  0.1117  2.7868 -0.3081
 7239SOL    HW222464   0.750   6.019   2.242 -0.6869 -0.4694  0.3148
 7240SOL     OW22465   2.547   5.484   3.782 -0.4881  0.7578 -0.7938
 7240SOL    HW122466   2.559   5.578   3.796  0.5178  0.5093  0.1611
 7240SOL    HW222467   2.626   5.457   3.734  1.6575 -0.3768  2.9284
 7241SOL     OW22468   0.370   5.803   4.151 -0.3464  0.2272  0.4455
 7241SOL    HW122469   0.410   5.763   4.227  1.9823 -0.0718 -0.8484
 7241SOL    HW222470   0.443   5.825   4.093 -1.8876  1.9859 -0.9955
 7242SOL     OW22471   1.013   3.324   2.646  0.5870  0.1740  0.6299
 7242SOL    HW122472   1.080   3.278   2.597 -1.2972 -0.2176 -1.7823
 7242SOL    HW222473   0.932   3.275   2.629 -0.8048  2.1183  1.1991
 7243SOL     OW22474   6.125   3.832   0.131  0.3150 -0.3341 -0.5609
 7243SOL    HW122475   6.157   3.899   0.191 -1.2742 -0.6147  0.6789
 7243SOL    HW222476   6.172   3.753   0.156  1.8049  0.1511 -1.6769
 7244SOL     OW22477   1.265   1.055   4.108  0.1988  0.0169 -0.0013
 7244SOL    HW122478   1.220   1.034   4.026  0.4410 -1.4779  0.2283
 7244SOL    HW222479   1.357   1.041   4.089  0.2527 -0.3872  0.5377
 7245SOL     OW22480   0.954   5.176   4.721 -0.3824  0.1021 -0.1944
 7245SOL    HW122481   0.940   5.087   4.754  2.5954 -0.7897 -1.0506
 7245SOL    HW222482   0.947   5.232   4.798  2.4047 -1.4579  1.3556
 7246SOL     OW22483   5.806   2.816   5.923  0.3271 -0.4917 -0.2405
 7246SOL    HW122484   5.715   2.842   5.939  0.3275 -0.3980 -0.3954
 7246SOL    HW222485   5.800   2.725   5.894  0.3763 -0.9055  0.9693
 7247SOL     OW22486   1.651   2.262   1.231  0.4868 -0.1196  0.1641
 7247SOL    HW122487   1.609   2.293   1.151  1.1939 -0.0541 -0.1930
 7247SOL    HW222488   1.739   2.238   1.204  0.7501 -0.0604  0.9346
 7248SOL     OW22489   0.289   1.140   0.947 -0.2801  0.1074 -0.3584
 7248SOL    HW122490   0.359   1.163   0.886  0.3574  3.4441  1.3774
 7248SOL    HW222491   0.328   1.074   1.004  1.3509  1.4903  0.2201
 7249SOL     OW22492   2.617   4.806   3.784 -0.1419  0.0640  0.1036
 7249SOL    HW122493   2.540   4.861   3.798  1.1527  1.8235  0.5609
 7249SOL    HW222494   2.628   4.805   3.689 -1.3420 -1.1528 -0.0657
 7250SOL     OW22495   0.005   4.073   0.185  0.1286 -0.4926  0.2190
 7250SOL    HW122496   0.075   4.134   0.159 -0.7948  1.2576  1.5853
 7250SOL    HW222497   0.036   3.987   0.156  1.6003  0.5690 -1.5982
 7251SOL     OW22498   1.706   2.741   4.691 -0.3428 -0.0921 -0.5640
 7251SOL    HW122499   1.709   2.646   4.690 -0.4433 -0.0941 -0.8180
 7251SOL    HW222500   1.682   2.764   4.781  0.6848 -0.2704 -0.2298
 7252SOL     OW22501   5.717   1.361   1.039  0.3091 -0.6194  0.0167
 7252SOL    HW122502   5.756   1.280   1.072 -1.0695 -0.4889  2.1076
 7252SOL    HW222503   5.641   1.333   0.989 -0.8451 -0.6160  1.7138
 7253SOL     OW22504   4.232   3.642   2.249 -0.5585 -0.3972 -0.0457
 7253SOL    HW122505   4.300   3.680   2.195 -1.5890  1.0471 -0.3849
 7253SOL    HW222506   4.279   3.594   2.317  0.7879 -2.5125 -2.3020
 7254SOL     OW22507   2.952   3.697   3.430  0.0135 -0.8523  0.0502
 7254SOL    HW122508   2.992   3.661   3.351  0.4357 -2.9162  1.1302
 7254SOL    HW222509   2.861   3.669   3.425  0.1914 -1.5777  0.5680
 7255SOL     OW22510   5.518   1.389   1.905 -0.0732  0.0024  0.4565
 7255SOL    HW122511   5.521   1.384   1.809  1.6178  2.3287  0.3252
 7255SOL    HW222512   5.474   1.308   1.931  0.2244 -1.1311 -2.2252
 7256SOL     OW22513   5.959   3.953   0.873  0.3115  0.1455 -0.5246
 7256SOL    HW122514   5.926   3.914   0.793  0.8830 -1.4097 -0.0428
 7256SOL    HW222515   5.885   3.952   0.933  0.6875 -1.6593 -0.0315
 7257SOL     OW22516   0.489   3.826   2.777  0.2713 -0.0522 -0.0958
 7257SOL    HW122517   0.449   3.740   2.791 -0.3207 -0.4067 -3.2289
 7257SOL    HW222518   0.434   3.887   2.826 -2.3379 -0.9270 -1.7633
 7258SOL     OW22519   2.015   4.627   5.118 -0.2914 -0.2614 -0.0124
 7258SOL    HW122520   2.009   4.543   5.165 -2.4614 -0.2569 -0.1712
 7258SOL    HW222521   1.956   4.685   5.166 -0.5706  0.4996 -1.2371
 7259SOL     OW22522   2.185   2.734   0.713 -0.2494  0.0829 -0.2861
 7259SOL    HW122523   2.188   2.801   0.781  0.5275 -0.0530 -0.1737
 7259SOL    HW222524   2.223   2.656   0.755  2.2004  0.5559 -1.4772
 7260SOL     OW22525   4.974   0.031   2.377 -0.3142  0.3426  0.1123
 7260SOL    HW122526   4.916   0.006   2.449 -1.1187  0.3127 -0.5345
 7260SOL    HW222527   5.020   0.109   2.410  0.6396 -0.6895  1.3198
 7261SOL     OW22528   1.667   4.547   2.997  0.3736 -0.1587  0.2654
 7261SOL    HW122529   1.574   4.565   2.987  0.1410 -1.1530  0.5595
 7261SOL    HW222530   1.701   4.624   3.043  0.0354  0.9793 -1.3043
 7262SOL     OW22531   4.789   1.791   3.682 -0.2565  0.0974  0.2110
 7262SOL    HW122532   4.714   1.762   3.629  1.0013  0.6603 -2.0163
 7262SOL    HW222533   4.834   1.710   3.704 -1.0326 -0.1806  0.8304
 7263SOL     OW22534   4.020   4.064   2.911 -0.0967 -0.4471  0.3854
 7263SOL    HW122535   3.963   4.028   2.979 -0.5174  1.1100  0.8963
 7263SOL    HW222536   3.995   4.156   2.905  1.1737 -0.1430 -0.6203
 7264SOL     OW22537   2.694   5.236   0.872 -0.4225  0.0660 -0.2815
 7264SOL    HW122538   2.644   5.318   0.878 -1.4013 -0.5071 -0.3744
 7264SOL    HW222539   2.634   5.169   0.903 -0.1344 -0.8178 -1.5321
 7265SOL     OW22540   1.376   5.471   3.948 -0.0263 -0.3598  0.0872
 7265SOL    HW122541   1.403   5.552   3.905 -1.0858 -0.9554 -1.8310
 7265SOL    HW222542   1.290   5.491   3.985  0.4976 -0.1129  1.2191
 7266SOL     OW22543   0.750   2.179   0.029  0.8244  0.1391  0.1737
 7266SOL    HW122544   0.797   2.258   0.056  1.3842  0.2877 -1.1587
 7266SOL    HW222545   0.814   2.109   0.035  0.4008 -0.1867  1.0950
 7267SOL     OW22546   3.213   2.705   6.278  0.4836 -0.1713 -0.1041
 7267SOL    HW122547   3.200   2.791   6.319  3.0750  0.3730 -0.2682
 7267SOL    HW222548   3.201   2.722   6.184  0.0474 -0.2019 -0.0548
 7268SOL     OW22549   3.654   4.331   1.546 -0.5887 -0.3313  0.1162
 7268SOL    HW122550   3.710   4.270   1.497 -1.5889 -0.9689 -0.2601
 7268SOL    HW222551   3.667   4.307   1.638  0.8124  0.4530  0.1501
 7269SOL     OW22552   2.420   2.027   2.040  0.1753 -0.5736  0.0337
 7269SOL    HW122553   2.490   2.067   1.988  1.3140 -0.2261  1.7613
 7269SOL    HW222554   2.461   2.005   2.123 -2.0441  0.7420  1.5908
 7270SOL     OW22555   1.167   4.217   1.044 -0.2926  0.0374  0.4538
 7270SOL    HW122556   1.104   4.272   1.091  1.7046 -0.1378  3.5957
 7270SOL    HW222557   1.161   4.247   0.953 -3.2413  1.5313  1.0064
 7271SOL     OW22558   6.095   0.643   1.781 -0.0484  0.2323 -0.4519
 7271SOL    HW122559   6.045   0.707   1.730 -0.1356  1.1647  0.7535
 7271SOL    HW222560   6.044   0.562   1.775 -1.4999  1.0484  0.3903
 7272SOL     OW22561   4.174   6.287   5.419  0.1444 -0.1882  0.1731
 7272SOL    HW122562   4.200   6.207   5.464 -0.9878 -0.9396 -0.4550
 7272SOL    HW222563   4.254   6.338   5.411  0.4412 -0.0295  2.9794
 7273SOL     OW22564   0.288   4.274   5.410 -0.3686  0.5902 -0.0808
 7273SOL    HW122565   0.351   4.325   5.460 -0.8960  1.1968 -0.0144
 7273SOL    HW222566   0.277   4.193   5.459  1.1424  0.0178 -0.6464
 7274SOL     OW22567   2.347   5.248   3.738 -0.1209  0.1278  0.0176
 7274SOL    HW122568   2.388   5.329   3.768 -2.6683  1.1802  0.9571
 7274SOL    HW222569   2.314   5.268   3.651  0.6865 -0.4528 -0.4245
 7275SOL     OW22570   0.879   1.152   4.140 -0.5828 -0.5066  0.4741
 7275SOL    HW122571   0.919   1.220   4.194 -0.5709 -0.1501  0.0212
 7275SOL    HW222572   0.785   1.158   4.159 -0.7024  0.3552 -0.3690
 7276SOL     OW22573   0.875   0.231   1.484 -0.0483 -0.6056  0.0578
 7276SOL    HW122574   0.796   0.177   1.485  1.1501 -2.4832  1.2515
 7276SOL    HW222575   0.929   0.194   1.414  1.1859 -1.7306  1.4908
 7277SOL     OW22576   5.271   0.437   3.579 -0.0533  0.4379 -0.0140
 7277SOL    HW122577   5.264   0.342   3.578 -1.3543  0.5161  0.4081
 7277SOL    HW222578   5.202   0.467   3.520 -0.3392  1.1395  0.6621
 7278SOL     OW22579   5.605   5.301   2.799  0.2625 -0.2558 -0.3059
 7278SOL    HW122580   5.513   5.315   2.775  0.3695  0.3394 -0.3772
 7278SOL    HW222581   5.607   5.212   2.835 -0.3552 -0.2414 -0.2291
 7279SOL     OW22582   3.138   3.131   5.465  0.2041  0.2264  0.4323
 7279SOL    HW122583   3.227   3.165   5.455  0.6475 -0.7495  0.9310
 7279SOL    HW222584   3.084   3.209   5.478  1.1189  0.7671  1.1093
 7280SOL     OW22585   2.432   3.638   1.863  0.1405 -0.0462 -0.0905
 7280SOL    HW122586   2.526   3.620   1.852  0.0955  0.3721 -1.2332
 7280SOL    HW222587   2.408   3.588   1.941  1.2725 -0.3220  0.1038
 7281SOL     OW22588   4.998   2.736   4.175 -0.1660 -0.2630  0.1581
 7281SOL    HW122589   5.057   2.739   4.250  0.3882 -2.0131 -0.1536
 7281SOL    HW222590   4.941   2.811   4.187  1.6016  1.0430  0.9015
 7282SOL     OW22591   0.935   0.124   5.861  0.3438  0.3683  0.2635
 7282SOL    HW122592   0.901   0.140   5.949 -0.5552  0.1344 -0.0275
 7282SOL    HW222593   0.892   0.191   5.807  3.2423  2.6165  0.4634
 7283SOL     OW22594   2.798   2.565   3.202 -0.3880 -0.0425  0.0600
 7283SOL    HW122595   2.808   2.494   3.138 -0.9887  0.6874 -0.8794
 7283SOL    HW222596   2.859   2.543   3.272 -0.8036 -1.6669 -0.0343
 7284SOL     OW22597   5.625   4.280   3.219  0.1710 -0.2034  0.2892
 7284SOL    HW122598   5.587   4.363   3.191  0.1853 -0.0895  0.6015
 7284SOL    HW222599   5.669   4.246   3.141  1.8613  1.0230  0.6348
 7285SOL     OW22600   5.698   0.234   2.665  0.8552 -0.3385 -0.9119
 7285SOL    HW122601   5.622   0.292   2.654  1.0964 -0.1307 -1.4782
 7285SOL    HW222602   5.661   0.153   2.701  0.5129  0.1613 -0.1084
 7286SOL     OW22603   0.870   4.156   3.815  0.4194  0.2889  0.0311
 7286SOL    HW122604   0.841   4.223   3.754 -0.1891  0.4825  0.5211
 7286SOL    HW222605   0.959   4.135   3.787  0.0576  0.1738 -1.0767
 7287SOL     OW22606   4.433   0.393   5.973 -0.4600 -0.3566 -0.1357
 7287SOL    HW122607   4.509   0.446   5.950 -0.8673  0.7745  0.9770
 7287SOL    HW222608   4.437   0.386   6.069 -0.2922 -2.5771 -0.2508
 7288SOL     OW22609   3.442   5.387   4.780  0.0193 -0.5816 -0.3613
 7288SOL    HW122610   3.444   5.293   4.799 -0.2022 -1.2736 -3.3868
 7288SOL    HW222611   3.521   5.421   4.822  0.2641 -2.1434  0.5211
 7289SOL     OW22612   4.318   0.984   4.313  0.9475  0.1182  0.4162
 7289SOL    HW122613   4.370   1.063   4.326 -1.1199  2.0855 -2.1691
 7289SOL    HW222614   4.342   0.954   4.225  0.2699 -0.9910  0.5909
 7290SOL     OW22615   5.897   3.135   6.016 -0.2062 -0.4716 -0.5021
 7290SOL    HW122616   5.979   3.180   6.036 -0.9830  0.4485  0.8313
 7290SOL    HW222617   5.916   3.082   5.939  1.6682 -0.4015 -0.1281
 7291SOL     OW22618   3.143   3.852   6.054 -0.1420  0.2273 -0.6491
 7291SOL    HW122619   3.060   3.835   6.009 -0.9903 -0.3137  1.0319
 7291SOL    HW222620   3.207   3.800   6.006 -1.1206 -0.8046 -0.8885
 7292SOL     OW22621   0.388   3.142   2.997 -0.6895  0.2357 -0.1377
 7292SOL    HW122622   0.414   3.176   2.911 -1.5627  0.6250 -0.2523
 7292SOL    HW222623   0.464   3.159   3.053  0.1987 -0.7171 -0.9991
 7293SOL     OW22624   3.378   0.604   3.346 -0.4195  0.3066 -0.0452
 7293SOL    HW122625   3.304   0.546   3.365 -1.5913  1.7763  0.0352
 7293SOL    HW222626   3.412   0.572   3.262 -1.4028 -0.1336 -0.2942
 7294SOL     OW22627   3.290   3.354   0.213  0.1434 -0.3632  0.3294
 7294SOL    HW122628   3.220   3.402   0.257  0.7649 -0.2383  1.2066
 7294SOL    HW222629   3.268   3.262   0.227  0.2672 -0.3241  0.7993
 7295SOL     OW22630   5.395   5.466   5.746 -0.6633 -0.4941  0.4427
 7295SOL    HW122631   5.357   5.493   5.829 -0.1679 -1.0646  0.8631
 7295SOL    HW222632   5.408   5.372   5.755 -1.8005 -0.8121 -0.7626
 7296SOL     OW22633   3.541   6.104   2.393 -0.0788 -0.0491 -0.3099
 7296SOL    HW122634   3.573   6.029   2.443 -0.5043 -0.9451 -1.3407
 7296SOL    HW222635   3.596   6.177   2.422  0.7844 -0.8846  0.2321
 7297SOL     OW22636   4.776   6.120   4.982  0.4616 -0.1812 -0.6497
 7297SOL    HW122637   4.775   6.154   5.071  1.6787 -1.3173 -0.1548
 7297SOL    HW222638   4.688   6.136   4.949 -0.1662 -0.1688  0.9224
 7298SOL     OW22639   4.904   3.440   5.855 -0.6086 -0.0363 -0.4573
 7298SOL    HW122640   4.889   3.347   5.839 -0.4918 -0.4154  1.4716
 7298SOL    HW222641   4.845   3.463   5.927 -0.6133  1.3824 -0.8823
 7299SOL     OW22642   5.383   4.074   0.976  0.0213  0.6267  0.1100
 7299SOL    HW122643   5.452   4.095   0.913 -0.4160  2.0911  0.0849
 7299SOL    HW222644   5.424   4.086   1.061  0.1213  0.3193  0.1091
 7300SOL     OW22645   1.829   5.416   3.506  0.1308 -0.3222 -0.2124
 7300SOL    HW122646   1.736   5.428   3.524  0.4095  1.7585  0.0705
 7300SOL    HW222647   1.833   5.397   3.412 -0.5609 -0.2974 -0.2535
 7301SOL     OW22648   0.126   3.464   1.647  0.4594 -0.0804  0.1836
 7301SOL    HW122649   0.147   3.516   1.725  0.0717 -0.8921  0.8487
 7301SOL    HW222650   0.137   3.374   1.675 -1.2456 -0.4562 -0.2136
 7302SOL     OW22651   5.386   5.617   0.094 -0.8191 -0.3244  0.3407
 7302SOL    HW122652   5.419   5.640   0.007  0.8010 -2.0097  0.4500
 7302SOL    HW222653   5.417   5.687   0.151 -0.1015 -0.2732 -0.0985
 7303SOL     OW22654   4.743   3.466   0.442  0.1339  0.3000  0.4063
 7303SOL    HW122655   4.657   3.465   0.400  1.4099  0.4719 -2.4424
 7303SOL    HW222656   4.773   3.375   0.435  1.1599  0.7065 -0.9624
 7304SOL     OW22657   1.353   4.340   0.772  0.5516  0.1124  0.2410
 7304SOL    HW122658   1.341   4.434   0.788 -2.2129 -0.1852  0.3729
 7304SOL    HW222659   1.406   4.310   0.846  0.2047  1.3072  1.0059
 7305SOL     OW22660   1.665   3.948   5.384 -0.0277  0.0796  0.2562
 7305SOL    HW122661   1.596   3.882   5.384  0.5654 -0.5500 -0.2685
 7305SOL    HW222662   1.674   3.973   5.292 -0.7375  1.4417  0.5159
 7306SOL     OW22663   5.470   5.464   4.614  0.1193  0.0949 -0.7639
 7306SOL    HW122664   5.496   5.463   4.706 -1.6404 -1.6076 -0.2312
 7306SOL    HW222665   5.384   5.505   4.614  0.6550  1.3010 -1.8724
 7307SOL     OW22666   1.398   1.393   3.254  0.8678  0.3892 -0.5365
 7307SOL    HW122667   1.314   1.354   3.276  0.2376  0.6426 -2.3301
 7307SOL    HW222668   1.407   1.467   3.314  0.8003 -0.8452  1.0501
 7308SOL     OW22669   4.243   0.141   0.804 -0.0080 -0.6127 -0.2896
 7308SOL    HW122670   4.323   0.123   0.754  0.3649  0.5594 -0.1566
 7308SOL    HW222671   4.247   0.081   0.878  0.4480 -0.9838 -0.6118
 7309SOL     OW22672   4.817   1.133   2.332  0.3876  0.4464 -0.0756
 7309SOL    HW122673   4.777   1.105   2.414  2.5290  1.5970  1.4517
 7309SOL    HW222674   4.848   1.052   2.292  1.4804  0.0445  1.4867
 7310SOL     OW22675   2.084   6.246   3.896 -0.1279  0.0807  0.0950
 7310SOL    HW122676   2.070   6.206   3.810  0.0171  0.8863 -0.3103
 7310SOL    HW222677   2.086   6.340   3.879  1.1090  0.2038  0.7951
 7311SOL     OW22678   2.396   4.199   6.004 -0.2372  0.4111 -0.0741
 7311SOL    HW122679   2.460   4.220   6.073 -1.5613  2.2866  0.6533
 7311SOL    HW222680   2.450   4.167   5.932  1.6280  2.3131  0.3435
 7312SOL     OW22681   1.851   2.841   0.147  0.1582 -0.1728  0.0442
 7312SOL    HW122682   1.874   2.749   0.145 -0.5965 -0.3669 -0.0139
 7312SOL    HW222683   1.761   2.844   0.116 -1.0298  0.2031  3.1243
 7313SOL     OW22684   0.956   2.816   1.819  0.0200 -0.0424 -0.3151
 7313SOL    HW122685   0.866   2.836   1.845 -0.1214  0.2749 -1.0135
 7313SOL    HW222686   1.007   2.893   1.846  0.1753 -0.4183  0.5008
 7314SOL     OW22687   4.889   6.149   3.329 -0.4337  0.6009  0.2787
 7314SOL    HW122688   4.903   6.134   3.422 -2.3739  0.1211  0.5417
 7314SOL    HW222689   4.894   6.244   3.318  2.4885  0.5475  0.3282
 7315SOL     OW22690   4.340   1.852   4.032 -0.1405 -0.2220  0.2428
 7315SOL    HW122691   4.393   1.901   3.969  0.5851 -0.0353  0.9835
 7315SOL    HW222692   4.309   1.918   4.094  1.1432 -0.7195  1.4577
 7316SOL     OW22693   0.157   0.553   3.359  0.1714 -0.3761 -0.3449
 7316SOL    HW122694   0.206   0.635   3.365 -1.8121  0.9700 -1.5651
 7316SOL    HW222695   0.115   0.544   3.445  1.3586 -0.8206  0.2202
 7317SOL     OW22696   0.747   3.913   4.627 -0.4714  0.3737 -0.2233
 7317SOL    HW122697   0.763   3.990   4.573 -1.9766  1.5781  0.9706
 7317SOL    HW222698   0.786   3.934   4.712  0.4767 -0.8502 -0.3242
 7318SOL     OW22699   5.398   5.529   4.106 -0.3138 -0.3389  0.8860
 7318SOL    HW122700   5.492   5.531   4.127 -0.0602 -0.3237 -0.1897
 7318SOL    HW222701   5.358   5.588   4.169  0.5481  0.4644  0.6921
 7319SOL     OW22702   4.079   6.231   2.450  0.1875  0.0513 -0.2344
 7319SOL    HW122703   4.048   6.281   2.374  2.2802  1.0637 -0.5038
 7319SOL    HW222704   4.105   6.299   2.513  1.5081 -0.7146  0.0716
 7320SOL     OW22705   5.386   1.969   0.961  0.5313  0.1347 -0.6325
 7320SOL    HW122706   5.460   2.027   0.979 -0.5174  1.2972  0.1922
 7320SOL    HW222707   5.358   1.992   0.873  1.1211 -0.2776 -0.9288
 7321SOL     OW22708   1.507   0.954   5.780 -0.6393  0.1024  0.5608
 7321SOL    HW122709   1.467   0.926   5.697 -1.1910 -0.3422  0.9729
 7321SOL    HW222710   1.566   0.882   5.803  1.0884  1.1051 -0.4645
 7322SOL     OW22711   3.097   1.385   3.601  0.4098 -0.2536  0.0718
 7322SOL    HW122712   3.055   1.403   3.517  0.4896 -0.7563 -0.0816
 7322SOL    HW222713   3.052   1.307   3.634  0.3999 -0.0751  0.4819
 7323SOL     OW22714   5.239   3.097   0.610  0.0904  0.0837  0.3166
 7323SOL    HW122715   5.328   3.073   0.636 -0.6605 -3.5864  0.0453
 7323SOL    HW222716   5.188   3.086   0.690 -0.3491  0.8672  0.1506
 7324SOL     OW22717   1.809   2.501   1.251  0.2475 -0.3018  0.7583
 7324SOL    HW122718   1.783   2.583   1.293 -0.3691 -0.4082  0.5948
 7324SOL    HW222719   1.739   2.439   1.274 -0.6278 -0.1196 -1.2096
 7325SOL     OW22720   0.293   1.943   0.959  0.5785 -0.0627  0.0359
 7325SOL    HW122721   0.270   1.955   1.051 -1.5563 -2.0127 -0.1484
 7325SOL    HW222722   0.290   2.031   0.921 -0.5136  0.5376  1.4195
 7326SOL     OW22723   4.429   0.940   0.740 -0.6304  0.3954 -0.4403
 7326SOL    HW122724   4.444   1.021   0.692  0.6522  0.7823  0.5644
 7326SOL    HW222725   4.508   0.928   0.792 -0.8910 -1.3895 -0.3958
 7327SOL     OW22726   3.098   2.754   1.845 -0.1091 -0.1704 -0.2860
 7327SOL    HW122727   3.073   2.846   1.837 -0.0380 -0.0937  0.3022
 7327SOL    HW222728   3.176   2.744   1.790 -0.5697 -0.0670 -0.9718
 7328SOL     OW22729   5.895   2.353   4.448  0.2113  0.3469 -0.2620
 7328SOL    HW122730   5.937   2.435   4.475 -0.0632  0.0204  1.2740
 7328SOL    HW222731   5.933   2.287   4.507  0.4037 -0.6447 -1.4432
 7329SOL     OW22732   0.353   1.116   3.839  0.2679 -0.1226 -0.1107
 7329SOL    HW122733   0.356   1.025   3.870 -0.2589  0.2165  1.0030
 7329SOL    HW222734   0.428   1.158   3.881  0.1627  0.0967 -0.1431
 7330SOL     OW22735   0.036   3.565   4.690 -0.5420  0.1078  0.0491
 7330SOL    HW122736   0.128   3.542   4.707 -0.3666  1.0440  0.4351
 7330SOL    HW222737   0.001   3.490   4.643  0.8466  0.3843 -1.5318
 7331SOL     OW22738   6.011   5.275   2.036 -0.4456 -0.0803  0.4664
 7331SOL    HW122739   5.954   5.206   2.069 -0.9509  0.8306  1.5794
 7331SOL    HW222740   6.099   5.250   2.064 -0.6590 -0.1466  1.0867
 7332SOL     OW22741   1.647   0.713   5.819 -0.5370 -0.1503 -0.4038
 7332SOL    HW122742   1.737   0.685   5.835 -0.2788 -0.0861 -1.6917
 7332SOL    HW222743   1.594   0.635   5.836  0.0676 -1.1675 -2.8410
 7333SOL     OW22744   2.754   4.384   2.593 -0.5392 -0.0305  0.0047
 7333SOL    HW122745   2.811   4.383   2.517  0.0922  0.3898  0.4729
 7333SOL    HW222746   2.751   4.293   2.622  0.5343  0.0629  0.4470
 7334SOL     OW22747   0.382   0.820   3.912  0.5365  0.2417  0.2296
 7334SOL    HW122748   0.341   0.734   3.919  0.0556  0.4829  0.3915
 7334SOL    HW222749   0.475   0.801   3.896  0.3480 -0.3019 -0.2289
 7335SOL     OW22750   3.955   1.059   1.882  0.3554 -0.0853 -0.7058
 7335SOL    HW122751   3.997   1.124   1.825  1.3532  1.2235  1.4143
 7335SOL    HW222752   3.872   1.099   1.906 -0.1245 -0.6962 -1.3059
 7336SOL     OW22753   3.124   5.019   1.606  0.6022 -0.2435  0.0031
 7336SOL    HW122754   3.137   5.109   1.577 -0.2057 -0.5714 -1.4458
 7336SOL    HW222755   3.190   4.969   1.558  0.4879 -0.5449  0.1576
 7337SOL     OW22756   2.979   3.791   4.652 -0.0097 -0.4393  0.5044
 7337SOL    HW122757   3.063   3.750   4.674 -0.3673 -2.2559 -1.1661
 7337SOL    HW222758   3.001   3.859   4.589  0.3235  0.0121  1.0993
 7338SOL     OW22759   2.397   4.991   3.819 -0.7292  0.0825 -0.2052
 7338SOL    HW122760   2.322   4.966   3.765  0.8017 -2.0504 -1.5417
 7338SOL    HW222761   2.410   5.084   3.803 -1.8553  0.0282 -1.5535
 7339SOL     OW22762   5.393   3.119   5.804 -0.1703 -0.4406  0.2387
 7339SOL    HW122763   5.327   3.141   5.869 -0.8277 -1.5012 -0.0539
 7339SOL    HW222764   5.344   3.104   5.723  0.3698 -1.5635  0.0985
 7340SOL     OW22765   3.478   2.663   0.975 -0.6891  0.2403 -0.2347
 7340SOL    HW122766   3.500   2.726   1.044 -0.0990 -0.7910  0.5770
 7340SOL    HW222767   3.501   2.707   0.893  0.4284  0.8037  0.3505
 7341SOL     OW22768   2.475   2.842   4.012  0.0250  0.1952  0.0377
 7341SOL    HW122769   2.493   2.936   4.003 -1.2281  0.5977  1.2927
 7341SOL    HW222770   2.456   2.830   4.105 -0.3266 -1.2096 -0.1910
 7342SOL     OW22771   2.607   4.104   0.129 -0.0100 -0.0917  0.2882
 7342SOL    HW122772   2.600   4.033   0.194  0.3144 -0.3834  0.0118
 7342SOL    HW222773   2.540   4.167   0.155  1.1077  0.5300  1.8038
 7343SOL     OW22774   0.471   5.571   1.559 -0.1004  0.3083  0.2213
 7343SOL    HW122775   0.524   5.586   1.481  2.5763 -1.0399  1.6310
 7343SOL    HW222776   0.482   5.478   1.579  0.3934  0.8379  2.8819
 7344SOL     OW22777   1.354   2.074   4.893  0.2899  0.2137  0.2854
 7344SOL    HW122778   1.431   2.046   4.942 -0.4414 -0.3691  1.1332
 7344SOL    HW222779   1.299   1.996   4.888  1.1932 -0.4108 -3.2535
 7345SOL     OW22780   5.117   4.055   1.544  0.0211  0.2160  0.6439
 7345SOL    HW122781   5.187   4.101   1.496 -1.4275 -0.0039 -1.8432
 7345SOL    HW222782   5.065   4.125   1.583 -0.5594  0.6221 -0.7820
 7346SOL     OW22783   2.985   3.194   0.104  0.3636  0.3130 -0.3634
 7346SOL    HW122784   3.020   3.170   0.189 -2.5059  1.4720  1.2855
 7346SOL    HW222785   2.951   3.112   0.068  0.3320  0.0536  0.2453
 7347SOL     OW22786   4.011   3.130   3.105  0.2104 -0.8665 -0.6215
 7347SOL    HW122787   4.095   3.113   3.148  0.1823 -0.4888 -0.4190
 7347SOL    HW222788   3.946   3.121   3.174  0.0440 -1.5094 -0.8506
 7348SOL     OW22789   4.871   3.966   0.511  0.5458  0.7761 -0.2151
 7348SOL    HW122790   4.882   3.885   0.461 -0.6071  0.3896  0.1057
 7348SOL    HW222791   4.960   3.991   0.537  0.8045 -1.7187  1.7075
 7349SOL     OW22792   2.533   1.040   1.299 -0.8428  0.3503 -0.5248
 7349SOL    HW122793   2.604   0.979   1.279 -0.9347 -0.0425  0.3038
 7349SOL    HW222794   2.458   0.983   1.317 -1.4361  0.7622 -1.5961
 7350SOL     OW22795   3.527   2.406   4.330 -0.3665 -0.5079  0.0020
 7350SOL    HW122796   3.483   2.488   4.352 -1.2770 -0.2063 -2.5878
 7350SOL    HW222797   3.466   2.361   4.272  0.4056 -2.7442  0.8391
 7351SOL     OW22798   6.088   4.584   1.106  0.0980  0.1311 -0.4670
 7351SOL    HW122799   6.142   4.557   1.032 -0.2475 -0.2899 -0.5669
 7351SOL    HW222800   6.014   4.631   1.065 -1.1343 -1.7788 -0.5550
 7352SOL     OW22801   0.226   2.342   3.532 -0.0342 -0.2871  0.1682
 7352SOL    HW122802   0.187   2.288   3.601  0.6559 -0.7859  0.1848
 7352SOL    HW222803   0.164   2.413   3.519 -0.7577 -0.8531  0.4491
 7353SOL     OW22804   4.561   2.876   3.520  0.2455  0.4412  0.8856
 7353SOL    HW122805   4.622   2.923   3.463 -2.1702  1.6655 -0.8320
 7353SOL    HW222806   4.554   2.789   3.481 -2.0213  1.5122 -1.3696
 7354SOL     OW22807   0.689   3.005   5.838  0.2522  0.1791 -0.4414
 7354SOL    HW122808   0.683   3.093   5.801 -0.5999  0.5184  0.4635
 7354SOL    HW222809   0.652   2.948   5.771  0.7498  0.5038 -1.0084
 7355SOL     OW22810   4.392   4.092   3.167  0.1299  0.0240 -0.0023
 7355SOL    HW122811   4.321   4.140   3.209 -0.4665  0.1681 -1.1181
 7355SOL    HW222812   4.450   4.159   3.132  0.3778 -0.0890  0.1868
 7356SOL     OW22813   6.075   5.268   5.378 -0.5237 -0.8355 -0.0258
 7356SOL    HW122814   6.123   5.313   5.309  0.2213  0.1932  1.1223
 7356SOL    HW222815   5.997   5.321   5.392 -0.5369 -0.8882  0.1070
 7357SOL     OW22816   3.286   0.232   1.703  0.8557  0.4534  0.0371
 7357SOL    HW122817   3.269   0.268   1.616 -2.3981  1.9176  1.1230
 7357SOL    HW222818   3.234   0.152   1.707 -1.0305  1.6811  1.3740
 7358SOL     OW22819   4.946   0.220   0.702  0.4860 -0.2280 -0.0477
 7358SOL    HW122820   4.852   0.229   0.686  0.2983  0.0922  1.1153
 7358SOL    HW222821   4.986   0.286   0.645  0.0595 -0.7449 -0.9700
 7359SOL     OW22822   5.965   3.521   2.909  0.2081 -0.5406  0.0607
 7359SOL    HW122823   5.906   3.597   2.907  0.6106 -0.0358  3.0244
 7359SOL    HW222824   5.936   3.466   2.836  0.0836  2.5272 -2.4417
 7360SOL     OW22825   2.162   0.200   4.224  0.4573  0.4541  0.0851
 7360SOL    HW122826   2.251   0.221   4.196  0.3275  1.5381  0.4272
 7360SOL    HW222827   2.157   0.235   4.313  1.2128 -3.8011  2.0588
 7361SOL     OW22828   2.428   3.285   2.832 -0.8159 -0.4393  0.2206
 7361SOL    HW122829   2.486   3.268   2.906 -0.9444  0.4264  0.5335
 7361SOL    HW222830   2.418   3.200   2.789  1.5774 -0.4230 -0.5044
 7362SOL     OW22831   1.699   3.042   4.303 -0.1734 -0.7987  0.5058
 7362SOL    HW122832   1.617   3.063   4.349 -0.9152 -1.5216 -0.4379
 7362SOL    HW222833   1.724   2.956   4.338 -1.4813 -2.0100 -1.3253
 7363SOL     OW22834   0.229   5.118   3.994  0.3367  0.0732 -0.1923
 7363SOL    HW122835   0.137   5.099   4.012  0.0323  1.0572 -0.5980
 7363SOL    HW222836   0.256   5.175   4.065  0.5848 -0.0785 -0.1651
 7364SOL     OW22837   3.102   1.473   5.798  0.1444 -0.2975  0.0092
 7364SOL    HW122838   3.025   1.424   5.827  1.5416 -1.6678  1.6755
 7364SOL    HW222839   3.176   1.421   5.828  1.7556  2.4092  1.1403
 7365SOL     OW22840   0.989   3.615   0.651  0.2408  0.9433 -0.1395
 7365SOL    HW122841   1.014   3.563   0.575  1.8448  1.7231 -0.1788
 7365SOL    HW222842   0.980   3.705   0.617  2.2303  1.5415  0.7727
 7366SOL     OW22843   2.213   5.661   2.394 -0.5910  0.0399  0.1913
 7366SOL    HW122844   2.169   5.664   2.479 -0.7180  0.2717  0.1174
 7366SOL    HW222845   2.187   5.742   2.350 -2.1403 -0.9564 -0.8604
 7367SOL     OW22846   1.308   0.340   0.147 -0.2950 -0.3365  0.3582
 7367SOL    HW122847   1.234   0.288   0.114  0.7742 -0.9493 -1.2035
 7367SOL    HW222848   1.367   0.277   0.187  0.2288 -0.1086 -0.0400
 7368SOL     OW22849   4.032   4.919   3.544 -0.2471 -0.0262  0.3560
 7368SOL    HW122850   4.075   4.849   3.593 -1.1733 -0.6925  0.2464
 7368SOL    HW222851   3.940   4.892   3.538  0.1029 -0.9978 -3.3873
 7369SOL     OW22852   0.555   4.338   1.094  0.1214 -0.0427  0.0998
 7369SOL    HW122853   0.610   4.416   1.100  0.1810 -0.1326  0.7697
 7369SOL    HW222854   0.578   4.286   1.172 -0.1288 -0.5895 -0.1820
 7370SOL     OW22855   2.449   1.645   2.470  0.5065 -0.5020  0.2139
 7370SOL    HW122856   2.500   1.598   2.536 -0.6613  0.3025  1.7687
 7370SOL    HW222857   2.486   1.733   2.469  0.5253 -0.5121 -0.2371
 7371SOL     OW22858   6.086   0.393   5.242 -0.5592 -0.4298  0.3001
 7371SOL    HW122859   6.071   0.353   5.156  0.4771 -0.5434  0.1545
 7371SOL    HW222860   6.096   0.487   5.223  0.6077 -0.5666  0.1522
 7372SOL     OW22861   1.530   1.242   3.924 -0.4784  0.2014  0.4022
 7372SOL    HW122862   1.510   1.154   3.955 -0.3927  0.6367  1.7473
 7372SOL    HW222863   1.520   1.237   3.829 -1.6029 -0.9680  0.5559
 7373SOL     OW22864   3.558   4.167   6.180  0.4148  0.6815  0.3027
 7373SOL    HW122865   3.620   4.111   6.225 -0.5497  0.2753  1.1518
 7373SOL    HW222866   3.491   4.186   6.245 -0.1464  1.4352 -0.4794
 7374SOL     OW22867   5.742   3.156   0.704  0.5130  0.6353 -0.2521
 7374SOL    HW122868   5.749   3.062   0.716  3.0422 -0.0556 -4.7960
 7374SOL    HW222869   5.814   3.193   0.754  0.3439  0.0607  0.4319
 7375SOL     OW22870   4.071   4.213   3.289  0.1898 -0.4718  0.5480
 7375SOL    HW122871   4.126   4.291   3.300  0.0661 -0.4425  0.9864
 7375SOL    HW222872   4.066   4.175   3.377  1.4023 -1.7589  0.1032
 7376SOL     OW22873   2.180   1.511   0.307  0.3185 -0.1263 -0.2220
 7376SOL    HW122874   2.121   1.460   0.251  0.4803  0.3975 -0.8820
 7376SOL    HW222875   2.122   1.574   0.350  0.3194  0.0340 -0.4558
 7377SOL     OW22876   4.628   5.457   4.393 -0.3829  0.2036 -0.2518
 7377SOL    HW122877   4.595   5.537   4.353 -2.7983 -0.5998 -0.0668
 7377SOL    HW222878   4.610   5.389   4.328  0.9785 -0.3129 -0.1180
 7378SOL     OW22879   1.459   3.120   4.466 -0.0901 -0.0450  0.5392
 7378SOL    HW122880   1.404   3.170   4.527  0.6879  0.4899  0.8071
 7378SOL    HW222881   1.418   3.033   4.464 -0.4131  0.0673  1.4589
 7379SOL     OW22882   5.801   0.576   0.678  0.0788  0.5478  0.0042
 7379SOL    HW122883   5.844   0.597   0.596  2.5602  0.2263  1.1298
 7379SOL    HW222884   5.842   0.494   0.707 -0.2087  0.9982  1.8667
 7380SOL     OW22885   4.889   5.739   4.047  0.1888  0.0311  0.3672
 7380SOL    HW122886   4.842   5.820   4.070 -1.3505 -0.4187 -1.0246
 7380SOL    HW222887   4.976   5.750   4.086 -0.2396  2.0099  0.8776
 7381SOL     OW22888   0.965   1.154   2.298 -0.3411  0.7122 -0.0952
 7381SOL    HW122889   1.005   1.069   2.313  0.2022  0.8954 -0.4518
 7381SOL    HW222890   0.883   1.152   2.346  0.2553  0.4389  0.9262
 7382SOL     OW22891   0.651   0.451   3.705  0.5343 -0.5636  0.1719
 7382SOL    HW122892   0.659   0.381   3.770  0.7186 -0.6273  0.0818
 7382SOL    HW222893   0.700   0.419   3.630 -0.6671 -1.0127 -0.4388
 7383SOL     OW22894   1.373   5.031   2.740  0.3020 -0.1373  0.0145
 7383SOL    HW122895   1.327   4.997   2.664  0.1312 -0.3630  0.2171
 7383SOL    HW222896   1.461   5.053   2.708 -0.7027  2.8482 -1.0396
 7384SOL     OW22897   4.447   3.717   3.776 -0.3162 -0.2072 -0.5750
 7384SOL    HW122898   4.441   3.728   3.871 -0.6786 -1.4725 -0.4394
 7384SOL    HW222899   4.463   3.806   3.743 -0.1856  0.2475  0.6592
 7385SOL     OW22900   4.368   5.851   2.372 -0.6193  0.5035  0.1898
 7385SOL    HW122901   4.297   5.788   2.387 -0.6257  0.2573 -0.7974
 7385SOL    HW222902   4.443   5.814   2.417 -0.2877 -0.8928 -1.4130
 7386SOL     OW22903   3.709   2.055   3.420  0.0680  0.0837  0.0046
 7386SOL    HW122904   3.642   2.001   3.463 -0.5410  1.6593  1.1062
 7386SOL    HW222905   3.738   2.116   3.488  2.6848 -0.5594 -0.4226
 7387SOL     OW22906   0.375   6.253   2.793  0.2070  0.1035  0.1284
 7387SOL    HW122907   0.456   6.233   2.841  0.6094  0.7425 -0.2793
 7387SOL    HW222908   0.318   6.293   2.858  0.7797  1.0353  0.0782
 7388SOL     OW22909   3.792   5.668   2.631 -0.2185 -0.7087  0.4814
 7388SOL    HW122910   3.856   5.638   2.567  0.2491  1.4931 -0.1651
 7388SOL    HW222911   3.844   5.704   2.702 -0.5614  2.6106 -0.7676
 7389SOL     OW22912   5.801   2.846   1.314  0.1895  0.4627  0.2579
 7389SOL    HW122913   5.834   2.926   1.273  0.4176  0.5791  0.6560
 7389SOL    HW222914   5.798   2.867   1.407 -1.2822  0.5417  0.2158
 7390SOL     OW22915   3.313   4.176   0.643  0.2640 -0.4326  0.2069
 7390SOL    HW122916   3.386   4.208   0.590 -0.4588  1.1077  0.1004
 7390SOL    HW222917   3.236   4.190   0.588 -0.1671 -1.8100  0.4200
 7391SOL     OW22918   1.227   4.981   3.184 -0.1075  0.1828 -0.0638
 7391SOL    HW122919   1.158   4.932   3.138  1.0757 -0.1826 -1.5243
 7391SOL    HW222920   1.309   4.950   3.145  0.9243  0.5089  1.7204
 7392SOL     OW22921   0.408   1.468   4.637 -0.6362 -0.0391  0.5113
 7392SOL    HW122922   0.314   1.449   4.638 -0.4934 -1.1280 -1.4145
 7392SOL    HW222923   0.449   1.383   4.626  0.6426  0.3753  1.7533
 7393SOL     OW22924   3.388   5.614   3.790  0.6953  0.0812 -0.6777
 7393SOL    HW122925   3.378   5.652   3.877 -0.8564 -0.4372 -0.6044
 7393SOL    HW222926   3.402   5.520   3.807 -0.9551 -0.2520 -0.9893
 7394SOL     OW22927   1.015   2.790   3.537  0.7820  0.3514 -0.3650
 7394SOL    HW122928   1.044   2.752   3.454  1.1754  1.0032 -0.5354
 7394SOL    HW222929   1.078   2.859   3.555  1.0125 -0.1247  0.7560
 7395SOL     OW22930   4.254   3.896   0.470 -0.1353  0.2129  0.1451
 7395SOL    HW122931   4.248   3.983   0.510  2.4292  0.5737 -0.0922
 7395SOL    HW222932   4.305   3.910   0.390 -0.4217 -1.3736 -0.3435
 7396SOL     OW22933   3.273   1.774   5.189 -0.6974 -0.0217 -0.2575
 7396SOL    HW122934   3.288   1.693   5.239 -0.1171  0.6093  0.6296
 7396SOL    HW222935   3.270   1.843   5.256 -1.6472  0.6417 -0.9545
 7397SOL     OW22936   4.343   4.982   5.184  0.1382 -0.3683  0.5136
 7397SOL    HW122937   4.428   5.020   5.204 -0.0110 -0.0689  0.5905
 7397SOL    HW222938   4.280   5.039   5.230 -0.1795  0.0415 -0.4168
 7398SOL     OW22939   3.542   4.442   5.604  0.0089 -0.2288 -0.0863
 7398SOL    HW122940   3.504   4.361   5.637 -0.3471 -1.5174 -3.2866
 7398SOL    HW222941   3.475   4.508   5.620 -0.2339 -0.8004  1.4103
 7399SOL     OW22942   4.547   2.318   3.055  0.3033 -0.2705  0.5926
 7399SOL    HW122943   4.498   2.278   2.982  0.2860  1.3958 -0.3572
 7399SOL    HW222944   4.529   2.261   3.130 -2.2961 -0.2905  0.0425
 7400SOL     OW22945   4.593   0.385   6.264 -0.5640  0.1880  0.0488
 7400SOL    HW122946   4.610   0.309   6.319 -1.0760  0.1179  0.1134
 7400SOL    HW222947   4.563   0.453   6.324 -1.7991 -0.1022 -0.2069
 7401SOL     OW22948   2.362   1.800   0.016 -0.6798 -0.1201  0.1563
 7401SOL    HW122949   2.379   1.733   0.082 -0.5514 -0.2433 -0.0000
 7401SOL    HW222950   2.323   1.752  -0.057  1.1744 -0.3732 -0.7463
 7402SOL     OW22951   3.058   1.910   4.802 -0.1336  0.0063 -0.0642
 7402SOL    HW122952   3.053   1.836   4.741  1.3291  0.6460 -1.0294
 7402SOL    HW222953   3.152   1.921   4.818 -0.2535  2.1267 -0.5493
 7403SOL     OW22954   1.690   3.501   4.020 -0.6991  0.1675 -0.1432
 7403SOL    HW122955   1.706   3.527   3.929  0.0746  1.4154  0.3315
 7403SOL    HW222956   1.668   3.408   4.014  1.1401 -0.2446 -1.4451
 7404SOL     OW22957   4.295   6.026   5.255 -0.4241 -0.2339  0.2618
 7404SOL    HW122958   4.209   6.067   5.265 -0.0260  0.5565  0.5276
 7404SOL    HW222959   4.355   6.084   5.301  0.3262 -0.5303 -0.3120
 7405SOL     OW22960   3.534   2.130   0.640  0.0176  0.0661 -0.3176
 7405SOL    HW122961   3.618   2.149   0.598  0.3295  2.0493  1.0955
 7405SOL    HW222962   3.515   2.207   0.693 -2.9098 -0.1535 -0.8814
 7406SOL     OW22963   2.271   1.586   2.774 -0.0579  0.6358  0.0393
 7406SOL    HW122964   2.196   1.609   2.829 -0.5008  1.0487 -0.7334
 7406SOL    HW222965   2.339   1.561   2.837 -0.8478  0.2086  0.7492
 7407SOL     OW22966   5.152   1.788   4.579 -0.1680 -0.2118  0.2023
 7407SOL    HW122967   5.076   1.763   4.527 -0.8465  1.1066  0.5056
 7407SOL    HW222968   5.217   1.819   4.515 -0.0178 -1.0016 -0.0304
 7408SOL     OW22969   5.371   3.255   1.032  0.8883  0.1769  0.1667
 7408SOL    HW122970   5.357   3.270   0.939  0.5325  0.4620  0.2601
 7408SOL    HW222971   5.463   3.233   1.040  0.8987  0.0660 -0.2637
 7409SOL     OW22972   2.867   4.671   2.052  0.2815  0.4460 -0.3120
 7409SOL    HW122973   2.909   4.617   1.985 -1.5801 -2.7404  0.8806
 7409SOL    HW222974   2.939   4.713   2.099  1.8735 -1.2751 -1.1321
 7410SOL     OW22975   3.142   2.270   2.737 -0.0999  0.1521  0.8026
 7410SOL    HW122976   3.206   2.293   2.803 -0.2082  0.2855  0.8606
 7410SOL    HW222977   3.156   2.333   2.666 -0.6831  0.6765  1.1439
 7411SOL     OW22978   2.380   4.366   3.904 -0.0845 -0.1675  0.0961
 7411SOL    HW122979   2.432   4.403   3.834  1.3032 -0.0241  1.1580
 7411SOL    HW222980   2.343   4.285   3.868  2.0315 -1.0251 -0.2788
 7412SOL     OW22981   5.540   4.447   5.208  0.4341  0.1887 -0.2678
 7412SOL    HW122982   5.581   4.395   5.277  1.1252 -0.0541 -0.8480
 7412SOL    HW222983   5.608   4.509   5.182 -0.2965  1.2274  0.2341
 7413SOL     OW22984   4.925   2.048   2.640 -0.7666 -0.7694  0.0593
 7413SOL    HW122985   4.948   2.017   2.553 -1.2977 -0.6063 -0.1452
 7413SOL    HW222986   4.966   1.985   2.700  2.4098  0.8755 -0.1510
 7414SOL     OW22987   4.776   0.696   4.514  0.1566  0.1968 -0.2461
 7414SOL    HW122988   4.738   0.671   4.430  1.1674 -3.3121  0.2025
 7414SOL    HW222989   4.723   0.650   4.579  1.7135 -0.2557  0.7599
 7415SOL     OW22990   1.137   5.637   5.522  0.3218 -0.2827  0.0894
 7415SOL    HW122991   1.114   5.634   5.429 -0.5452 -0.3544  0.2879
 7415SOL    HW222992   1.176   5.723   5.535 -0.2001  0.0102 -0.2125
 7416SOL     OW22993   1.051   4.060   1.803  0.0254 -0.4753 -0.2986
 7416SOL    HW122994   1.121   3.997   1.785 -0.5197 -1.0200 -0.5478
 7416SOL    HW222995   0.972   4.007   1.806 -0.1789 -0.1220  1.6761
 7417SOL     OW22996   5.345   6.025   5.305  0.5946  0.8756 -0.4807
 7417SOL    HW122997   5.377   6.039   5.216  0.8025  1.3937 -0.3259
 7417SOL    HW222998   5.415   5.975   5.348 -0.1884 -0.7913 -1.0590
 7418SOL     OW22999   0.751   3.328   3.940 -0.2315  0.2375  0.0104
 7418SOL    HW123000   0.792   3.297   4.021  1.2912  2.4310  0.1700
 7418SOL    HW223001   0.657   3.312   3.953  0.2016 -1.6806  1.1516
 7419SOL     OW23002   5.261   2.586   0.264 -0.6188 -0.0111 -0.3757
 7419SOL    HW123003   5.339   2.592   0.319 -0.0136  1.8576 -1.3601
 7419SOL    HW223004   5.208   2.519   0.306  0.9206 -0.4080  1.0636
 7420SOL     OW23005   4.596   5.129   3.218  0.0865 -0.3162  0.1870
 7420SOL    HW123006   4.618   5.176   3.138 -1.0321 -1.7045 -0.9878
 7420SOL    HW223007   4.596   5.197   3.286  1.4144  0.8260 -0.8923
 7421SOL     OW23008   5.179   1.536   5.341 -0.0652  0.1082  0.1995
 7421SOL    HW123009   5.213   1.476   5.408 -0.2270  0.0131  0.1989
 7421SOL    HW223010   5.168   1.481   5.264  1.0719  0.4331 -0.2068
 7422SOL     OW23011   2.606   5.739   0.020  0.4316  0.0781  0.1905
 7422SOL    HW123012   2.568   5.823  -0.005 -0.3402  0.1458  1.4986
 7422SOL    HW223013   2.661   5.714  -0.054  1.5537  2.2615  0.2233
 7423SOL     OW23014   1.033   1.360   1.401  0.0064  0.0471  0.3991
 7423SOL    HW123015   1.000   1.273   1.425  0.0620 -0.0673  0.0653
 7423SOL    HW223016   1.122   1.344   1.370 -0.0200  0.2086  0.2393
 7424SOL     OW23017   0.201   5.976   3.333 -0.1687  0.1167  0.6006
 7424SOL    HW123018   0.296   5.981   3.345 -0.1027  1.7635 -0.3458
 7424SOL    HW223019   0.173   5.911   3.397  2.0355 -3.4792 -1.6821
 7425SOL     OW23020   0.046   2.775   1.021 -0.0974  0.2893  0.0686
 7425SOL    HW123021   0.125   2.829   1.025 -0.5377  0.8543  1.4877
 7425SOL    HW223022   0.011   2.777   1.110  0.2949 -2.9938  0.4108
 7426SOL     OW23023   4.835   1.143   3.480  0.1523 -0.1485 -0.0995
 7426SOL    HW123024   4.905   1.204   3.457 -0.1893  0.4271  0.3588
 7426SOL    HW223025   4.754   1.195   3.470 -0.1553 -0.5909  0.0722
 7427SOL     OW23026   4.861   3.777   2.131 -0.3474  0.0013 -0.6793
 7427SOL    HW123027   4.908   3.859   2.147 -1.9843  1.2030 -1.6754
 7427SOL    HW223028   4.818   3.790   2.047 -0.3986 -2.0302 -1.0157
 7428SOL     OW23029   4.188   1.648   1.148  0.3455  0.0365 -0.7739
 7428SOL    HW123030   4.111   1.703   1.162  2.3036  3.3992 -2.1384
 7428SOL    HW223031   4.255   1.685   1.205  1.7115 -1.1382 -1.5335
 7429SOL     OW23032   2.797   3.087   4.675 -0.3820 -0.1313  0.1248
 7429SOL    HW123033   2.726   3.032   4.709 -0.6185 -0.1725 -0.4225
 7429SOL    HW223034   2.778   3.095   4.581  0.0075  0.3531  0.0853
 7430SOL     OW23035   6.036   1.111   6.058  0.3560  0.0792  0.2447
 7430SOL    HW123036   6.117   1.095   6.010  0.2423 -0.2697  0.1650
 7430SOL    HW223037   6.033   1.042   6.124 -0.1893 -0.2966 -0.1632
 7431SOL     OW23038   1.519   4.029   2.066  0.0668  0.0901 -0.3587
 7431SOL    HW123039   1.504   4.015   2.159  0.3699 -0.0713 -0.3324
 7431SOL    HW223040   1.531   3.941   2.030 -0.2851  0.1346 -0.5916
 7432SOL     OW23041   1.451   0.485   5.087  0.6768 -0.2955  0.5525
 7432SOL    HW123042   1.465   0.519   5.175 -3.7292 -1.3059  1.8691
 7432SOL    HW223043   1.413   0.559   5.039 -0.3204 -0.7318  0.6467
 7433SOL     OW23044   2.610   0.575   0.653  0.1992  0.3011 -0.2748
 7433SOL    HW123045   2.625   0.481   0.659 -2.2770 -0.1540 -0.3819
 7433SOL    HW223046   2.515   0.585   0.649  0.4129  2.7279 -1.7372
 7434SOL     OW23047   0.738   5.863   0.044  0.3651 -0.6526  0.0701
 7434SOL    HW123048   0.666   5.812   0.006  0.0469 -0.1190 -0.0419
 7434SOL    HW223049   0.698   5.910   0.117  0.0201  1.5634 -1.4629
 7435SOL     OW23050   3.148   4.628   3.713 -0.5558  0.1648  0.2321
 7435SOL    HW123051   3.120   4.583   3.634 -1.3230 -0.4691  0.8523
 7435SOL    HW223052   3.133   4.721   3.694  0.7113  0.1776 -0.9158
 7436SOL     OW23053   4.959   2.067   3.610 -0.4127 -0.0515  0.6071
 7436SOL    HW123054   4.939   1.985   3.655  1.8234 -1.5045 -0.8717
 7436SOL    HW223055   4.988   2.127   3.679  2.8002 -2.1615  1.2688
 7437SOL     OW23056   3.479   5.254   2.560  0.0589 -0.0872  0.0222
 7437SOL    HW123057   3.451   5.295   2.478 -0.2095  1.0131  0.6557
 7437SOL    HW223058   3.544   5.314   2.597  0.7181 -0.9243  0.2856
 7438SOL     OW23059   5.685   5.663   4.383  0.2683  0.0311  0.0939
 7438SOL    HW123060   5.597   5.628   4.370  0.3459 -0.8278  1.6428
 7438SOL    HW223061   5.740   5.611   4.325  0.1270 -1.2734  1.1032
 7439SOL     OW23062   3.189   1.018   0.432  0.3829 -0.5543 -0.0136
 7439SOL    HW123063   3.156   0.995   0.519  1.6744 -0.8660  0.4189
 7439SOL    HW223064   3.261   1.079   0.448  0.6798 -0.6605 -0.8556
 7440SOL     OW23065   5.839   0.879   4.987  0.0312 -0.2200  0.3655
 7440SOL    HW123066   5.901   0.807   4.991  0.0414 -0.1611  1.5950
 7440SOL    HW223067   5.839   0.916   5.075 -0.9720  0.4368  0.1093
 7441SOL     OW23068   4.496   0.929   5.578 -0.1622 -0.2422  0.8735
 7441SOL    HW123069   4.562   0.886   5.523 -0.6547 -0.7426  0.6717
 7441SOL    HW223070   4.519   1.022   5.575  0.7431 -0.4499  1.0900
 7442SOL     OW23071   1.625   3.887   2.890  0.0385  0.4675  0.4973
 7442SOL    HW123072   1.566   3.923   2.956 -1.7020 -2.3778  0.6330
 7442SOL    HW223073   1.670   3.815   2.935  0.5261 -0.0561 -0.7985
 7443SOL     OW23074   4.966   5.971   6.209  0.1758  0.1350 -0.4821
 7443SOL    HW123075   4.972   6.067   6.211 -0.7753  0.2594 -1.9866
 7443SOL    HW223076   4.952   5.950   6.117  1.0703 -1.5240 -0.2805
 7444SOL     OW23077   2.449   1.754   4.120 -0.1084  0.3264 -0.4184
 7444SOL    HW123078   2.511   1.739   4.048  0.7022  0.9602  0.1195
 7444SOL    HW223079   2.387   1.682   4.114  0.7781 -0.4258 -0.8968
 7445SOL     OW23080   4.453   6.223   5.357 -0.0343 -0.1345 -0.9865
 7445SOL    HW123081   4.444   6.319   5.361  0.3693 -0.0655 -1.5909
 7445SOL    HW223082   4.521   6.203   5.421 -0.2946 -0.0496 -0.6762
 7446SOL     OW23083   0.907   4.933   4.817 -0.1811 -0.3280  0.1744
 7446SOL    HW123084   0.944   4.896   4.898 -0.6027 -1.6002 -0.1905
 7446SOL    HW223085   0.820   4.893   4.810 -0.1664 -0.2052 -0.8890
 7447SOL     OW23086   0.236   5.695   5.563  0.3445  0.0357 -0.3404
 7447SOL    HW123087   0.225   5.654   5.648 -1.1997 -0.5937 -0.8001
 7447SOL    HW223088   0.326   5.673   5.537  0.2867 -1.1587  0.4031
 7448SOL     OW23089   1.107   3.193   2.126  0.1902  1.0601 -0.8209
 7448SOL    HW123090   1.085   3.265   2.185 -1.7317  2.0027 -2.5701
 7448SOL    HW223091   1.078   3.222   2.040 -0.4426 -1.6989 -1.6547
 7449SOL     OW23092   2.733   3.575   5.939 -0.9813 -0.2983  0.6432
 7449SOL    HW123093   2.763   3.666   5.947 -0.1165 -0.6687  1.8355
 7449SOL    HW223094   2.813   3.523   5.939 -1.4838 -1.1012  0.2626
 7450SOL     OW23095   2.761   6.160   4.671 -0.0420 -0.0355 -0.3922
 7450SOL    HW123096   2.846   6.201   4.688  0.5943 -1.4988  0.0466
 7450SOL    HW223097   2.738   6.191   4.583  2.6675 -2.3677 -2.0945
 7451SOL     OW23098   5.430   0.266   4.761  0.3297 -0.5428 -0.0024
 7451SOL    HW123099   5.354   0.233   4.809  1.6874 -0.8622  2.0710
 7451SOL    HW223100   5.451   0.350   4.803  0.0588  0.4603 -1.7661
 7452SOL     OW23101   0.621   4.858   4.233 -0.2677  0.1689  0.2100
 7452SOL    HW123102   0.582   4.834   4.149 -2.6785 -1.8313  1.7750
 7452SOL    HW223103   0.551   4.899   4.282  0.1730 -1.3489  2.2580
 7453SOL     OW23104   0.464   4.122   2.859 -0.4114 -0.4493 -0.1257
 7453SOL    HW123105   0.512   4.190   2.811  0.5982 -0.8668  0.2688
 7453SOL    HW223106   0.530   4.079   2.912 -0.8749 -2.2899 -0.9636
 7454SOL     OW23107   3.748   3.672   3.429 -0.6514  0.4244  0.1476
 7454SOL    HW123108   3.779   3.760   3.453  0.3436  0.7289 -1.9927
 7454SOL    HW223109   3.824   3.616   3.442 -1.1750 -0.0811  1.1372
 7455SOL     OW23110   1.150   0.338   3.093 -0.0283  0.4674  0.5137
 7455SOL    HW123111   1.104   0.295   3.022 -0.2292  0.7315  0.4826
 7455SOL    HW223112   1.212   0.397   3.050 -0.3999  0.8911  0.5575
 7456SOL     OW23113   1.442   6.095   3.957 -0.1947  0.3521 -0.0507
 7456SOL    HW123114   1.522   6.092   3.904 -0.0336  1.8967  0.0700
 7456SOL    HW223115   1.383   6.034   3.913  0.9857 -0.7305 -0.2139
 7457SOL     OW23116   6.071   0.646   5.184  0.0873 -0.2389  0.4200
 7457SOL    HW123117   6.138   0.704   5.148 -2.4660  2.1792 -0.7571
 7457SOL    HW223118   6.035   0.694   5.259 -0.9833 -1.0094  0.4277
 7458SOL     OW23119   3.170   5.031   4.860 -0.0055 -0.6578  0.5472
 7458SOL    HW123120   3.182   4.964   4.793  1.5599 -0.6771  0.8194
 7458SOL    HW223121   3.256   5.070   4.872 -0.9501  1.7799  0.0541
 7459SOL     OW23122   1.280   4.151   4.051  0.5078 -0.2666 -0.2742
 7459SOL    HW123123   1.261   4.243   4.070 -1.4533 -0.2303 -2.0537
 7459SOL    HW223124   1.284   4.109   4.136  1.3169  1.4272  0.5674
 7460SOL     OW23125   3.734   0.658   3.993  0.0784  0.1174 -0.0823
 7460SOL    HW123126   3.711   0.696   3.908  0.9283  0.1682 -0.3054
 7460SOL    HW223127   3.678   0.703   4.056 -1.5379 -0.8809 -0.7592
 7461SOL     OW23128   4.069   2.698   5.288 -0.2171  0.7711 -0.2833
 7461SOL    HW123129   4.145   2.735   5.334  0.3167  0.1609 -0.6582
 7461SOL    HW223130   4.091   2.707   5.195 -0.5012  0.3672 -0.3880
 7462SOL     OW23131   3.509   5.422   5.451 -0.2780 -0.8686  0.7004
 7462SOL    HW123132   3.423   5.441   5.490  0.1631 -0.3695  1.4396
 7462SOL    HW223133   3.566   5.490   5.484  0.3813 -1.1147  0.0862
 7463SOL     OW23134   1.481   3.058   5.760  0.0350  0.1435  0.2035
 7463SOL    HW123135   1.493   3.023   5.848 -0.9933 -1.8594 -0.3730
 7463SOL    HW223136   1.568   3.053   5.720 -0.2396 -3.1217 -0.2416
 7464SOL     OW23137   1.537   5.768   0.278  0.3974 -0.4435 -0.2651
 7464SOL    HW123138   1.572   5.812   0.201 -0.4778 -0.4721 -0.6903
 7464SOL    HW223139   1.606   5.777   0.344  0.0705  2.0417 -0.1603
 7465SOL     OW23140   5.456   0.706   2.075 -0.0290  0.3860  0.3124
 7465SOL    HW123141   5.399   0.667   2.008 -0.6571  0.7957  0.5957
 7465SOL    HW223142   5.453   0.800   2.057  2.1209  0.2941 -0.8730
 7466SOL     OW23143   3.732   0.193   6.147 -0.6983 -0.6785 -0.5347
 7466SOL    HW123144   3.784   0.173   6.225 -1.3052  1.0148  0.3701
 7466SOL    HW223145   3.768   0.137   6.079  2.3315  0.3739  0.0316
 7467SOL     OW23146   5.820   1.879   0.387  0.5445  0.8411  0.9437
 7467SOL    HW123147   5.912   1.853   0.399  1.2865  3.0000  0.4132
 7467SOL    HW223148   5.822   1.939   0.312 -1.1450  1.7587  1.5861
 7468SOL     OW23149   3.322   4.021   0.140  0.5086  0.7735  0.3727
 7468SOL    HW123150   3.255   4.009   0.207 -0.1559 -0.3923 -0.4686
 7468SOL    HW223151   3.311   4.113   0.113 -0.8764  0.5734  0.1493
 7469SOL     OW23152   2.789   5.955   3.957  0.0748 -0.1711 -0.0168
 7469SOL    HW123153   2.867   5.919   3.914  0.2262 -1.3742  1.2011
 7469SOL    HW223154   2.781   5.906   4.039 -2.3606 -0.6015 -0.4079
 7470SOL     OW23155   2.915   6.131   0.509 -0.3305 -0.6321 -0.1881
 7470SOL    HW123156   2.913   6.095   0.598 -1.6331  0.5095  0.2843
 7470SOL    HW223157   2.824   6.154   0.491  0.0578 -0.0517 -1.4965
 7471SOL     OW23158   0.756   3.472   6.108 -0.6713 -0.1777  0.0664
 7471SOL    HW123159   0.704   3.409   6.158  0.8939 -0.3019  1.6615
 7471SOL    HW223160   0.787   3.535   6.173  1.9211 -0.6708 -0.5664
 7472SOL     OW23161   3.088   3.544   5.250  0.4209 -0.0549 -0.1437
 7472SOL    HW123162   3.120   3.530   5.161  1.5328  0.3270  0.1888
 7472SOL    HW223163   3.046   3.630   5.248  0.6432  0.0519 -0.2529
 7473SOL     OW23164   5.626   5.223   1.967  0.5263  0.1880  0.4572
 7473SOL    HW123165   5.582   5.140   1.951 -0.6204  0.7324  0.7370
 7473SOL    HW223166   5.642   5.258   1.879  2.6230 -1.1068  0.2460
 7474SOL     OW23167   3.657   1.051   5.425  0.3242 -0.4062  0.6207
 7474SOL    HW123168   3.664   1.145   5.409 -0.6760 -0.5976 -1.0872
 7474SOL    HW223169   3.566   1.037   5.450  0.1032 -1.0908 -0.5078
 7475SOL     OW23170   4.597   4.439   0.327 -0.2609 -0.7689  0.6972
 7475SOL    HW123171   4.588   4.534   0.324  0.3696 -0.7127  0.0947
 7475SOL    HW223172   4.508   4.406   0.335 -0.4894 -0.1282  0.8332
 7476SOL     OW23173   0.824   0.411   2.918 -0.3362 -0.5949 -0.5190
 7476SOL    HW123174   0.799   0.489   2.870  2.1067  2.1451  2.2393
 7476SOL    HW223175   0.772   0.415   2.999 -0.0970 -1.7813 -0.2875
 7477SOL     OW23176   3.363   1.377   2.466 -0.1040 -0.4145 -0.5822
 7477SOL    HW123177   3.387   1.314   2.399  0.2240 -1.4525  0.4832
 7477SOL    HW223178   3.273   1.402   2.444 -0.5246 -1.8545 -0.5738
 7478SOL     OW23179   4.198   1.400   5.552 -0.4333 -0.4281  0.2916
 7478SOL    HW123180   4.104   1.383   5.552 -0.6040  0.3744 -0.7941
 7478SOL    HW223181   4.215   1.440   5.637 -1.1584 -0.1488  0.3137
 7479SOL     OW23182   0.556   2.090   6.160  0.3161 -0.1445  0.0701
 7479SOL    HW123183   0.627   2.116   6.220  1.2409  1.0521 -1.4466
 7479SOL    HW223184   0.535   2.171   6.112  0.1035 -1.1750 -1.6664
 7480SOL     OW23185   6.216   5.923   3.596  0.0450  0.0570 -0.2744
 7480SOL    HW123186   6.211   6.017   3.580 -0.1041  0.3078  1.1465
 7480SOL    HW223187   6.140   5.904   3.650  0.4065 -0.7817 -0.0513
 7481SOL     OW23188   3.791   2.067   4.982  0.1933  0.4954  0.0017
 7481SOL    HW123189   3.843   1.990   5.006 -0.6882  0.1882  0.9817
 7481SOL    HW223190   3.714   2.031   4.939 -0.9675  0.6930  1.8032
 7482SOL     OW23191   4.457   2.000   0.693  0.6335 -0.2414  0.3706
 7482SOL    HW123192   4.388   1.935   0.693  0.2739  0.1337  0.1787
 7482SOL    HW223193   4.451   2.041   0.779  0.2383  0.1767  0.1520
 7483SOL     OW23194   0.817   6.144   1.291 -0.7152 -0.2328 -0.4837
 7483SOL    HW123195   0.743   6.103   1.246 -2.4322  3.3721 -1.3384
 7483SOL    HW223196   0.874   6.175   1.220 -0.2659  0.1680  0.0447
 7484SOL     OW23197   3.784   2.198   4.467  0.2886 -0.1666 -0.7740
 7484SOL    HW123198   3.760   2.288   4.489 -1.4545 -0.5950 -0.7238
 7484SOL    HW223199   3.798   2.200   4.372  1.2955  0.3579 -0.6218
 7485SOL     OW23200   4.457   1.040   1.422 -0.3866  0.1400 -0.0969
 7485SOL    HW123201   4.453   1.134   1.440  0.0746  0.2588 -0.5964
 7485SOL    HW223202   4.366   1.010   1.431 -0.5167  0.6054  0.1867
 7486SOL     OW23203   2.622   6.211   4.412 -0.6048  0.1916 -0.3698
 7486SOL    HW123204   2.593   6.148   4.479  0.0549  0.3010  0.0286
 7486SOL    HW223205   2.545   6.264   4.394 -0.8050  0.1341  0.2817
 7487SOL     OW23206   3.926   4.694   4.109  0.3712 -0.3907  0.1231
 7487SOL    HW123207   3.959   4.612   4.071 -0.9682 -0.8534 -0.1049
 7487SOL    HW223208   3.943   4.685   4.203  2.3639  0.1200 -0.1311
 7488SOL     OW23209   3.304   2.975   3.671  0.5103  0.2314 -0.1951
 7488SOL    HW123210   3.350   3.034   3.730 -0.6541  0.0055  1.0024
 7488SOL    HW223211   3.212   2.981   3.698  0.2853 -1.7506 -0.3366
 7489SOL     OW23212   4.930   1.728   5.206 -0.1562 -0.4409 -0.0862
 7489SOL    HW123213   4.967   1.779   5.134  0.0776  0.3077  0.5453
 7489SOL    HW223214   4.919   1.640   5.170 -0.6889  0.0752 -1.2440
 7490SOL     OW23215   2.786   4.528   2.285  0.7080  0.2652  0.3577
 7490SOL    HW123216   2.752   4.439   2.293 -0.4306  0.5800 -0.6612
 7490SOL    HW223217   2.761   4.556   2.196  1.8764  1.2588  0.3145
 7491SOL     OW23218   3.954   3.706   4.517 -0.2234  0.3003 -0.0846
 7491SOL    HW123219   3.956   3.668   4.430 -2.7144 -0.0195 -0.0754
 7491SOL    HW223220   3.924   3.635   4.574  0.5408  0.7430  0.9054
 7492SOL     OW23221   3.007   3.957   4.075 -0.1899  0.0461 -0.1433
 7492SOL    HW123222   3.075   4.024   4.080  0.2058 -0.4324  1.7473
 7492SOL    HW223223   3.047   3.887   4.022  1.5732 -0.9772  2.3273
 7493SOL     OW23224   4.318   3.127   3.370  0.2189 -0.4869 -0.7320
 7493SOL    HW123225   4.301   3.122   3.464 -0.9391 -1.4657 -0.9709
 7493SOL    HW223226   4.281   3.046   3.334  1.4517 -0.5746 -1.9179
 7494SOL     OW23227   3.824   6.009   3.651 -0.3648  0.0946 -0.5357
 7494SOL    HW123228   3.776   5.928   3.669 -1.3982  0.9409  0.7902
 7494SOL    HW223229   3.897   5.983   3.596  0.5636 -2.1242  1.5497
 7495SOL     OW23230   2.086   1.518   5.201  0.3909 -0.0471  0.3988
 7495SOL    HW123231   2.158   1.461   5.174 -0.2185 -1.0541  0.8415
 7495SOL    HW223232   2.054   1.557   5.120  1.0451 -0.0547  0.1306
 7496SOL     OW23233   6.162   3.199   1.547  0.5630 -0.6008  0.3898
 7496SOL    HW123234   6.110   3.181   1.625 -0.0973  0.3594  0.1771
 7496SOL    HW223235   6.184   3.292   1.553  0.7877 -0.5943 -0.3999
 7497SOL     OW23236   0.665   5.364   4.653 -0.4405  0.1793 -0.2477
 7497SOL    HW123237   0.695   5.314   4.577 -0.5128  0.3719 -0.4054
 7497SOL    HW223238   0.642   5.298   4.718  0.3040  0.0262 -0.1316
 7498SOL     OW23239   3.413   4.534   5.045  0.4641 -0.3475 -0.4563
 7498SOL    HW123240   3.405   4.456   5.099 -1.8123  0.6363  0.7873
 7498SOL    HW223241   3.452   4.504   4.963 -2.2134 -3.1783 -0.8297
 7499SOL     OW23242   3.626   2.819   4.061 -0.3361  0.2511  0.3950
 7499SOL    HW123243   3.651   2.864   4.142 -1.4003  0.0822  0.8408
 7499SOL    HW223244   3.540   2.781   4.081 -1.0583  1.0139 -1.1138
 7500SOL     OW23245   1.432   4.552   5.725  0.1521  0.7518  0.4098
 7500SOL    HW123246   1.355   4.569   5.780 -1.7538  0.5166 -2.0171
 7500SOL    HW223247   1.475   4.637   5.718 -0.6664  1.2076  0.7272
 7501SOL     OW23248   0.368   4.143   5.139  0.6642 -0.1749 -0.3486
 7501SOL    HW123249   0.373   4.187   5.224 -0.5284 -0.4111 -0.1443
 7501SOL    HW223250   0.368   4.050   5.160  1.6191 -0.2591 -0.6902
 7502SOL     OW23251   2.522   1.969   4.526 -0.5620 -0.3281  0.3336
 7502SOL    HW123252   2.589   2.037   4.514 -1.2478  0.0514 -1.9465
 7502SOL    HW223253   2.551   1.897   4.470 -2.1503 -0.0319 -0.9561
 7503SOL     OW23254   4.765   1.097   6.054 -0.5477  0.2134 -0.6232
 7503SOL    HW123255   4.696   1.031   6.041  0.9924 -1.6873  0.2270
 7503SOL    HW223256   4.742   1.140   6.136 -0.5863 -0.6071 -0.1958
 7504SOL     OW23257   0.147   0.873   3.178 -0.2202 -0.0269  0.0780
 7504SOL    HW123258   0.212   0.863   3.247  0.2827  1.2662 -0.1765
 7504SOL    HW223259   0.063   0.862   3.221  0.0794  0.9516  0.9486
 7505SOL     OW23260   1.039   6.295   5.398  0.1656  0.1575  0.1443
 7505SOL    HW123261   0.946   6.292   5.373  0.4408 -1.1808 -0.8495
 7505SOL    HW223262   1.038   6.288   5.493 -0.7757  1.3386  0.2588
 7506SOL     OW23263   0.556   3.722   3.714 -0.0982  0.0212 -0.1393
 7506SOL    HW123264   0.497   3.765   3.652 -0.5674  0.2310  0.4473
 7506SOL    HW223265   0.593   3.794   3.765 -0.2527 -0.2049  0.2917
 7507SOL     OW23266   0.929   4.231   0.847 -0.0988 -0.1246 -0.1546
 7507SOL    HW123267   1.004   4.195   0.799 -0.2367  0.5971 -0.9414
 7507SOL    HW223268   0.856   4.173   0.827  0.8279 -2.7284  3.1128
 7508SOL     OW23269   0.975   1.480   2.345  0.2858 -0.1724  0.1860
 7508SOL    HW123270   0.946   1.397   2.307  1.0062 -0.5985  0.5573
 7508SOL    HW223271   0.908   1.502   2.410  0.6444 -1.0310  0.8663
 7509SOL     OW23272   5.592   4.637   5.941 -0.7437 -0.0813 -0.5198
 7509SOL    HW123273   5.513   4.684   5.967 -1.1894 -0.8411 -0.4830
 7509SOL    HW223274   5.664   4.693   5.971 -1.2600  0.8885 -1.0674
 7510SOL     OW23275   2.216   0.887   5.371 -0.2838  0.0974 -0.5891
 7510SOL    HW123276   2.195   0.977   5.394 -1.1911 -0.4075  0.6832
 7510SOL    HW223277   2.172   0.872   5.287 -1.4239  0.3739 -0.0496
 7511SOL     OW23278   2.040   2.192   5.645  0.3541 -0.0194 -0.1610
 7511SOL    HW123279   1.961   2.142   5.628  0.2013 -0.0856  0.6824
 7511SOL    HW223280   2.101   2.166   5.576 -1.2090  2.0073 -2.4674
 7512SOL     OW23281   4.739   2.368   0.254 -0.3532  0.2456  0.1701
 7512SOL    HW123282   4.757   2.462   0.262 -1.4029  0.3930  0.9264
 7512SOL    HW223283   4.662   2.363   0.198 -0.8625 -0.1080  0.8948
 7513SOL     OW23284   4.245   4.392   1.109 -0.0325  0.4151 -0.1474
 7513SOL    HW123285   4.152   4.418   1.113  0.0853  0.8286  0.0024
 7513SOL    HW223286   4.243   4.297   1.110 -0.5325  0.3655 -1.9721
 7514SOL     OW23287   2.243   0.148   0.264 -0.3345  0.0092  0.5036
 7514SOL    HW123288   2.158   0.129   0.223 -0.0654 -0.8062  0.2906
 7514SOL    HW223289   2.264   0.237   0.236  0.1212 -0.7171 -1.6756
 7515SOL     OW23290   0.621   2.764   5.273  0.5265  0.5845 -0.2827
 7515SOL    HW123291   0.712   2.782   5.293 -0.0371  2.1829  1.0968
 7515SOL    HW223292   0.572   2.822   5.332 -1.3662 -0.0140 -1.2013
 7516SOL     OW23293   5.267   5.476   1.529 -0.2391  0.2518  0.5670
 7516SOL    HW123294   5.245   5.437   1.614 -1.6945  3.3189  1.7318
 7516SOL    HW223295   5.362   5.482   1.529 -0.1292 -1.0869  1.3366
 7517SOL     OW23296   1.120   3.143   3.816 -0.0371  0.3360 -0.0798
 7517SOL    HW123297   1.186   3.213   3.818  0.6983 -0.2617 -1.7551
 7517SOL    HW223298   1.081   3.149   3.729 -0.4436 -0.9041 -0.0008
 7518SOL     OW23299   1.343   5.979   0.945 -0.1456 -0.3145  0.0486
 7518SOL    HW123300   1.368   6.071   0.957 -0.2921 -0.1880 -0.5518
 7518SOL    HW223301   1.333   5.969   0.850 -2.0514 -0.4217  0.2064
 7519SOL     OW23302   2.142   3.966   0.760 -0.0274 -1.0063 -0.1865
 7519SOL    HW123303   2.064   3.970   0.815  0.0645  1.5129 -0.1169
 7519SOL    HW223304   2.210   4.010   0.811  0.7326 -0.8781 -1.2780
 7520SOL     OW23305   0.077   5.817   5.148 -0.0182  0.2139  0.2870
 7520SOL    HW123306   0.103   5.725   5.146 -1.9385 -0.4133  1.3661
 7520SOL    HW223307   0.032   5.832   5.065 -0.3764 -0.0365  0.4373
 7521SOL     OW23308   5.705   3.335   4.919  0.0043  0.0356 -0.3846
 7521SOL    HW123309   5.715   3.385   5.001  4.8776 -0.4220 -0.4099
 7521SOL    HW223310   5.707   3.402   4.851 -0.0691  0.1917 -0.2368
 7522SOL     OW23311   6.103   1.723   4.184  0.0914  0.1110 -0.3351
 7522SOL    HW123312   6.174   1.664   4.208  0.2299  0.0490 -0.8838
 7522SOL    HW223313   6.023   1.672   4.200  0.1573  0.2306  0.4171
 7523SOL     OW23314   1.459   2.483   1.285  0.1089  0.2392 -0.2669
 7523SOL    HW123315   1.463   2.478   1.190 -0.2712  2.7330 -0.4801
 7523SOL    HW223316   1.408   2.561   1.304  1.0264  0.3990  1.9786
 7524SOL     OW23317   3.653   3.608   4.063  0.3655  0.0952 -0.5482
 7524SOL    HW123318   3.676   3.536   4.003  0.3406 -0.1999 -0.2106
 7524SOL    HW223319   3.595   3.567   4.127  1.3349  0.1160  0.3670
 7525SOL     OW23320   3.342   5.894   4.880 -0.3535 -0.7294 -0.0257
 7525SOL    HW123321   3.426   5.933   4.853  0.2073 -1.7314  0.2139
 7525SOL    HW223322   3.295   5.966   4.922  0.0239  0.0683 -0.9370
 7526SOL     OW23323   5.610   2.105   0.978 -0.0638 -0.2255 -0.1176
 7526SOL    HW123324   5.647   2.106   0.890 -1.4376  0.7748 -0.7140
 7526SOL    HW223325   5.613   2.196   1.007 -1.7333 -0.1656 -0.0629
 7527SOL     OW23326   1.929   3.003   2.584  0.3729 -0.0087  0.2023
 7527SOL    HW123327   1.846   3.045   2.607  0.6676  0.1036  1.1051
 7527SOL    HW223328   1.990   3.076   2.571  0.0670 -0.0363 -1.6353
 7528SOL     OW23329   0.595   4.698   3.284  0.6900 -0.2999  0.3315
 7528SOL    HW123330   0.542   4.634   3.237 -1.4203  1.3393  0.3009
 7528SOL    HW223331   0.559   4.699   3.373  0.2275  1.2643  0.1550
 7529SOL     OW23332   1.678   5.492   4.814  0.1947  0.3482 -0.4964
 7529SOL    HW123333   1.591   5.526   4.836 -1.6279 -1.8704 -3.6073
 7529SOL    HW223334   1.691   5.419   4.875 -0.2816  0.4213 -0.3030
 7530SOL     OW23335   2.305   4.875   1.267  0.5835  0.5456  0.0242
 7530SOL    HW123336   2.247   4.800   1.279  1.4538 -0.2242 -0.4209
 7530SOL    HW223337   2.355   4.880   1.349  0.9322  0.2732 -0.1705
 7531SOL     OW23338   2.129   2.422   1.895 -0.1562 -0.5745 -0.1717
 7531SOL    HW123339   2.167   2.473   1.967 -0.0172 -2.6684  1.3188
 7531SOL    HW223340   2.202   2.407   1.835  0.3928 -1.1201  0.6230
 7532SOL     OW23341   2.487   4.697   4.871 -0.4830  0.3095  0.5547
 7532SOL    HW123342   2.525   4.751   4.802 -0.6629 -0.6273 -0.2916
 7532SOL    HW223343   2.499   4.749   4.951  0.7817  0.8977  0.0153
 7533SOL     OW23344   6.251   1.690   4.887  0.1047 -0.2002 -0.5764
 7533SOL    HW123345   6.204   1.721   4.964  0.7076  0.6274 -0.5232
 7533SOL    HW223346   6.324   1.751   4.878  2.0507 -2.2602  0.2051
 7534SOL     OW23347   4.281   5.271   3.763  0.5631  0.5544  0.4625
 7534SOL    HW123348   4.220   5.231   3.702  0.1532  1.8535 -0.0072
 7534SOL    HW223349   4.365   5.230   3.743 -0.0613 -0.9968  0.8832
 7535SOL     OW23350   4.063   0.170   0.486 -0.8633  0.4207 -0.1526
 7535SOL    HW123351   4.087   0.236   0.551  1.0875  1.4650 -1.8268
 7535SOL    HW223352   4.002   0.216   0.427  1.0496  1.0714 -1.7383
 7536SOL     OW23353   5.604   1.056   5.752  0.1979  0.3062  0.2227
 7536SOL    HW123354   5.660   1.058   5.829  3.0287 -1.1814 -1.6622
 7536SOL    HW223355   5.575   1.147   5.742  1.2583  0.8846  1.9382
 7537SOL     OW23356   3.285   2.693   3.820  0.4419  0.4200  0.3500
 7537SOL    HW123357   3.297   2.607   3.781 -1.6641 -0.2149  0.9831
 7537SOL    HW223358   3.248   2.746   3.749  0.8179  0.5509  0.2452
 7538SOL     OW23359   1.149   4.158   0.718  0.1489 -0.3149 -0.1182
 7538SOL    HW123360   1.225   4.215   0.708  0.2642 -0.6330 -1.2421
 7538SOL    HW223361   1.110   4.154   0.630 -1.6059  0.4354  0.5763
 7539SOL     OW23362   2.477   3.711   1.310  0.7523 -0.1060 -0.2852
 7539SOL    HW123363   2.490   3.632   1.257  0.2613 -0.4828  0.1412
 7539SOL    HW223364   2.470   3.678   1.400 -1.5242  0.1967 -0.3078
 7540SOL     OW23365   5.874   3.621   2.242 -0.2082  0.3136 -0.5786
 7540SOL    HW123366   5.836   3.655   2.161  0.8483  0.8364 -0.8691
 7540SOL    HW223367   5.889   3.698   2.296  2.0538  0.3510 -1.1747
 7541SOL     OW23368   2.264   3.988   1.410 -0.2200  0.2735  0.3573
 7541SOL    HW123369   2.264   3.996   1.315 -1.6549 -1.2508  0.2048
 7541SOL    HW223370   2.355   3.966   1.432 -0.0164  0.0038 -0.7183
 7542SOL     OW23371   5.649   5.557   3.927 -0.1703  0.4230 -0.0108
 7542SOL    HW123372   5.743   5.565   3.908  0.1395  1.8989  1.8412
 7542SOL    HW223373   5.611   5.637   3.891 -0.7971 -0.3421 -1.0720
 7543SOL     OW23374   2.777   3.444   2.448 -0.1070 -0.2731  0.0737
 7543SOL    HW123375   2.777   3.470   2.355 -1.6546  0.7958  0.3402
 7543SOL    HW223376   2.861   3.399   2.459  0.6619  0.6325 -1.5581
 7544SOL     OW23377   5.068   5.818   1.647 -0.5223  0.4653  0.5677
 7544SOL    HW123378   5.128   5.760   1.693  1.1523  2.5929  1.2432
 7544SOL    HW223379   5.086   5.802   1.554  0.7199  0.6647  0.7581
 7545SOL     OW23380   3.579   2.900   4.952 -0.5812  0.0139 -0.3837
 7545SOL    HW123381   3.520   2.963   4.910  0.2662  1.6800  0.7967
 7545SOL    HW223382   3.532   2.873   5.031 -1.1604 -1.2771 -1.1420
 7546SOL     OW23383   2.500   5.978   4.518 -0.7967 -0.2735 -0.1261
 7546SOL    HW123384   2.542   5.950   4.599  0.4591  0.5441 -0.4769
 7546SOL    HW223385   2.515   5.906   4.457  1.3151  0.5567 -0.6480
 7547SOL     OW23386   6.263   0.824   6.238  0.2691  0.1173  0.4170
 7547SOL    HW123387   6.292   0.849   6.150  0.0063  0.8499  0.5295
 7547SOL    HW223388   6.251   0.729   6.233  1.3798 -0.0107 -0.0019
 7548SOL     OW23389   4.159   1.480   5.093  0.2101  0.3515 -0.2216
 7548SOL    HW123390   4.074   1.499   5.133  0.1005  1.1331 -0.8038
 7548SOL    HW223391   4.187   1.398   5.134 -1.5391 -0.7656 -1.1269
 7549SOL     OW23392   5.656   5.875   0.358 -0.1077 -0.3823 -0.3122
 7549SOL    HW123393   5.566   5.844   0.351  0.3698 -1.5014 -3.8250
 7549SOL    HW223394   5.656   5.959   0.311  0.7152 -0.5610 -0.6532
 7550SOL     OW23395   1.164   1.896   5.326  0.0584  0.5387 -0.2475
 7550SOL    HW123396   1.177   1.846   5.407  0.3479  0.8562 -0.0953
 7550SOL    HW223397   1.131   1.981   5.356 -2.7149 -0.3192 -0.6335
 7551SOL     OW23398   3.693   4.479   5.352 -0.2085 -0.4147 -0.0002
 7551SOL    HW123399   3.671   4.402   5.404  2.2473  1.1001  3.7061
 7551SOL    HW223400   3.629   4.545   5.378  0.5080  0.0997  0.5070
 7552SOL     OW23401   1.171   5.116   5.794 -0.4217 -0.0392  0.0532
 7552SOL    HW123402   1.241   5.176   5.767  1.4463 -2.5074 -0.9796
 7552SOL    HW223403   1.216   5.052   5.850 -1.9069 -1.5440 -0.4139
 7553SOL     OW23404   0.749   0.877   6.011  0.2517  0.0974 -0.4491
 7553SOL    HW123405   0.679   0.816   6.035  0.2139  0.3543  0.1181
 7553SOL    HW223406   0.825   0.821   5.997 -0.0286 -0.1707 -0.9237
 7554SOL     OW23407   4.256   4.013   0.870 -0.2397 -0.1587 -0.2246
 7554SOL    HW123408   4.316   3.950   0.910 -0.0505  1.0823  1.5488
 7554SOL    HW223409   4.293   4.098   0.892 -1.0457  0.6153 -1.7117
 7555SOL     OW23410   4.398   0.516   2.686  0.1924 -0.0258 -0.1178
 7555SOL    HW123411   4.344   0.468   2.624  0.9809  1.4795 -2.0725
 7555SOL    HW223412   4.480   0.534   2.639  0.7578  1.3245  1.2745
 7556SOL     OW23413   2.345   2.921   6.172  0.1566  0.0647 -0.0092
 7556SOL    HW123414   2.311   2.964   6.093  0.3769  0.8131  0.3015
 7556SOL    HW223415   2.371   2.834   6.141 -1.8355 -0.4854 -0.2962
 7557SOL     OW23416   1.440   5.193   6.115  0.1144 -0.4814 -0.2573
 7557SOL    HW123417   1.520   5.201   6.167  0.1737 -0.3617 -0.3668
 7557SOL    HW223418   1.459   5.242   6.034  0.6249 -2.0136 -1.1136
 7558SOL     OW23419   5.190   2.914   1.567 -0.1361 -0.3361 -0.3934
 7558SOL    HW123420   5.200   2.848   1.635 -0.4951  2.4774  2.6318
 7558SOL    HW223421   5.278   2.949   1.554 -0.4270  0.7858  0.4980
 7559SOL     OW23422   1.598   2.660   0.570 -0.0220 -0.3200 -0.5392
 7559SOL    HW123423   1.562   2.632   0.486  0.2417  0.1872 -0.8282
 7559SOL    HW223424   1.693   2.654   0.558  0.0150 -0.2941 -0.2621
 7560SOL     OW23425   2.825   2.789   1.165 -0.2226 -0.2705 -0.0126
 7560SOL    HW123426   2.882   2.720   1.198  0.2231  0.3928  0.6499
 7560SOL    HW223427   2.765   2.808   1.237 -0.8364 -0.4886 -0.4598
 7561SOL     OW23428   5.522   4.498   0.587  0.1313  0.3000  0.1333
 7561SOL    HW123429   5.591   4.443   0.626 -0.7035  1.1331  3.0600
 7561SOL    HW223430   5.559   4.586   0.589 -0.3801  0.5161  0.1525
 7562SOL     OW23431   0.739   4.280   5.536 -0.4728 -0.1864  0.8276
 7562SOL    HW123432   0.760   4.360   5.486 -1.3886 -0.4496 -0.0114
 7562SOL    HW223433   0.670   4.238   5.485 -0.3277 -1.2839  1.5143
 7563SOL     OW23434   3.257   0.881   5.704  0.5311  0.1007  0.3366
 7563SOL    HW123435   3.297   0.955   5.658  2.7487 -0.7811  0.7191
 7563SOL    HW223436   3.250   0.911   5.795  1.1142 -0.0313  0.4272
 7564SOL     OW23437   3.261   5.416   5.269 -0.1278  0.0063 -0.2994
 7564SOL    HW123438   3.339   5.377   5.229  0.4448 -0.1790  0.9245
 7564SOL    HW223439   3.209   5.342   5.299 -0.7119  0.1342 -0.9651
 7565SOL     OW23440   0.124   2.355   5.375  0.3483 -0.4084 -0.2757
 7565SOL    HW123441   0.207   2.402   5.388  0.4805 -0.3092 -1.3701
 7565SOL    HW223442   0.143   2.294   5.304 -0.4986 -0.4478 -0.4728
 7566SOL     OW23443   1.154   4.717   4.846  0.3800 -0.1954  0.8930
 7566SOL    HW123444   1.119   4.747   4.930 -0.8102 -2.6089  1.3596
 7566SOL    HW223445   1.091   4.651   4.817  0.1641  1.3104 -2.4862
 7567SOL     OW23446   0.273   6.274   6.225  0.4011  0.0721 -0.1050
 7567SOL    HW123447   0.296   6.249   6.314  1.8691  1.2973 -0.1103
 7567SOL    HW223448   0.177   6.279   6.226  0.2145 -2.2149  0.7352
 7568SOL     OW23449   2.331   4.179   1.864 -0.2538  0.6818  0.9142
 7568SOL    HW123450   2.294   4.178   1.952 -1.6151  2.9677  0.4228
 7568SOL    HW223451   2.255   4.175   1.805  0.5823  0.2271 -0.1810
 7569SOL     OW23452   3.639   1.427   2.008 -0.0266  0.4995  0.4399
 7569SOL    HW123453   3.566   1.366   2.020  0.5776 -0.2426  0.3943
 7569SOL    HW223454   3.597   1.508   1.978 -0.7792 -0.0946 -0.1547
 7570SOL     OW23455   6.202   2.174   5.709  0.2778  0.2734  0.4925
 7570SOL    HW123456   6.167   2.196   5.796 -0.7885 -0.1600  0.1887
 7570SOL    HW223457   6.206   2.078   5.709 -0.6018  0.2297 -0.2598
 7571SOL     OW23458   5.244   3.180   3.279  0.5723  0.0525  0.1051
 7571SOL    HW123459   5.280   3.128   3.350  2.3125 -0.5316 -1.1368
 7571SOL    HW223460   5.158   3.142   3.262  0.8950 -0.9695  0.7028
 7572SOL     OW23461   2.846   3.580   1.476  0.1487 -0.6759 -0.3743
 7572SOL    HW123462   2.898   3.550   1.401  0.5626  1.3117 -0.9449
 7572SOL    HW223463   2.901   3.560   1.552  1.8111  1.3554 -0.9609
 7573SOL     OW23464   5.668   4.169   5.115  0.3566  0.2270 -0.5859
 7573SOL    HW123465   5.632   4.107   5.180  0.1760  0.0706 -0.8342
 7573SOL    HW223466   5.749   4.201   5.155 -0.6741  1.5319  0.5339
 7574SOL     OW23467   6.094   4.599   6.125 -0.7378  0.1528  0.4634
 7574SOL    HW123468   6.089   4.650   6.044 -1.3971  0.3818  0.6395
 7574SOL    HW223469   6.007   4.559   6.133  0.4688 -3.1085 -1.0057
 7575SOL     OW23470   5.861   2.390   2.077  0.0098  0.3018 -0.3562
 7575SOL    HW123471   5.820   2.407   1.992 -2.4703  2.3783  1.0821
 7575SOL    HW223472   5.915   2.468   2.093  1.1537 -0.4669 -0.3466
 7576SOL     OW23473   6.247   2.218   1.694 -0.2070 -0.4284  0.1601
 7576SOL    HW123474   6.289   2.206   1.779  1.5620  2.2506 -0.2073
 7576SOL    HW223475   6.284   2.150   1.639 -0.8034 -1.7188  1.3095
 7577SOL     OW23476   4.340   3.233   0.394  0.5259 -0.3306 -0.0583
 7577SOL    HW123477   4.283   3.168   0.434  0.4526 -1.2320 -1.5445
 7577SOL    HW223478   4.381   3.187   0.321 -0.8223  1.6854 -2.2382
 7578SOL     OW23479   4.312   3.191   6.079  0.3138 -0.2413 -0.0489
 7578SOL    HW123480   4.302   3.265   6.019  0.6000  0.2008  0.4427
 7578SOL    HW223481   4.316   3.230   6.166  1.2050 -0.7773  0.1662
 7579SOL     OW23482   4.588   3.957   4.370 -0.3550  0.3831  0.9719
 7579SOL    HW123483   4.621   4.005   4.295  2.5008 -1.9280  0.5536
 7579SOL    HW223484   4.632   3.996   4.446 -0.7569  0.6665  1.0612
 7580SOL     OW23485   1.745   5.603   5.775 -0.1123 -0.1824  0.7504
 7580SOL    HW123486   1.794   5.659   5.715  1.2202 -0.9627  1.0775
 7580SOL    HW223487   1.750   5.516   5.736 -0.7155 -0.3841  1.1118
 7581SOL     OW23488   1.891   0.493   3.011 -0.0758  0.3488 -0.2987
 7581SOL    HW123489   1.861   0.541   2.934  3.5666  0.2290 -1.9743
 7581SOL    HW223490   1.926   0.562   3.069 -0.0567  0.1766 -0.1050
 7582SOL     OW23491   2.228   4.345   4.932 -0.1416  0.4542  0.2531
 7582SOL    HW123492   2.296   4.281   4.914  0.8245  1.8440 -1.3592
 7582SOL    HW223493   2.169   4.339   4.857  0.4354  1.9815 -0.3765
 7583SOL     OW23494   2.390   6.115   4.984  0.5655 -1.0129  0.0295
 7583SOL    HW123495   2.446   6.147   4.914 -0.2821  0.5038 -0.0022
 7583SOL    HW223496   2.450   6.098   5.057  1.1032  0.7900  0.0732
 7584SOL     OW23497   2.359   1.994   2.970 -0.3642  0.3987  0.0317
 7584SOL    HW123498   2.405   2.010   3.052 -0.7520  0.8994  0.1541
 7584SOL    HW223499   2.266   2.005   2.992 -0.4498  0.8483 -0.5458
 7585SOL     OW23500   0.722   4.771   0.085 -0.3216  0.6835  0.4120
 7585SOL    HW123501   0.644   4.792   0.136 -1.3624  0.7813 -1.1476
 7585SOL    HW223502   0.728   4.842   0.020 -0.9277 -1.0462 -1.6485
 7586SOL     OW23503   3.628   3.755   2.714 -0.2656 -0.5631 -1.0714
 7586SOL    HW123504   3.534   3.740   2.729 -0.1050  0.6482  1.9782
 7586SOL    HW223505   3.672   3.695   2.775  0.7381  1.4669  0.3421
 7587SOL     OW23506   4.698   0.227   5.255 -0.3610 -0.3751 -0.0452
 7587SOL    HW123507   4.657   0.314   5.254 -2.0947 -1.1496 -0.6391
 7587SOL    HW223508   4.629   0.168   5.224  0.2621 -2.2000  1.7995
 7588SOL     OW23509   1.301   0.414   1.909 -0.1886  0.0905 -0.2242
 7588SOL    HW123510   1.266   0.416   1.820 -0.9550  1.1340  0.0890
 7588SOL    HW223511   1.248   0.349   1.954 -0.9208  0.7722 -0.0873
 7589SOL     OW23512   2.131   0.699   4.480  0.9668 -0.4307 -0.7275
 7589SOL    HW123513   2.057   0.707   4.420 -0.6789  1.2143  1.3818
 7589SOL    HW223514   2.098   0.648   4.554  1.4095  1.4896  0.8978
 7590SOL     OW23515   3.956   5.717   0.458 -0.4563  0.2249 -0.1159
 7590SOL    HW123516   4.024   5.706   0.524  0.4059 -2.1506 -1.2819
 7590SOL    HW223517   3.997   5.771   0.390 -1.3902  2.7894  1.2307
 7591SOL     OW23518   2.548   3.538   1.099  0.5769  0.0804 -0.3086
 7591SOL    HW123519   2.504   3.559   1.017  0.4457 -1.9332 -0.8063
 7591SOL    HW223520   2.498   3.465   1.135  0.5728  0.9886  1.6414
 7592SOL     OW23521   3.420   5.361   3.983 -0.3019  0.0117  0.4804
 7592SOL    HW123522   3.384   5.273   3.970  0.0266 -0.4315  2.2841
 7592SOL    HW223523   3.360   5.401   4.046  0.5361  0.4339  1.0205
 7593SOL     OW23524   4.283   0.221   1.746  0.2263 -0.4458  0.7986
 7593SOL    HW123525   4.298   0.313   1.723  1.3635 -0.9043 -0.3977
 7593SOL    HW223526   4.311   0.214   1.838 -0.0521  0.4312  0.9593
 7594SOL     OW23527   4.922   0.676   2.022 -0.3560 -0.2445 -0.1781
 7594SOL    HW123528   4.851   0.666   1.959  0.4393 -2.0385 -0.8578
 7594SOL    HW223529   4.916   0.768   2.050 -2.1692 -0.0250 -1.0996
 7595SOL     OW23530   2.518   1.721   2.935 -0.2620  0.1191 -0.4799
 7595SOL    HW123531   2.484   1.631   2.936 -1.0537  0.2651  3.4462
 7595SOL    HW223532   2.441   1.776   2.940  0.2725  0.9906 -1.4875
 7596SOL     OW23533   5.682   3.190   3.445 -0.3076  0.2045 -0.2263
 7596SOL    HW123534   5.601   3.140   3.435  0.8774 -1.9668  0.3564
 7596SOL    HW223535   5.734   3.139   3.508  1.6263  1.3703 -0.7936
 7597SOL     OW23536   4.999   3.686   4.767  0.3048 -0.0105  0.2777
 7597SOL    HW123537   4.918   3.734   4.754  0.1248  0.4038  2.6674
 7597SOL    HW223538   4.982   3.599   4.729 -0.4523  0.7390 -1.1839
 7598SOL     OW23539   5.403   0.377   5.709  0.0600 -0.2448 -0.5591
 7598SOL    HW123540   5.399   0.473   5.706 -1.2958 -0.3077 -1.5367
 7598SOL    HW223541   5.430   0.351   5.621  0.1956 -0.7860 -0.3651
 7599SOL     OW23542   4.020   6.214   5.045 -0.5761 -0.8047 -0.6070
 7599SOL    HW123543   4.040   6.227   5.137  0.4934 -3.8037 -0.2697
 7599SOL    HW223544   4.020   6.301   5.007  0.9065  0.3738  1.8653
 7600SOL     OW23545   5.077   6.299   2.754  0.0662  0.1072  0.1036
 7600SOL    HW123546   5.020   6.356   2.806  0.0252 -0.5201  0.7536
 7600SOL    HW223547   5.057   6.211   2.783  1.4361 -0.1269  0.4127
 7601SOL     OW23548   1.499   4.982   0.440  0.0418  0.3565  0.1581
 7601SOL    HW123549   1.512   5.018   0.528  0.2055  1.3804 -0.2637
 7601SOL    HW223550   1.416   5.019   0.412  0.3613  0.6472 -0.4089
 7602SOL     OW23551   0.074   3.318   5.045  0.4279  0.0650 -0.3373
 7602SOL    HW123552   0.071   3.413   5.052  0.6589  0.3346 -2.8280
 7602SOL    HW223553   0.123   3.289   5.122 -2.6468  1.5840  2.4420
 7603SOL     OW23554   2.775   1.269   0.746 -0.3965  0.0249 -0.4073
 7603SOL    HW123555   2.787   1.270   0.841 -2.4139 -0.4809 -0.0972
 7603SOL    HW223556   2.810   1.353   0.717 -0.0778  0.3472  0.8344
 7604SOL     OW23557   1.993   2.771   2.714  0.1376  0.2328  0.2418
 7604SOL    HW123558   1.961   2.787   2.803  0.6292  0.5335  0.3747
 7604SOL    HW223559   1.981   2.855   2.670  0.2816  0.2080  0.1541
 7605SOL     OW23560   0.387   0.076   0.210 -0.1572 -0.2354  0.0657
 7605SOL    HW123561   0.433   0.155   0.239 -0.7085  0.1083  0.0111
 7605SOL    HW223562   0.456   0.010   0.203 -0.1040 -0.7858  3.5420
 7606SOL     OW23563   3.041   4.511   3.437 -0.4242  0.3139 -0.6522
 7606SOL    HW123564   3.018   4.424   3.405 -2.2607  0.6262 -0.2827
 7606SOL    HW223565   2.957   4.554   3.453  0.4363  1.5817  0.7277
 7607SOL     OW23566   0.577   0.700   3.024 -0.5020  0.3144  0.0359
 7607SOL    HW123567   0.549   0.774   3.078 -1.1557  0.4059 -0.4081
 7607SOL    HW223568   0.668   0.719   3.001 -0.2344  0.2944  1.0639
 7608SOL     OW23569   4.316   4.978   0.808  0.0600 -0.0666  0.0134
 7608SOL    HW123570   4.403   5.012   0.829 -0.6989  2.2174 -0.2052
 7608SOL    HW223571   4.304   5.001   0.715 -1.5449  1.6063  0.5716
 7609SOL     OW23572   2.983   1.154   3.669  0.4068 -0.0408 -0.4207
 7609SOL    HW123573   3.021   1.080   3.622 -1.2648 -1.1613 -0.0725
 7609SOL    HW223574   2.973   1.124   3.759  0.8760  1.0715  0.0224
 7610SOL     OW23575   0.582   2.154   0.362 -0.2248  0.4514  0.0705
 7610SOL    HW123576   0.676   2.171   0.356 -0.1613  0.3731  0.7418
 7610SOL    HW223577   0.544   2.236   0.394 -0.0564 -0.2622  2.2256
 7611SOL     OW23578   3.420   4.358   2.680 -0.3211  0.1052 -0.0767
 7611SOL    HW123579   3.364   4.402   2.743  0.0401  0.2892  0.1180
 7611SOL    HW223580   3.501   4.410   2.679  0.3024 -0.8398  0.5250
 7612SOL     OW23581   5.803   5.908   2.396 -0.3406  0.0793  0.2516
 7612SOL    HW123582   5.791   5.845   2.467 -1.2459 -1.3940 -1.1517
 7612SOL    HW223583   5.725   5.963   2.398 -0.7437 -0.4778 -0.0959
 7613SOL     OW23584   2.150   4.615   0.365 -0.8292 -0.4059  0.5289
 7613SOL    HW123585   2.129   4.702   0.400  0.0425 -0.8958  2.4123
 7613SOL    HW223586   2.066   4.579   0.337 -0.9499  1.9115 -2.5916
 7614SOL     OW23587   1.469   0.585   5.314 -0.7569  0.1938  0.3537
 7614SOL    HW123588   1.413   0.588   5.391  1.2495  0.6902  1.8870
 7614SOL    HW223589   1.449   0.666   5.267 -0.1052  1.2544  1.8253
 7615SOL     OW23590   1.444   2.287   2.681  0.0323 -0.0807  0.0588
 7615SOL    HW123591   1.464   2.375   2.713  0.4950  0.6350 -2.0673
 7615SOL    HW223592   1.526   2.254   2.646 -0.4131 -0.8895 -0.2622
 7616SOL     OW23593   2.693   3.581   3.406 -0.3538 -0.4075 -0.0522
 7616SOL    HW123594   2.676   3.502   3.457 -0.5453 -1.0685 -1.1035
 7616SOL    HW223595   2.614   3.595   3.355 -1.2021  1.7526  1.6925
 7617SOL     OW23596   4.703   5.526   5.306 -0.0128 -0.5960 -0.3561
 7617SOL    HW123597   4.662   5.521   5.219  1.7793 -1.4070 -1.2228
 7617SOL    HW223598   4.758   5.604   5.302 -0.1895 -0.4439  0.1783
 7618SOL     OW23599   5.882   2.761   4.431  0.1608 -0.2186  0.1522
 7618SOL    HW123600   5.922   2.789   4.349  1.4343 -0.3514  0.7038
 7618SOL    HW223601   5.925   2.678   4.452 -1.3701 -1.0510  0.1049
 7619SOL     OW23602   5.151   3.594   0.917  0.2809  0.0911  0.3226
 7619SOL    HW123603   5.212   3.666   0.933  1.0306 -0.6014  0.6759
 7619SOL    HW223604   5.183   3.553   0.836 -1.1653  1.1734 -0.8612
 7620SOL     OW23605   3.749   2.825   2.096 -0.5031 -0.0531 -0.1321
 7620SOL    HW123606   3.664   2.780   2.093  0.1173 -1.7213  2.8107
 7620SOL    HW223607   3.730   2.910   2.136 -0.7878 -0.5241  0.7632
 7621SOL     OW23608   2.128   0.171   0.717  0.4307  0.2342 -0.0760
 7621SOL    HW123609   2.204   0.164   0.775  0.7666  1.7078 -0.3120
 7621SOL    HW223610   2.071   0.234   0.760 -1.4032 -1.9257  0.8518
 7622SOL     OW23611   2.519   3.087   5.145  0.1766  0.3229 -0.0939
 7622SOL    HW123612   2.583   3.103   5.214  0.3526 -0.0909 -0.1608
 7622SOL    HW223613   2.549   3.140   5.071  1.6752 -1.4996 -0.8800
 7623SOL     OW23614   0.410   3.983   2.212 -0.1960  0.2636 -0.1181
 7623SOL    HW123615   0.494   3.955   2.174 -1.5658 -0.7763 -2.5583
 7623SOL    HW223616   0.405   3.935   2.295  1.6613  0.4585  0.1497
 7624SOL     OW23617   2.688   0.337   3.739  0.5311  0.1685 -0.0023
 7624SOL    HW123618   2.683   0.419   3.787 -2.2478 -0.1082  0.3295
 7624SOL    HW223619   2.631   0.349   3.663 -0.3361 -1.5837  0.3166
 7625SOL     OW23620   2.656   2.933   2.772  0.1235 -0.0847 -0.3901
 7625SOL    HW123621   2.652   2.922   2.677  2.5765  0.3687 -0.6215
 7625SOL    HW223622   2.748   2.951   2.789  0.1446 -2.1643  2.2993
 7626SOL     OW23623   0.160   2.618   3.412 -0.7244  0.4033  0.9422
 7626SOL    HW123624   0.170   2.624   3.317  2.8956 -0.3744  1.1371
 7626SOL    HW223625   0.228   2.676   3.446  0.0270 -1.5765  3.0009
 7627SOL     OW23626   3.498   3.189   6.028  0.0783  0.2461  0.4166
 7627SOL    HW123627   3.412   3.162   6.058  0.3802  1.3573  2.4630
 7627SOL    HW223628   3.501   3.283   6.046  1.8352  0.1610  0.7363
 7628SOL     OW23629   6.233   2.752   2.080  0.0952  0.5289 -0.0359
 7628SOL    HW123630   6.238   2.739   2.174  0.1589 -1.4798 -0.2686
 7628SOL    HW223631   6.228   2.847   2.069 -1.5837  0.7651  2.0613
 7629SOL     OW23632   2.202   1.343   1.825 -0.7315 -0.3738  0.4233
 7629SOL    HW123633   2.266   1.322   1.895 -0.5436  1.4512  0.8421
 7629SOL    HW223634   2.224   1.282   1.755 -1.3157 -2.7247  2.1250
 7630SOL     OW23635   1.881   4.550   1.460  0.4156  0.1184  0.4155
 7630SOL    HW123636   1.819   4.488   1.499  1.6992 -1.6393 -0.1981
 7630SOL    HW223637   1.831   4.592   1.390 -0.3398 -0.6536  0.4642
 7631SOL     OW23638   4.280   1.869   1.367  0.0448 -0.2657  0.5976
 7631SOL    HW123639   4.242   1.838   1.449  0.8275  1.0147  1.4847
 7631SOL    HW223640   4.206   1.874   1.307 -0.5346 -1.2711  1.1950
 7632SOL     OW23641   4.609   3.637   4.057  0.3020  0.3800  0.2613
 7632SOL    HW123642   4.544   3.704   4.080 -0.6340 -0.8036  1.1665
 7632SOL    HW223643   4.688   3.663   4.105 -0.1865  0.5977  0.9581
 7633SOL     OW23644   4.069   3.562   1.258  0.0117 -0.2857 -0.3175
 7633SOL    HW123645   4.071   3.505   1.181 -0.6582  0.1111 -0.6378
 7633SOL    HW223646   4.114   3.642   1.229  1.1623 -0.7173  0.2027
 7634SOL     OW23647   3.293   5.232   1.600  0.1407 -0.0206 -0.1956
 7634SOL    HW123648   3.386   5.251   1.612 -0.2174  1.2604  0.7092
 7634SOL    HW223649   3.248   5.286   1.665 -1.4147  1.3695 -2.3047
 7635SOL     OW23650   5.165   4.584   3.680  0.1951 -0.3659 -0.2191
 7635SOL    HW123651   5.172   4.521   3.752 -2.7897 -0.6825 -0.0829
 7635SOL    HW223652   5.216   4.545   3.609  1.2926 -1.1787  0.9680
 7636SOL     OW23653   5.055   5.001   3.049 -0.6995  0.0141 -0.3402
 7636SOL    HW123654   5.114   5.076   3.064 -0.0400 -0.6271  0.3384
 7636SOL    HW223655   5.053   4.955   3.133 -2.3764  0.1415 -0.2684
 7637SOL     OW23656   1.300   4.701   6.112  1.0404 -0.3337  0.7666
 7637SOL    HW123657   1.340   4.773   6.160  0.4076  1.2532 -0.9569
 7637SOL    HW223658   1.356   4.626   6.131  2.8550  1.0260  1.1360
 7638SOL     OW23659   5.636   0.144   2.214 -0.3799 -0.1966 -0.2553
 7638SOL    HW123660   5.561   0.091   2.240 -0.5492  0.5462  0.8555
 7638SOL    HW223661   5.712   0.097   2.247 -0.5599  0.4593  1.2112
 7639SOL     OW23662   5.315   3.994   1.798  0.1412 -0.4462 -0.3075
 7639SOL    HW123663   5.315   4.090   1.793 -2.3847 -0.2885  1.2049
 7639SOL    HW223664   5.339   3.966   1.709  0.2559  1.5633 -0.9678
 7640SOL     OW23665   1.051   6.031   3.491 -0.0097 -0.1927  0.1437
 7640SOL    HW123666   1.092   6.088   3.427  1.0166 -1.7311 -0.6393
 7640SOL    HW223667   1.123   6.001   3.546 -0.8585  1.0074  1.9854
 7641SOL     OW23668   2.873   5.088   5.437 -0.0002  0.4242  0.7180
 7641SOL    HW123669   2.907   5.045   5.515  1.1043  0.8454  0.4979
 7641SOL    HW223670   2.816   5.023   5.396 -2.3602  0.9452  2.9823
 7642SOL     OW23671   5.613   4.583   0.945 -0.1812 -0.3026  0.2470
 7642SOL    HW123672   5.537   4.581   1.002 -0.4918 -0.3138 -0.1594
 7642SOL    HW223673   5.644   4.492   0.943 -1.3114 -0.7038 -1.0882
 7643SOL     OW23674   5.709   1.881   4.945  0.2772 -0.1024 -0.1856
 7643SOL    HW123675   5.786   1.938   4.946  0.4021 -0.2621 -0.5118
 7643SOL    HW223676   5.738   1.802   4.898 -0.1027 -0.1410 -0.3615
 7644SOL     OW23677   5.505   2.593   3.047  0.5047 -0.5076 -0.3077
 7644SOL    HW123678   5.413   2.589   3.023 -0.0159 -0.3417  1.5135
 7644SOL    HW223679   5.525   2.687   3.048  0.8564 -0.5601 -1.1815
 7645SOL     OW23680   4.750   3.877   2.723  0.4067  0.3578  0.1844
 7645SOL    HW123681   4.711   3.952   2.767 -0.9846 -0.0762 -0.2633
 7645SOL    HW223682   4.716   3.801   2.771 -1.4001 -0.1424 -1.7532
 7646SOL     OW23683   1.537   0.995   0.508 -0.5755 -0.4166 -0.3280
 7646SOL    HW123684   1.502   0.906   0.498 -0.8793 -0.4998  1.2580
 7646SOL    HW223685   1.624   0.981   0.545 -0.7905 -0.0566  0.3299
 7647SOL     OW23686   1.565   2.537   5.776 -0.3121 -0.7020  0.0882
 7647SOL    HW123687   1.521   2.617   5.805 -0.0610 -0.5722  0.1058
 7647SOL    HW223688   1.639   2.526   5.835 -1.0360 -1.6080  0.8612
 7648SOL     OW23689   0.700   2.190   5.430 -0.6720  0.1652  0.0147
 7648SOL    HW123690   0.666   2.134   5.360 -0.6208 -1.3481  1.1434
 7648SOL    HW223691   0.677   2.144   5.511  1.2166  0.7303  0.9228
 7649SOL     OW23692   5.853   3.740   0.370 -0.3599 -0.1604  0.7345
 7649SOL    HW123693   5.840   3.645   0.379 -1.7503 -0.3216 -2.0427
 7649SOL    HW223694   5.770   3.777   0.400 -0.4230  0.0729  0.2683
 7650SOL     OW23695   4.315   4.715   2.341  0.1400  0.6921 -0.0849
 7650SOL    HW123696   4.393   4.701   2.288 -0.5625  1.3882 -1.3335
 7650SOL    HW223697   4.320   4.807   2.367  0.0318  0.5821  0.3446
 7651SOL     OW23698   1.914   5.890   4.014  0.7045 -0.5873 -0.0786
 7651SOL    HW123699   1.855   5.954   4.055  1.6559 -0.1966  0.7228
 7651SOL    HW223700   1.995   5.896   4.064  1.3609 -1.2833 -1.0093
 7652SOL     OW23701   5.027   1.870   2.817  0.5998 -0.2846 -0.2163
 7652SOL    HW123702   5.080   1.792   2.833  0.3229 -0.4949 -0.3211
 7652SOL    HW223703   5.051   1.930   2.888  0.4279 -0.6679  0.1712
 7653SOL     OW23704   2.287   1.836   4.906  0.4872  0.0052 -0.2593
 7653SOL    HW123705   2.325   1.915   4.945  0.8503 -0.4108  0.2484
 7653SOL    HW223706   2.316   1.839   4.815 -1.1552  1.4751 -0.7773
 7654SOL     OW23707   4.263   2.462   3.608  0.4612 -0.0098 -0.0212
 7654SOL    HW123708   4.173   2.431   3.613  1.3130 -2.5505  1.0242
 7654SOL    HW223709   4.292   2.465   3.700  2.1161 -1.4701 -0.4665
 7655SOL     OW23710   1.680   0.072   6.263  0.3075  0.2433 -0.1488
 7655SOL    HW123711   1.616   0.113   6.206  0.4362 -1.0499 -1.2695
 7655SOL    HW223712   1.631   0.003   6.308  1.2006 -1.9616 -2.3396
 7656SOL     OW23713   5.101   4.399   2.935 -0.3540 -0.4218  0.3105
 7656SOL    HW123714   5.008   4.399   2.957 -0.6511  2.4784 -0.5166
 7656SOL    HW223715   5.146   4.391   3.019 -1.4131  1.5359  1.1146
 7657SOL     OW23716   1.841   0.844   3.552  0.3426 -0.7132 -0.2951
 7657SOL    HW123717   1.900   0.863   3.479  0.6529 -1.4095 -0.2366
 7657SOL    HW223718   1.847   0.749   3.563 -0.9702 -0.8231 -0.4318
 7658SOL     OW23719   4.138   0.166   3.017  0.3505 -0.4252  0.1030
 7658SOL    HW123720   4.057   0.217   3.023  0.3495 -0.4690  0.4572
 7658SOL    HW223721   4.128   0.097   3.082  0.4882 -0.6945 -0.1588
 7659SOL     OW23722   2.196   5.973   2.944  0.2120 -0.4325 -0.1313
 7659SOL    HW123723   2.217   5.891   2.899 -1.3883 -1.4070  0.7914
 7659SOL    HW223724   2.279   6.003   2.980  0.7229 -2.0176  0.0951
 7660SOL     OW23725   2.099   5.827   4.299 -0.3068 -0.0676 -0.8607
 7660SOL    HW123726   2.124   5.803   4.388  0.9470 -1.9668 -1.6511
 7660SOL    HW223727   2.015   5.872   4.308 -0.1295 -0.0863  1.2716
 7661SOL     OW23728   2.244   2.850   1.816  0.1175  0.3709  0.2417
 7661SOL    HW123729   2.176   2.844   1.883 -0.9647  0.7901 -0.7861
 7661SOL    HW223730   2.297   2.926   1.842 -0.6250  0.8647  0.3424
 7662SOL     OW23731   5.016   4.661   3.072 -0.0928 -0.2098 -0.1702
 7662SOL    HW123732   4.947   4.709   3.118 -0.2981 -0.5572 -0.1128
 7662SOL    HW223733   4.991   4.668   2.979 -0.1971 -0.3251 -0.1506
 7663SOL     OW23734   3.480   0.618   3.761 -0.3547  0.7333 -0.4354
 7663SOL    HW123735   3.490   0.712   3.749  0.8534  0.9431  1.7644
 7663SOL    HW223736   3.422   0.609   3.837 -0.9139 -0.3323 -0.9630
 7664SOL     OW23737   2.972   5.866   1.578  0.5439 -0.3195  0.4866
 7664SOL    HW123738   2.962   5.919   1.498  0.6744  2.4132  2.1431
 7664SOL    HW223739   2.913   5.792   1.565 -1.0987  1.1845 -1.2406
 7665SOL     OW23740   1.592   2.137   5.276 -0.4402  0.0234  0.1015
 7665SOL    HW123741   1.537   2.215   5.271  0.1431  0.3402 -2.3218
 7665SOL    HW223742   1.533   2.069   5.311 -1.9630  0.7239 -0.9919
 7666SOL     OW23743   4.701   2.163   5.100 -0.1712 -0.2277 -0.3290
 7666SOL    HW123744   4.688   2.254   5.072  3.2011  0.5677  0.1705
 7666SOL    HW223745   4.681   2.111   5.023 -1.1891  1.0159 -0.9438
 7667SOL     OW23746   2.946   1.544   2.541 -0.0989 -0.1301  0.2967
 7667SOL    HW123747   2.987   1.532   2.626 -0.8423  0.0803  0.6906
 7667SOL    HW223748   2.875   1.480   2.539 -1.1070  0.9514  0.5019
 7668SOL     OW23749   2.661   3.213   1.981 -0.1676 -0.6497 -0.0371
 7668SOL    HW123750   2.719   3.186   1.911  0.8875  1.0548  0.1274
 7668SOL    HW223751   2.684   3.155   2.054  1.9089  0.4263  0.2574
 7669SOL     OW23752   5.429   0.692   1.527 -0.0465 -0.0174 -0.0741
 7669SOL    HW123753   5.386   0.709   1.611 -2.2474  0.5651 -1.2486
 7669SOL    HW223754   5.401   0.603   1.504 -0.0226  0.0861 -0.5092
 7670SOL     OW23755   4.913   5.501   1.519  0.0092 -0.0661 -0.8798
 7670SOL    HW123756   4.943   5.410   1.528 -1.6954 -0.4705  1.7177
 7670SOL    HW223757   4.985   5.545   1.475  1.3058 -2.4687 -1.3519
 7671SOL     OW23758   1.090   3.415   2.268  0.3057  0.4002  0.7436
 7671SOL    HW123759   1.151   3.487   2.257 -0.1835  0.6273 -0.7419
 7671SOL    HW223760   1.004   3.453   2.247  0.2351 -0.9626 -1.7735
 7672SOL     OW23761   6.169   0.657   5.883  0.1318 -0.0418 -0.0676
 7672SOL    HW123762   6.210   0.607   5.812 -0.1201 -0.5033  0.1110
 7672SOL    HW223763   6.078   0.668   5.854  0.8079  2.8238 -1.4950
 7673SOL     OW23764   4.117   2.261   2.746 -0.0270 -0.3770 -0.2603
 7673SOL    HW123765   4.132   2.227   2.657 -0.1691  0.4026 -0.5911
 7673SOL    HW223766   4.203   2.259   2.787 -0.2316 -2.2355  0.1347
 7674SOL     OW23767   1.750   3.574   4.956  0.2597  0.6541 -0.2670
 7674SOL    HW123768   1.839   3.587   4.989  1.0609 -1.2257 -1.5446
 7674SOL    HW223769   1.758   3.504   4.891 -2.5085 -1.1424  1.1407
 7675SOL     OW23770   3.385   5.647   0.254  0.7575  0.0410 -0.0159
 7675SOL    HW123771   3.409   5.576   0.313 -0.4932 -1.1999 -0.9490
 7675SOL    HW223772   3.461   5.657   0.197  0.9287 -0.5811  0.0947
 7676SOL     OW23773   3.806   2.449   0.536 -0.0810 -0.3255 -0.5159
 7676SOL    HW123774   3.744   2.493   0.477 -1.4152 -1.3511  0.0630
 7676SOL    HW223775   3.878   2.510   0.545 -0.7138  0.6501 -1.7307
 7677SOL     OW23776   5.804   1.091   1.133 -0.0192 -0.0419 -0.6447
 7677SOL    HW123777   5.774   1.049   1.214 -0.3244 -0.3953 -0.9404
 7677SOL    HW223778   5.885   1.045   1.111 -0.2548 -0.3503 -0.8671
 7678SOL     OW23779   0.484   2.338   6.046  0.1670 -0.2045 -0.6030
 7678SOL    HW123780   0.543   2.317   5.974  0.1558 -0.7660 -0.4582
 7678SOL    HW223781   0.402   2.365   6.003  0.3516  0.0468 -0.8000
 7679SOL     OW23782   2.521   3.599   4.121  0.4668  0.2450  0.2715
 7679SOL    HW123783   2.521   3.649   4.039 -0.7560 -0.0147  0.0947
 7679SOL    HW223784   2.450   3.637   4.172  0.6574 -0.1706  0.8536
 7680SOL     OW23785   4.783   2.808   0.750  0.0948  0.6214 -0.3820
 7680SOL    HW123786   4.791   2.888   0.803 -0.1963 -0.3715  1.2123
 7680SOL    HW223787   4.746   2.839   0.667  0.1645  2.1714  0.1271
 7681SOL     OW23788   4.027   1.447   2.787 -0.5775 -0.0070 -0.7734
 7681SOL    HW123789   3.941   1.454   2.827 -0.6342 -0.7184 -0.7468
 7681SOL    HW223790   4.035   1.354   2.764  1.3248 -0.5726  1.7982
 7682SOL     OW23791   1.588   4.355   4.089  0.9630 -0.3159 -0.1267
 7682SOL    HW123792   1.667   4.312   4.057  1.1314 -0.0559 -0.0696
 7682SOL    HW223793   1.526   4.347   4.017  1.2939  0.1454 -0.4765
 7683SOL     OW23794   2.464   4.863   5.639 -0.5016  0.2120 -0.2790
 7683SOL    HW123795   2.526   4.935   5.646  0.4522 -0.7134  4.4247
 7683SOL    HW223796   2.518   4.784   5.635 -1.2929 -0.5061  1.7667
 7684SOL     OW23797   4.782   0.836   4.070  0.1571  0.0380  0.0643
 7684SOL    HW123798   4.876   0.820   4.074  0.2795  0.8389  0.5702
 7684SOL    HW223799   4.771   0.898   3.998  0.0863  0.4074  0.3906
 7685SOL     OW23800   1.334   6.136   5.181 -0.6157 -0.0412 -0.5550
 7685SOL    HW123801   1.270   6.177   5.123  0.1542  1.3857 -0.4457
 7685SOL    HW223802   1.383   6.210   5.218 -1.2286 -0.8427  2.0967
 7686SOL     OW23803   6.141   2.656   2.705  0.2366 -0.3311  0.3760
 7686SOL    HW123804   6.225   2.618   2.682  0.3270 -0.2799  0.6244
 7686SOL    HW223805   6.124   2.720   2.635 -0.6349 -1.8749 -0.9129
 7687SOL     OW23806   1.334   5.764   2.841  0.3879  0.1837  0.2310
 7687SOL    HW123807   1.259   5.786   2.786  0.0158  0.2540  0.7535
 7687SOL    HW223808   1.411   5.793   2.792  0.4215 -3.2801 -2.1106
 7688SOL     OW23809   6.163   0.772   0.294  0.2780  0.2246 -0.5034
 7688SOL    HW123810   6.216   0.769   0.374 -0.2062  0.2512 -0.1788
 7688SOL    HW223811   6.193   0.698   0.242 -0.0500 -0.3457  0.1150
 7689SOL     OW23812   2.281   3.688   4.998 -0.0205 -0.1734  0.5094
 7689SOL    HW123813   2.274   3.776   5.035  2.9167  0.3897  0.0218
 7689SOL    HW223814   2.333   3.639   5.063  0.0395 -0.9524 -0.1143
 7690SOL     OW23815   0.463   3.191   3.917 -0.3632 -0.8093 -0.2008
 7690SOL    HW123816   0.444   3.100   3.939 -0.1544 -0.6983  0.4719
 7690SOL    HW223817   0.446   3.197   3.823 -1.8255 -1.1613  0.0150
 7691SOL     OW23818   3.698   5.899   0.275  0.4523 -0.4144 -0.2116
 7691SOL    HW123819   3.623   5.957   0.282 -0.9814 -2.1462 -0.4578
 7691SOL    HW223820   3.685   5.835   0.345  2.4761  0.0308  0.6539
 7692SOL     OW23821   5.616   1.212   2.499  0.2227  0.2092 -0.3286
 7692SOL    HW123822   5.567   1.178   2.424 -1.2528 -0.8085  1.0377
 7692SOL    HW223823   5.652   1.134   2.541  0.9526  0.7584  0.0846
 7693SOL     OW23824   6.295   4.415   3.126 -1.0345  0.0718 -0.0069
 7693SOL    HW123825   6.209   4.452   3.150 -1.2502 -0.3950 -0.0529
 7693SOL    HW223826   6.275   4.328   3.092 -0.6212  0.2796 -0.8108
 7694SOL     OW23827   3.976   0.756   4.935  0.6406 -0.3168 -0.5901
 7694SOL    HW123828   3.935   0.746   5.021  0.4648 -1.8226 -0.8318
 7694SOL    HW223829   3.979   0.851   4.921 -0.0165 -0.0777  0.7391
 7695SOL     OW23830   2.131   5.429   2.330 -0.7630 -0.3207  0.0189
 7695SOL    HW123831   2.116   5.423   2.235 -0.6534 -0.9270  0.0317
 7695SOL    HW223832   2.163   5.518   2.344 -0.0109 -0.4723 -0.6334
 7696SOL     OW23833   2.751   0.276   3.130 -0.2358 -1.1417  0.0114
 7696SOL    HW123834   2.742   0.253   3.222 -0.3889 -0.8551  0.0684
 7696SOL    HW223835   2.837   0.318   3.124  0.8114 -3.2160 -0.3994
 7697SOL     OW23836   1.936   6.042   4.548  0.1320  0.0141  0.7348
 7697SOL    HW123837   1.936   6.006   4.637  0.4624  0.4069  0.9008
 7697SOL    HW223838   2.026   6.071   4.535  0.2808 -0.7569 -0.0286
 7698SOL     OW23839   2.904   2.205   5.973  0.0198 -0.1413  0.0762
 7698SOL    HW123840   2.853   2.273   6.017  0.7981 -0.2006  1.1133
 7698SOL    HW223841   2.987   2.248   5.951 -0.2198 -0.2131 -1.0640
 7699SOL     OW23842   4.986   1.559   2.152 -0.1710 -0.3486  0.4489
 7699SOL    HW123843   4.934   1.479   2.161  0.1068 -0.4740  1.0057
 7699SOL    HW223844   4.983   1.579   2.058  0.5737 -1.5658  0.1408
 7700SOL     OW23845   5.826   3.769   4.451  0.0307  0.1422 -0.1120
 7700SOL    HW123846   5.762   3.699   4.444  0.0198  0.1589 -0.1784
 7700SOL    HW223847   5.858   3.782   4.362 -0.1643  0.4077 -0.1434
 7701SOL     OW23848   5.207   0.143   3.539  0.1745 -0.2639 -0.5363
 7701SOL    HW123849   5.231   0.111   3.452 -0.9669  0.3994 -1.1130
 7701SOL    HW223850   5.270   0.102   3.598 -0.3494 -2.4278 -1.4043
 7702SOL     OW23851   2.924   3.730   0.868 -0.4153  0.6366 -0.1024
 7702SOL    HW123852   2.891   3.642   0.851 -0.8025  0.5749  0.8862
 7702SOL    HW223853   2.846   3.782   0.888 -0.3922  1.6575 -2.3553
 7703SOL     OW23854   1.456   5.699   3.778  0.0793 -0.4384 -0.1192
 7703SOL    HW123855   1.413   5.770   3.731 -0.8361 -0.3793  0.7829
 7703SOL    HW223856   1.489   5.740   3.859  1.8943 -0.4677 -0.7888
 7704SOL     OW23857   4.669   4.622   4.001 -0.6219  0.1547 -0.4662
 7704SOL    HW123858   4.757   4.632   3.965  0.0829 -1.5274  0.6595
 7704SOL    HW223859   4.615   4.682   3.949  1.1409  1.1423 -1.2627
 7705SOL     OW23860   5.645   4.359   4.545  0.1521  0.2599  0.4106
 7705SOL    HW123861   5.644   4.300   4.621  0.3498 -0.0647  0.1615
 7705SOL    HW223862   5.726   4.409   4.555  0.5670 -0.3315 -0.0073
 7706SOL     OW23863   4.309   2.155   3.803  0.6874  0.0017  0.3635
 7706SOL    HW123864   4.320   2.238   3.757  0.1873 -0.6187 -0.9074
 7706SOL    HW223865   4.350   2.090   3.747 -0.0833 -0.8027  0.6995
 7707SOL     OW23866   0.020   1.809   0.937  0.3567  0.5665  0.4018
 7707SOL    HW123867  -0.004   1.747   0.869 -0.5306  0.8546  0.4306
 7707SOL    HW223868   0.094   1.858   0.901 -0.1991  0.8203 -0.4179
 7708SOL     OW23869   0.839   4.867   2.182 -0.4180 -0.1225  0.2750
 7708SOL    HW123870   0.815   4.826   2.099 -1.6004  1.7669 -0.4004
 7708SOL    HW223871   0.792   4.951   2.181  2.8022  1.8745  0.9236
 7709SOL     OW23872   2.696   0.567   3.005  0.1415  0.5471 -0.2778
 7709SOL    HW123873   2.711   0.562   2.911 -0.3267  0.1931 -0.3422
 7709SOL    HW223874   2.745   0.493   3.041 -0.0020  0.4412 -0.2948
 7710SOL     OW23875   0.104   2.997   4.068 -0.9654 -0.3150 -0.0539
 7710SOL    HW123876   0.162   2.942   4.016 -0.7612  1.0602 -1.3342
 7710SOL    HW223877   0.028   2.942   4.087 -0.6151 -1.1368 -0.9973
 7711SOL     OW23878   4.187   3.599   5.036 -0.0827  0.3716 -0.1728
 7711SOL    HW123879   4.140   3.526   5.074  0.6888 -0.9837 -1.6824
 7711SOL    HW223880   4.267   3.607   5.089  0.4494 -0.7657 -0.7607
 7712SOL     OW23881   2.202   0.790   2.145  0.1438 -0.4284  0.1075
 7712SOL    HW123882   2.294   0.768   2.159  0.2597  0.2923  0.5533
 7712SOL    HW223883   2.172   0.822   2.230 -0.2331  0.3330 -0.3008
 7713SOL     OW23884   1.010   0.835   6.230 -0.5540  0.6131 -0.7490
 7713SOL    HW123885   0.979   0.789   6.153 -0.8276  0.2828 -0.4451
 7713SOL    HW223886   1.105   0.824   6.229 -0.7212 -1.3409  0.1680
 7714SOL     OW23887   3.660   3.996   3.698  0.5812 -0.5314  0.4866
 7714SOL    HW123888   3.594   3.929   3.683  0.0477 -0.1774  1.1806
 7714SOL    HW223889   3.712   3.997   3.619 -0.4839 -0.5647 -0.2380
 7715SOL     OW23890   4.433   1.720   0.324 -0.1920 -0.8321 -0.0171
 7715SOL    HW123891   4.439   1.645   0.264  0.2011 -0.5743 -0.3090
 7715SOL    HW223892   4.514   1.768   0.310 -0.9854  0.3562 -0.7945
 7716SOL     OW23893   6.032   1.357   3.175 -0.8740 -0.0186  0.4987
 7716SOL    HW123894   6.021   1.385   3.265 -1.3874 -3.0686  1.5043
 7716SOL    HW223895   6.078   1.273   3.181 -0.8343 -0.2873 -2.0896
 7717SOL     OW23896   0.320   2.732   0.764 -0.3098  0.1270  0.1123
 7717SOL    HW123897   0.322   2.736   0.860  0.5721  0.6055  0.0915
 7717SOL    HW223898   0.406   2.697   0.740 -0.5437 -0.0366 -0.5076
 7718SOL     OW23899   0.017   2.538   4.684  0.6477  0.1488  0.1669
 7718SOL    HW123900   0.088   2.583   4.730  2.2543 -0.5315 -1.5274
 7718SOL    HW223901  -0.061   2.557   4.736  1.7132  2.5713  1.0293
 7719SOL     OW23902   1.868   4.617   2.386  0.0385 -0.0192 -0.3318
 7719SOL    HW123903   1.782   4.640   2.351  0.6111  0.2796 -1.5973
 7719SOL    HW223904   1.927   4.684   2.351  0.5883  0.5749  1.5985
 7720SOL     OW23905   1.459   3.647   5.489  0.5723 -0.1000 -0.1254
 7720SOL    HW123906   1.431   3.559   5.464  0.9983 -0.1192 -0.5366
 7720SOL    HW223907   1.471   3.693   5.406 -0.5471  0.6344  0.0962
 7721SOL     OW23908   0.330   5.290   4.681 -0.1355  0.3139 -0.0797
 7721SOL    HW123909   0.303   5.378   4.653 -1.0243  1.1048  2.9347
 7721SOL    HW223910   0.407   5.305   4.736  0.9728 -1.0540 -1.2038
 7722SOL     OW23911   2.687   0.727   4.798 -0.1651 -0.2158  0.6191
 7722SOL    HW123912   2.736   0.645   4.793  0.2599  0.1272 -1.5400
 7722SOL    HW223913   2.737   0.781   4.859 -0.5430 -1.5700  2.2142
 7723SOL     OW23914   3.800   5.085   1.536 -0.6702  0.3855  0.4649
 7723SOL    HW123915   3.840   5.161   1.578 -2.0147  1.4152 -0.0653
 7723SOL    HW223916   3.843   5.078   1.451  1.4530 -1.1898  1.5878
 7724SOL     OW23917   5.845   6.294   3.471 -0.1050  0.4479 -0.0262
 7724SOL    HW123918   5.797   6.284   3.389  0.9313  1.3002 -0.7660
 7724SOL    HW223919   5.932   6.325   3.444 -0.1233  1.8816  1.4627
 7725SOL     OW23920   2.287   5.261   1.993  0.5374  0.5865  0.0669
 7725SOL    HW123921   2.259   5.186   2.045  1.0428 -0.0987 -0.6218
 7725SOL    HW223922   2.363   5.296   2.040  2.6251 -1.5843 -1.4450
 7726SOL     OW23923   1.700   0.167   3.498  0.0600  0.0724  0.3737
 7726SOL    HW123924   1.669   0.165   3.408 -3.3609  0.8153  1.3960
 7726SOL    HW223925   1.670   0.084   3.536 -0.8205  0.8381  1.4349
 7727SOL     OW23926   1.128   3.932   3.279 -0.3561  0.4595 -0.0686
 7727SOL    HW123927   1.080   3.992   3.337  0.1986  1.8794 -1.0137
 7727SOL    HW223928   1.059   3.881   3.235 -0.8123 -0.0649  1.2121
 7728SOL     OW23929   3.522   2.560   1.329  0.0361 -0.0720 -0.4398
 7728SOL    HW123930   3.537   2.615   1.252  0.4255 -1.6035 -1.4988
 7728SOL    HW223931   3.583   2.487   1.319  0.0400 -0.3479  1.2932
 7729SOL     OW23932   2.295   0.962   3.422 -0.2897  0.2924  0.9021
 7729SOL    HW123933   2.268   0.961   3.514 -0.5177 -1.9440  0.8843
 7729SOL    HW223934   2.383   0.923   3.423 -0.3281  0.1729  0.1829
 7730SOL     OW23935   3.532   0.946   2.447 -0.8760  0.1039  0.2895
 7730SOL    HW123936   3.488   0.900   2.375 -1.9357 -1.6277  1.9510
 7730SOL    HW223937   3.475   0.932   2.522 -0.1244  2.4211  1.3581
 7731SOL     OW23938   4.983   0.917   3.534 -0.2013  0.3828 -0.4785
 7731SOL    HW123939   4.938   0.837   3.508  0.9468 -0.6503  0.5477
 7731SOL    HW223940   4.925   0.988   3.508 -1.4138 -0.8051 -1.0922
 7732SOL     OW23941   4.865   2.912   2.507  0.5100  0.1216  0.4575
 7732SOL    HW123942   4.771   2.920   2.524  0.1153 -2.3005 -0.1571
 7732SOL    HW223943   4.877   2.950   2.420  0.2164  0.9287  0.7607
 7733SOL     OW23944   5.707   6.188   2.517 -0.0591 -0.0180 -0.2093
 7733SOL    HW123945   5.733   6.230   2.599  1.3172 -1.6321  0.2248
 7733SOL    HW223946   5.714   6.094   2.534 -1.5599 -0.4463 -1.6217
 7734SOL     OW23947   5.742   2.351   4.769 -0.3934  0.0882 -0.2791
 7734SOL    HW123948   5.835   2.371   4.764 -0.1553 -0.9105 -0.0585
 7734SOL    HW223949   5.725   2.338   4.862 -0.8630  0.7586 -0.2678
 7735SOL     OW23950   4.944   2.551   0.009 -0.6377 -0.8973 -0.4629
 7735SOL    HW123951   4.899   2.476  -0.029 -0.9476  0.0998 -2.1760
 7735SOL    HW223952   4.978   2.600  -0.067  1.2460 -0.3312  0.6626
 7736SOL     OW23953   5.593   0.293   0.058 -0.1103 -0.2643  0.0442
 7736SOL    HW123954   5.670   0.349   0.067 -1.0850  1.3245 -1.0065
 7736SOL    HW223955   5.597   0.261  -0.032  0.1492 -1.4820  0.4730
 7737SOL     OW23956   0.369   0.964   3.004  0.4372  0.1500  0.3822
 7737SOL    HW123957   0.299   0.923   3.056 -0.9841 -0.0193 -1.5719
 7737SOL    HW223958   0.397   1.039   3.058 -2.8006  1.5586  0.3438
 7738SOL     OW23959   5.955   0.033   0.777 -0.2757 -0.0258 -0.0302
 7738SOL    HW123960   5.969   0.055   0.869 -0.4185  1.0623 -0.2585
 7738SOL    HW223961   6.037   0.057   0.734 -0.3989 -0.0375 -0.2742
 7739SOL     OW23962   3.426   2.572   5.970 -0.3708  0.0562 -0.4789
 7739SOL    HW123963   3.454   2.555   6.060  2.5320 -0.3904 -1.3626
 7739SOL    HW223964   3.401   2.486   5.936 -0.0231 -0.0279 -0.5275
 7740SOL     OW23965   4.346   2.152   1.691 -0.3683  0.0730 -0.1713
 7740SOL    HW123966   4.403   2.204   1.636 -0.2995 -1.9883 -2.2085
 7740SOL    HW223967   4.355   2.190   1.779  1.7896  1.6534 -1.0040
 7741SOL     OW23968   2.821   1.649   3.460  0.1196  0.0032 -0.3214
 7741SOL    HW123969   2.895   1.600   3.424  0.4113  0.9685 -1.1031
 7741SOL    HW223970   2.761   1.659   3.386  0.2022  1.0436 -0.2599
 7742SOL     OW23971   2.172   3.303   1.348  0.7261  0.1819  0.1163
 7742SOL    HW123972   2.104   3.288   1.283  2.6085 -1.0667 -1.7024
 7742SOL    HW223973   2.155   3.391   1.381 -1.8576 -0.1863 -0.0795
 7743SOL     OW23974   0.772   0.247   1.054 -0.0254 -0.4234  0.5366
 7743SOL    HW123975   0.774   0.304   0.977  2.2132 -1.0908  0.0285
 7743SOL    HW223976   0.793   0.160   1.020 -0.4477 -1.0017  1.7062
 7744SOL     OW23977   3.122   0.692   5.988  0.5005 -0.3856  0.0490
 7744SOL    HW123978   3.128   0.700   5.893  2.5638 -1.2265  0.0637
 7744SOL    HW223979   3.051   0.630   6.003 -0.4818  0.4648 -0.8680
 7745SOL     OW23980   5.274   1.139   2.966 -0.1220 -0.6852  0.5259
 7745SOL    HW123981   5.271   1.204   3.036 -1.0591 -0.1014 -0.0209
 7745SOL    HW223982   5.237   1.060   3.005 -1.9577  0.0243  0.3564
 7746SOL     OW23983   4.258   1.453   1.748 -0.2840 -0.1311 -0.1158
 7746SOL    HW123984   4.299   1.496   1.673 -0.4306 -0.1985 -0.2354
 7746SOL    HW223985   4.252   1.522   1.815  0.6105 -0.2879  0.1332
 7747SOL     OW23986   1.386   5.350   3.009 -0.1156 -0.1576  0.2448
 7747SOL    HW123987   1.408   5.351   3.103 -1.6351  2.3057  0.6936
 7747SOL    HW223988   1.293   5.371   3.007 -0.5473 -1.9618 -1.8091
 7748SOL     OW23989   2.972   0.646   1.098  0.0924 -0.0365 -0.6152
 7748SOL    HW123990   2.938   0.573   1.150 -2.0158  1.8644  0.9008
 7748SOL    HW223991   2.915   0.650   1.021 -0.4437  0.5573 -0.2025
 7749SOL     OW23992   2.013   3.316   5.585  0.5322  0.1802 -0.3207
 7749SOL    HW123993   2.013   3.395   5.639  0.0792  0.7113 -1.0798
 7749SOL    HW223994   2.023   3.244   5.647 -0.8420  0.7206  0.5531
 7750SOL     OW23995   5.965   1.095   4.020 -0.5290  0.6730  0.0112
 7750SOL    HW123996   5.979   1.003   4.000 -0.3162  0.8470 -0.6834
 7750SOL    HW223997   5.924   1.131   3.941  0.1327  1.3397 -0.0433
 7751SOL     OW23998   0.279   2.651   0.403  0.1916  0.5623 -0.2411
 7751SOL    HW123999   0.319   2.736   0.389 -1.1150  1.4134  0.9743
 7751SOL    HW224000   0.215   2.665   0.472 -0.0207 -1.4284  0.0331
 7752SOL     OW24001   3.796   2.001   1.818 -0.1500  0.2789 -0.2962
 7752SOL    HW124002   3.759   1.997   1.906 -0.5712  0.7769 -0.4485
 7752SOL    HW224003   3.823   2.092   1.807  0.0647  0.1781 -0.6159
 7753SOL     OW24004   3.458   4.794   0.542 -0.1249  0.1998 -0.4769
 7753SOL    HW124005   3.459   4.849   0.621 -1.1127  0.5349 -0.6730
 7753SOL    HW224006   3.420   4.851   0.475  0.1284 -0.2876 -1.0376
 7754SOL     OW24007   4.407   0.688   2.097  0.3379 -0.0678  0.1350
 7754SOL    HW124008   4.389   0.755   2.031  0.8591 -0.6699 -0.6346
 7754SOL    HW224009   4.499   0.698   2.117  0.0307  0.5568  1.2938
 7755SOL     OW24010   0.000   0.535   1.900 -1.1185 -0.3415 -0.5770
 7755SOL    HW124011   0.025   0.470   1.835 -1.1286 -1.5138  0.5457
 7755SOL    HW224012  -0.060   0.593   1.854  0.1894 -0.1058 -2.0799
 7756SOL     OW24013   5.724   1.740   1.570 -0.2988  0.4796  0.2560
 7756SOL    HW124014   5.697   1.734   1.661  0.3692 -2.0993  0.3480
 7756SOL    HW224015   5.743   1.833   1.557  1.8080  0.6184  3.3979
 7757SOL     OW24016   0.639   0.163   2.871  0.1444  0.2175 -0.2166
 7757SOL    HW124017   0.710   0.224   2.857 -0.2127  0.5984 -0.4025
 7757SOL    HW224018   0.574   0.186   2.804  0.2095 -0.6676 -0.5977
 7758SOL     OW24019   6.274   1.998   2.476 -0.6791  0.4035 -0.2815
 7758SOL    HW124020   6.251   2.080   2.433  0.5809  0.5637 -0.6837
 7758SOL    HW224021   6.348   2.020   2.532  1.1241 -0.8380 -2.0114
 7759SOL     OW24022   3.905   2.425   1.250 -0.1365  0.0920 -0.5474
 7759SOL    HW124023   3.921   2.338   1.287 -0.5166  0.3509  0.2504
 7759SOL    HW224024   3.836   2.411   1.185 -0.1523 -0.2216 -0.4638
 7760SOL     OW24025   0.852   2.564   5.600 -0.4753  0.4683  0.0029
 7760SOL    HW124026   0.921   2.573   5.666 -0.8294 -0.1369  0.4615
 7760SOL    HW224027   0.864   2.640   5.543 -0.8368  1.6132  1.3797
 7761SOL     OW24028   2.158   3.942   1.774  0.0783  0.1541 -0.1547
 7761SOL    HW124029   2.239   3.934   1.825 -1.5366  1.4732  2.9044
 7761SOL    HW224030   2.185   3.985   1.693  2.3218  1.3544  1.1285
 7762SOL     OW24031   3.614   1.088   2.804 -0.2507  0.8968  0.0882
 7762SOL    HW124032   3.692   1.119   2.758 -0.4813 -0.9702 -1.6885
 7762SOL    HW224033   3.541   1.136   2.765 -0.0820  2.4100  1.5304
 7763SOL     OW24034   5.268   0.140   5.176 -0.1548 -0.1959  0.0852
 7763SOL    HW124035   5.292   0.073   5.240  1.1861 -0.7532 -0.9389
 7763SOL    HW224036   5.217   0.204   5.225 -1.1507 -1.7684  1.1923
 7764SOL     OW24037   5.833   3.070   2.280 -0.1705 -0.1484 -0.6174
 7764SOL    HW124038   5.778   3.041   2.353 -1.3140 -0.7519 -1.6747
 7764SOL    HW224039   5.811   3.162   2.267 -0.0995 -0.0903 -0.3248
 7765SOL     OW24040   0.006   3.404   3.682  0.5281  0.2591 -0.1726
 7765SOL    HW124041   0.029   3.330   3.627  0.8988  0.1103  0.1811
 7765SOL    HW224042  -0.090   3.405   3.683  0.5094 -0.8242  0.6335
 7766SOL     OW24043   6.129   1.711   2.097 -0.4434 -0.4752  0.6208
 7766SOL    HW124044   6.143   1.742   2.186 -1.3549  3.7376 -0.4480
 7766SOL    HW224045   6.188   1.764   2.044 -1.0762 -1.7046 -1.4249
 7767SOL     OW24046   5.198   4.527   4.164  0.3865  0.5755 -0.5977
 7767SOL    HW124047   5.109   4.561   4.158  0.5071  0.8565 -0.8131
 7767SOL    HW224048   5.191   4.452   4.223 -0.1524  0.0556 -1.3004
 7768SOL     OW24049   3.275   2.255   3.189 -1.4227  0.1634  0.5151
 7768SOL    HW124050   3.351   2.238   3.244 -1.3028 -1.8218 -0.1849
 7768SOL    HW224051   3.269   2.351   3.186  2.7966  0.5912 -1.7551
 7769SOL     OW24052   1.286   3.197   0.177 -0.1592 -0.3717  0.0285
 7769SOL    HW124053   1.338   3.207   0.257 -0.7449  1.5448  0.2101
 7769SOL    HW224054   1.350   3.208   0.106  0.4543 -2.5848  0.1792
 7770SOL     OW24055   6.169   0.436   2.095 -0.0086  0.2039 -0.4003
 7770SOL    HW124056   6.138   0.351   2.063 -0.6564  1.0658 -2.2090
 7770SOL    HW224057   6.218   0.472   2.021  1.5786  0.7681  0.8903
 7771SOL     OW24058   4.247   1.304   3.381  0.2771  0.9904 -0.1668
 7771SOL    HW124059   4.260   1.360   3.457 -0.2767  0.1750  0.5507
 7771SOL    HW224060   4.198   1.229   3.415  1.9008 -0.4589 -0.8758
 7772SOL     OW24061   2.434   3.875   6.078  0.6092  0.3038 -0.6191
 7772SOL    HW124062   2.366   3.839   6.022  0.7152  1.7929 -1.7651
 7772SOL    HW224063   2.497   3.803   6.090 -0.8350 -0.9083 -0.0013
 7773SOL     OW24064   3.641   0.199   1.429 -0.6776  0.2154 -0.2914
 7773SOL    HW124065   3.689   0.182   1.348  0.2369 -0.5822  0.3828
 7773SOL    HW224066   3.579   0.127   1.436  0.0827 -0.4155  0.2944
 7774SOL     OW24067   4.633   2.346   5.952  0.4209  0.1236 -0.5101
 7774SOL    HW124068   4.669   2.431   5.927  0.2668  0.5099  0.5487
 7774SOL    HW224069   4.666   2.286   5.885  1.9304  0.7072 -0.3328
 7775SOL     OW24070   3.887   1.941   2.189  0.0179 -0.1471  0.2346
 7775SOL    HW124071   3.873   1.847   2.199 -0.2225 -0.0207  1.1777
 7775SOL    HW224072   3.914   1.971   2.275  0.2116  0.6369 -0.0861
 7776SOL     OW24073   4.525   2.394   3.526  0.4560  0.3801  0.6912
 7776SOL    HW124074   4.452   2.438   3.569 -0.7949 -0.5672 -0.4215
 7776SOL    HW224075   4.498   2.303   3.518  1.4409  0.1595 -0.4388
 7777SOL     OW24076   5.935   4.084   1.958  0.0559  0.0076 -0.2168
 7777SOL    HW124077   5.935   4.108   1.866 -1.6115 -1.4128 -0.6379
 7777SOL    HW224078   5.954   3.990   1.958  1.7777  0.2905  1.0441
 7778SOL     OW24079   1.012   3.646   1.361  0.1325 -0.2951  0.3135
 7778SOL    HW124080   0.977   3.570   1.315 -1.5464 -0.0812  1.1602
 7778SOL    HW224081   1.001   3.719   1.300 -0.3699 -0.3348  0.3567
 7779SOL     OW24082   0.732   0.761   5.269 -0.0109  0.2091 -0.4722
 7779SOL    HW124083   0.772   0.691   5.320 -0.5013 -0.8191 -1.4471
 7779SOL    HW224084   0.773   0.755   5.183 -0.3274  0.8814 -0.6776
 7780SOL     OW24085   0.950   5.303   4.475  0.1965 -0.2976  0.4731
 7780SOL    HW124086   0.994   5.238   4.420  1.3449  0.4784  0.4258
 7780SOL    HW224087   0.937   5.259   4.559 -1.8005 -1.5782 -0.4350
 7781SOL     OW24088   3.651   1.406   0.382 -0.2512  0.3800 -0.5689
 7781SOL    HW124089   3.671   1.340   0.448 -1.9813 -0.0073 -0.4046
 7781SOL    HW224090   3.710   1.479   0.403  0.7769 -0.6040  0.0198
 7782SOL     OW24091   5.341   5.416   1.073  0.8357  0.6915  0.0785
 7782SOL    HW124092   5.335   5.483   1.005  1.8632 -0.9248 -1.7314
 7782SOL    HW224093   5.386   5.343   1.030 -0.6682 -1.3569  1.7654
 7783SOL     OW24094   0.721   0.967   2.036 -0.6355  0.2025 -0.6518
 7783SOL    HW124095   0.745   1.059   2.033 -1.0461  0.3174 -0.3999
 7783SOL    HW224096   0.804   0.921   2.019  0.0087  0.5789  1.2160
 7784SOL     OW24097   1.171   1.771   0.328 -0.0636 -0.2892  0.0108
 7784SOL    HW124098   1.128   1.699   0.282  0.3754  0.3882 -1.5511
 7784SOL    HW224099   1.263   1.764   0.303 -0.5606  3.2266 -3.8343
 7785SOL     OW24100   1.430   3.670   1.979 -0.3127 -0.0918  0.8224
 7785SOL    HW124101   1.459   3.692   2.067 -1.1313  0.1612  1.0412
 7785SOL    HW224102   1.501   3.698   1.921  0.4254 -0.6786  1.4313
 7786SOL     OW24103   5.036   1.260   0.986  0.8801 -0.3074  0.6034
 7786SOL    HW124104   5.085   1.220   1.057  0.9217  0.0082  0.7528
 7786SOL    HW224105   5.028   1.352   1.010 -0.7096 -0.5385  1.1264
 7787SOL     OW24106   5.050   5.451   5.852  0.0529 -0.2359  0.0191
 7787SOL    HW124107   5.029   5.419   5.765 -1.2165  0.9705 -0.1583
 7787SOL    HW224108   5.018   5.382   5.911  1.5233 -1.3612 -0.4580
 7788SOL     OW24109   2.675   0.219   3.380 -0.2679  0.7692 -0.2120
 7788SOL    HW124110   2.660   0.130   3.410  0.6129  0.7457  0.1863
 7788SOL    HW224111   2.747   0.251   3.433 -1.7970  2.4085  0.9943
 7789SOL     OW24112   5.274   1.215   3.422  0.5959  0.1379 -0.5288
 7789SOL    HW124113   5.332   1.262   3.482 -0.4327  0.0712  0.5487
 7789SOL    HW224114   5.312   1.127   3.415  2.3655  0.9673 -2.3236
 7790SOL     OW24115   4.961   3.692   0.434  0.5446 -0.7713  0.0481
 7790SOL    HW124116   5.040   3.724   0.390  0.4991 -2.2913 -1.2314
 7790SOL    HW224117   4.990   3.613   0.480  0.5060  0.5757  2.5622
 7791SOL     OW24118   3.150   5.166   5.378 -0.0959 -0.4051  0.5872
 7791SOL    HW124119   3.055   5.160   5.386 -0.0924 -1.6016 -0.0953
 7791SOL    HW224120   3.175   5.090   5.325  0.9429  1.4060 -1.6925
 7792SOL     OW24121   5.296   0.972   5.291  0.0039  0.5708  0.1044
 7792SOL    HW124122   5.363   0.996   5.228  2.4044 -0.6596  2.0325
 7792SOL    HW224123   5.308   1.034   5.364 -1.7715  1.0705  0.0337
 7793SOL     OW24124   5.508   1.391   4.027  0.0633  0.2009 -0.2969
 7793SOL    HW124125   5.514   1.417   4.119 -1.7343 -2.1077  0.5922
 7793SOL    HW224126   5.451   1.457   3.988 -0.1552  0.5550  0.5786
 7794SOL     OW24127   5.722   1.778   4.227 -0.0325  0.2756 -0.4564
 7794SOL    HW124128   5.764   1.860   4.253 -0.0578  0.5113 -1.1416
 7794SOL    HW224129   5.741   1.717   4.299  0.4351  0.7297 -0.1905
 7795SOL     OW24130   2.414   4.647   2.142 -0.6723  0.3266  0.1476
 7795SOL    HW124131   2.481   4.706   2.106 -0.4019  0.1806  0.4171
 7795SOL    HW224132   2.332   4.681   2.106 -0.3283 -0.3903 -1.4273
 7796SOL     OW24133   4.775   4.181   0.737  0.3228  0.2561  0.4293
 7796SOL    HW124134   4.823   4.188   0.820  1.7934 -0.5722 -0.3071
 7796SOL    HW224135   4.818   4.244   0.679  2.2884 -2.2145 -0.9990
 7797SOL     OW24136   4.649   2.948   1.217  0.2669 -0.1621  0.5089
 7797SOL    HW124137   4.709   3.005   1.169 -0.2904 -1.4717 -1.8621
 7797SOL    HW224138   4.570   3.000   1.230  0.0985 -0.0458 -0.8438
 7798SOL     OW24139   3.885   1.753   1.725 -0.6738 -0.2577  0.5451
 7798SOL    HW124140   3.848   1.834   1.761  0.2286 -0.2552  1.5061
 7798SOL    HW224141   3.969   1.780   1.687  0.0048 -0.8559  1.5741
 7799SOL     OW24142   3.366   5.853   2.991  0.1982  0.1022 -0.1475
 7799SOL    HW124143   3.384   5.944   3.013  1.2113 -0.3745  1.1387
 7799SOL    HW224144   3.368   5.807   3.075  2.2201 -1.5116 -0.9943
 7800SOL     OW24145   2.769   0.995   0.823 -0.1144  0.0412 -0.4665
 7800SOL    HW124146   2.842   1.017   0.881 -0.9527  0.8193  0.3177
 7800SOL    HW224147   2.760   1.070   0.765 -0.5107  0.0974 -0.3338
 7801SOL     OW24148   4.081   2.957   1.760  0.6873  0.3662 -0.2298
 7801SOL    HW124149   4.117   2.901   1.829 -0.3783  0.6521  0.5675
 7801SOL    HW224150   4.015   2.903   1.717  0.7034  0.5072 -0.4347
 7802SOL     OW24151   2.849   0.082   0.113 -0.5936 -0.5060  0.5198
 7802SOL    HW124152   2.817   0.156   0.060  0.6337 -0.4956 -0.2212
 7802SOL    HW224153   2.823   0.004   0.064  0.6431 -0.4940 -0.1717
 7803SOL     OW24154   5.288   2.952   0.313  0.1600  0.3212 -0.1056
 7803SOL    HW124155   5.352   3.023   0.302 -0.1366  0.4732 -0.9389
 7803SOL    HW224156   5.322   2.900   0.385  0.8336  0.8268 -0.0468
 7804SOL     OW24157   3.415   4.899   0.818  0.2849 -0.0350  0.1980
 7804SOL    HW124158   3.391   4.866   0.905 -1.1929  0.1093 -0.1295
 7804SOL    HW224159   3.395   4.993   0.822  0.4726  0.0231 -0.2138
 7805SOL     OW24160   5.395   4.570   1.098  0.0907  0.3725 -0.5194
 7805SOL    HW124161   5.320   4.612   1.139 -0.2149 -0.0478 -0.6471
 7805SOL    HW224162   5.437   4.522   1.170 -0.7241 -0.7671 -0.7814
 7806SOL     OW24163   2.224   3.719   0.837 -0.5249 -0.0622 -0.0073
 7806SOL    HW124164   2.216   3.811   0.812  1.8006  0.4999  1.0586
 7806SOL    HW224165   2.170   3.710   0.916 -1.6297  0.0744 -0.7240
 7807SOL     OW24166   4.399   0.872   1.044 -0.0626  0.0112 -0.3404
 7807SOL    HW124167   4.370   0.796   1.095 -0.2178  0.9069  0.9431
 7807SOL    HW224168   4.396   0.841   0.953  0.1439 -1.6020  0.1578
 7808SOL     OW24169   4.812   4.883   0.811  0.2314  0.0815  0.4873
 7808SOL    HW124170   4.854   4.799   0.830  0.9326  0.3316  0.0721
 7808SOL    HW224171   4.729   4.879   0.858  0.3111 -0.7945  0.5746
 7809SOL     OW24172   4.534   3.738   5.108 -0.4164  0.0838  0.3907
 7809SOL    HW124173   4.494   3.821   5.133 -1.6335 -0.0232 -1.0241
 7809SOL    HW224174   4.476   3.671   5.146  0.6656 -0.1660  1.6967
 7810SOL     OW24175   4.489   1.315   1.798  0.6092 -0.6806 -0.5128
 7810SOL    HW124176   4.396   1.338   1.801  1.0723  1.3358 -0.0779
 7810SOL    HW224177   4.532   1.394   1.766  2.3213 -1.0781  0.6867
 7811SOL     OW24178   3.894   4.641   1.288 -0.3288  0.2681  0.1966
 7811SOL    HW124179   3.913   4.685   1.371 -1.2996  3.1015 -0.9706
 7811SOL    HW224180   3.961   4.673   1.228 -0.1474 -1.0906 -0.3629
 7812SOL     OW24181   0.972   6.246   4.048 -0.3746 -0.8005 -0.6375
 7812SOL    HW124182   0.937   6.158   4.037  1.8331 -2.0111  1.1279
 7812SOL    HW224183   1.015   6.266   3.965 -0.3389 -1.6606 -0.8276
 7813SOL     OW24184   5.112   3.017   0.838 -0.0954 -0.3757 -0.3319
 7813SOL    HW124185   5.026   3.055   0.856  0.0469 -0.6403  0.9778
 7813SOL    HW224186   5.133   2.967   0.916  1.8410  0.7443 -0.0724
 7814SOL     OW24187   2.503   5.026   0.943  0.4087  0.0111  0.0324
 7814SOL    HW124188   2.537   4.951   0.992 -0.0773 -0.1551  0.1174
 7814SOL    HW224189   2.515   5.002   0.851  0.4598 -0.0738  0.0609
 7815SOL     OW24190   0.385   4.490   4.128  0.8510 -0.4766 -0.5063
 7815SOL    HW124191   0.340   4.408   4.147  1.3637 -0.7038 -0.2442
 7815SOL    HW224192   0.446   4.501   4.201 -0.1384  0.8167  0.1693
 7816SOL     OW24193   2.904   1.568   0.434  0.1810 -0.2735  0.2002
 7816SOL    HW124194   2.865   1.639   0.384  0.2684  0.0745  0.6152
 7816SOL    HW224195   2.976   1.537   0.380  2.4987  2.3819  1.5483
 7817SOL     OW24196   4.155   2.824   0.911 -0.3722  0.1269  0.2482
 7817SOL    HW124197   4.183   2.810   1.002 -0.4307 -0.9443  0.1182
 7817SOL    HW224198   4.237   2.830   0.862 -0.3120 -1.5069  0.0811
 7818SOL     OW24199   5.148   2.693   3.852 -0.6339  0.2954 -0.7007
 7818SOL    HW124200   5.159   2.641   3.772 -1.0957  0.0294 -0.5992
 7818SOL    HW224201   5.064   2.663   3.888 -0.6349  0.7171 -0.3434
 7819SOL     OW24202   1.058   0.559   3.673 -0.3744 -0.1939 -0.2337
 7819SOL    HW124203   1.150   0.545   3.649 -0.9251 -0.6163 -2.2884
 7819SOL    HW224204   1.059   0.641   3.722  1.4329 -1.5708  2.2782
 7820SOL     OW24205   4.784   3.317   6.090  0.0554 -0.0909  0.1671
 7820SOL    HW124206   4.819   3.325   6.179 -0.9829  1.7448  0.4682
 7820SOL    HW224207   4.764   3.224   6.081 -0.6745 -0.2016  2.2372
 7821SOL     OW24208   6.049   3.941   0.388 -0.6782 -0.1527 -0.1360
 7821SOL    HW124209   6.114   3.911   0.451 -0.3661 -1.1702 -0.9014
 7821SOL    HW224210   5.972   3.887   0.405 -0.4114 -0.8216 -0.9474
 7822SOL     OW24211   5.323   2.872   0.961  0.0416  0.3649  0.1750
 7822SOL    HW124212   5.339   2.783   0.994  1.9210  0.4341 -0.4561
 7822SOL    HW224213   5.292   2.920   1.038  0.4154 -0.4719  0.8646
 7823SOL     OW24214   4.416   1.702   2.995  0.3198  0.3802 -0.7172
 7823SOL    HW124215   4.383   1.614   2.978  1.5582 -0.4430  0.9359
 7823SOL    HW224216   4.341   1.749   3.031  0.2516 -0.7188  0.6444
 7824SOL     OW24217   2.028   6.295   4.435  0.0916  0.1689  0.0636
 7824SOL    HW124218   2.066   6.374   4.398 -0.4624 -0.3276 -1.6743
 7824SOL    HW224219   1.942   6.287   4.393 -0.6629 -0.3576  1.6175
 7825SOL     OW24220   2.999   2.444   3.384  0.4850 -0.6907 -0.4436
 7825SOL    HW124221   2.971   2.470   3.471 -1.2739  0.2392 -1.2391
 7825SOL    HW224222   3.000   2.348   3.385  1.1713 -0.6891  0.7646
 7826SOL     OW24223   2.306   4.434   5.877  0.1022  0.0113 -0.0683
 7826SOL    HW124224   2.347   4.476   5.953 -1.5566 -1.2243  1.5957
 7826SOL    HW224225   2.283   4.346   5.908 -1.1355 -0.3354 -1.8340
 7827SOL     OW24226   6.276   1.903   0.205  0.0514  0.0914  0.0316
 7827SOL    HW124227   6.300   1.824   0.157  1.5381 -0.6853  1.8905
 7827SOL    HW224228   6.308   1.975   0.151  1.9322 -0.7504 -0.0448
 7828SOL     OW24229   3.318   2.090   3.559  0.6029  0.1638  0.2732
 7828SOL    HW124230   3.242   2.032   3.567 -1.1840  2.5035  1.8148
 7828SOL    HW224231   3.288   2.160   3.501  2.4135  0.0515 -0.8851
 7829SOL     OW24232   3.633   2.163   2.357  0.1882  0.1281  0.1624
 7829SOL    HW124233   3.691   2.239   2.359 -0.1513  0.3817  0.5095
 7829SOL    HW224234   3.549   2.196   2.388 -0.9722  0.4603 -2.9570
 7830SOL     OW24235   4.029   5.879   1.926  0.3995  0.1015 -0.2068
 7830SOL    HW124236   4.018   5.887   1.831 -0.0470  0.8552 -0.0955
 7830SOL    HW224237   3.952   5.830   1.955  0.7560 -0.5103 -0.2867
 7831SOL     OW24238   0.106   2.361   6.218  0.1552  0.1513  0.3371
 7831SOL    HW124239   0.164   2.288   6.238  0.1624 -0.2216 -1.0054
 7831SOL    HW224240   0.037   2.356   6.285 -0.2192 -1.5024 -0.1275
 7832SOL     OW24241   0.050   2.345   4.052 -0.3254  0.2811 -0.0214
 7832SOL    HW124242   0.064   2.271   4.111  1.0284 -0.4999 -1.2607
 7832SOL    HW224243   0.138   2.380   4.037 -0.5878  0.1996 -1.9030
 7833SOL     OW24244   2.572   5.131   1.861  0.5678 -0.5592 -0.5093
 7833SOL    HW124245   2.597   5.144   1.769 -0.2707 -0.0942 -0.6739
 7833SOL    HW224246   2.569   5.036   1.871 -0.2043 -0.6188 -1.2125
 7834SOL     OW24247   3.310   3.406   1.711  0.2409 -0.0503  0.4490
 7834SOL    HW124248   3.306   3.472   1.642  0.1217 -1.6657 -1.1681
 7834SOL    HW224249   3.403   3.392   1.726  0.2820 -0.3381 -0.0521
 7835SOL     OW24250   5.001   1.140   5.910  1.1198  0.2423  0.1413
 7835SOL    HW124251   5.059   1.066   5.930  1.1184  0.0159 -0.6420
 7835SOL    HW224252   4.935   1.139   5.980  0.9354 -0.6991 -0.0317
 7836SOL     OW24253   2.703   0.164   2.489 -0.5703 -0.1557 -0.5146
 7836SOL    HW124254   2.780   0.213   2.520 -1.1240 -0.3728  1.3146
 7836SOL    HW224255   2.736   0.112   2.416  1.6460 -1.9492  1.5916
 7837SOL     OW24256   5.842   2.623   4.908 -0.1900  1.0062  0.3356
 7837SOL    HW124257   5.827   2.693   4.971 -0.4240 -0.0338  1.4756
 7837SOL    HW224258   5.797   2.547   4.945  2.0922 -0.4097  0.3946
 7838SOL     OW24259   2.859   1.204   5.432  0.1394 -0.1054 -0.2891
 7838SOL    HW124260   2.844   1.224   5.340 -0.4050 -0.1764 -0.2176
 7838SOL    HW224261   2.774   1.216   5.474  0.5605  0.7650  0.3588
 7839SOL     OW24262   5.091   1.307   2.411 -0.4402 -0.2839 -0.0723
 7839SOL    HW124263   5.015   1.295   2.355 -1.1234  1.3207  0.4671
 7839SOL    HW224264   5.166   1.297   2.353 -1.1257  2.6208 -1.6555
 7840SOL     OW24265   1.172   3.359   5.324 -0.3634 -0.9421  0.3876
 7840SOL    HW124266   1.233   3.288   5.345  0.8549 -0.2962 -0.8088
 7840SOL    HW224267   1.218   3.439   5.350 -1.0666 -0.4851  0.2534
 7841SOL     OW24268   6.027   2.751   1.486  0.4640 -0.0702 -0.0038
 7841SOL    HW124269   6.080   2.813   1.537  0.4884 -1.2682  1.5086
 7841SOL    HW224270   5.960   2.805   1.445  0.1211  0.9221  1.7599
 7842SOL     OW24271   5.107   5.212   3.630  0.7098  0.3634 -0.5661
 7842SOL    HW124272   5.163   5.151   3.583 -0.3917 -0.5318 -0.7653
 7842SOL    HW224273   5.167   5.274   3.670  1.7682  0.0769 -1.6649
 7843SOL     OW24274   3.787   0.407   5.986  0.5383  0.1511 -0.3384
 7843SOL    HW124275   3.862   0.348   5.985  0.7720  0.3842  1.1891
 7843SOL    HW224276   3.719   0.359   6.033 -0.6786 -0.4840 -2.6225
 7844SOL     OW24277   3.209   5.454   2.731  0.0753  0.3910 -0.2905
 7844SOL    HW124278   3.185   5.437   2.640  0.2926  0.0470 -0.2859
 7844SOL    HW224279   3.293   5.501   2.725 -0.1937  0.8834 -0.2817
 7845SOL     OW24280   5.018   5.848   0.151  0.2349 -0.1533  0.4416
 7845SOL    HW124281   5.087   5.821   0.090 -3.7984 -1.4213 -4.1400
 7845SOL    HW224282   4.961   5.906   0.100 -1.5006  2.0214  4.3702
 7846SOL     OW24283   5.217   2.689   1.758 -0.5217 -0.5776 -0.4289
 7846SOL    HW124284   5.200   2.644   1.841  0.2496 -0.8182 -0.3921
 7846SOL    HW224285   5.312   2.683   1.747 -0.2859  1.5583 -0.1254
 7847SOL     OW24286   3.293   0.361   3.725 -0.4408  0.4191 -0.1449
 7847SOL    HW124287   3.293   0.291   3.660  0.4235  0.4742 -0.2162
 7847SOL    HW224288   3.368   0.416   3.701 -0.4136  0.7226  0.6027
 7848SOL     OW24289   1.535   0.180   0.904  0.2506 -0.0264 -0.1060
 7848SOL    HW124290   1.456   0.227   0.878  1.2465  1.7804 -0.0255
 7848SOL    HW224291   1.541   0.194   0.999  1.0356  0.4714 -0.2231
 7849SOL     OW24292   4.997   5.216   4.744 -0.0742 -0.2256 -0.3166
 7849SOL    HW124293   5.057   5.276   4.789  0.7928  0.3101 -2.1196
 7849SOL    HW224294   5.018   5.225   4.651 -1.8925 -1.2128 -0.8739
 7850SOL     OW24295   5.691   2.378   1.546 -0.4705  0.3435  0.1121
 7850SOL    HW124296   5.712   2.443   1.479  1.5356 -1.8264 -1.4935
 7850SOL    HW224297   5.610   2.337   1.516  0.7010 -0.9894 -1.3717
 7851SOL     OW24298   3.258   3.025   0.032  0.6167 -0.0808  0.0864
 7851SOL    HW124299   3.350   3.021   0.005  0.2677  2.3754 -1.8654
 7851SOL    HW224300   3.214   3.070  -0.040 -2.4605 -2.4849  0.2501
 7852SOL     OW24301   4.711   0.191   0.163 -0.0444  0.0244  0.2884
 7852SOL    HW124302   4.723   0.266   0.221 -1.2085 -0.3348  1.0289
 7852SOL    HW224303   4.730   0.115   0.218 -2.5583 -0.4015  0.6807
 7853SOL     OW24304   2.530   2.105   6.120 -0.0812 -0.4393 -0.6797
 7853SOL    HW124305   2.570   2.191   6.131 -1.3612  0.1530 -0.5241
 7853SOL    HW224306   2.603   2.043   6.129  0.9317  0.6392 -1.2554
 7854SOL     OW24307   6.150   2.749   1.237 -0.0207 -0.5502  0.1856
 7854SOL    HW124308   6.153   2.765   1.332  3.2914  0.6023  0.0088
 7854SOL    HW224309   6.103   2.666   1.228  0.5707 -1.2840  2.9358
 7855SOL     OW24310   5.320   1.563   3.965 -0.1222 -0.2487 -0.4600
 7855SOL    HW124311   5.267   1.547   3.888 -0.1967  0.9687 -0.6845
 7855SOL    HW224312   5.256   1.571   4.037 -0.4154  2.3379 -0.9087
 7856SOL     OW24313   5.684   5.599   5.308 -0.0819  0.5419 -0.7364
 7856SOL    HW124314   5.736   5.628   5.233 -1.0976 -0.9377 -2.0887
 7856SOL    HW224315   5.602   5.568   5.269 -0.9254  0.3714  1.0794
 7857SOL     OW24316   2.333   4.392   0.602 -0.1012 -0.1055  0.0010
 7857SOL    HW124317   2.342   4.484   0.579 -1.1446  0.1361  0.5072
 7857SOL    HW224318   2.417   4.370   0.644 -0.6315  1.2319  1.9011
 7858SOL     OW24319   4.337   5.617   5.043 -0.1285 -0.2478  0.5752
 7858SOL    HW124320   4.404   5.681   5.067 -2.0170  2.1799 -0.2681
 7858SOL    HW224321   4.360   5.590   4.954  0.0805  0.0814  0.5286
 7859SOL     OW24322   5.068   3.761   2.856  0.1443  0.1804  0.0757
 7859SOL    HW124323   5.062   3.788   2.948 -2.3187  0.4080 -0.0734
 7859SOL    HW224324   5.023   3.677   2.853 -0.7466  0.6601 -1.0567
 7860SOL     OW24325   3.848   5.312   5.046 -0.1091 -0.1937  0.1228
 7860SOL    HW124326   3.931   5.328   5.002  0.0882 -1.8207 -0.1594
 7860SOL    HW224327   3.853   5.363   5.127  1.3757 -0.6321  0.3402
 7861SOL     OW24328   4.205   4.510   6.036  0.3094 -0.1144 -0.4939
 7861SOL    HW124329   4.249   4.438   5.990  0.9529  0.2619 -0.4796
 7861SOL    HW224330   4.118   4.514   5.996  0.0962 -1.1911 -0.1818
 7862SOL     OW24331   6.223   3.767   3.401  0.1219  0.0448  0.0970
 7862SOL    HW124332   6.172   3.700   3.447 -0.5044  1.2425  1.1793
 7862SOL    HW224333   6.234   3.731   3.313 -0.9823 -1.0840  0.3870
 7863SOL     OW24334   5.967   1.370   3.708 -0.3961  0.1460  0.3872
 7863SOL    HW124335   5.902   1.437   3.689  0.3929  1.3264  1.6333
 7863SOL    HW224336   5.918   1.288   3.711 -1.4741  0.7351 -0.6361
 7864SOL     OW24337   5.873   5.190   6.089 -0.7864  0.0294  0.7171
 7864SOL    HW124338   5.895   5.166   5.999  0.6201 -0.1740  1.0860
 7864SOL    HW224339   5.780   5.210   6.087 -1.0880 -1.3149 -0.5093
 7865SOL     OW24340   3.064   1.695   0.819  0.3914  0.0136  0.0227
 7865SOL    HW124341   3.067   1.790   0.821  1.0285 -0.0102  0.8766
 7865SOL    HW224342   3.115   1.668   0.895 -0.4117 -0.9946  0.2308
 7866SOL     OW24343   5.776   3.444   5.171 -0.1682 -0.1783  0.0062
 7866SOL    HW124344   5.686   3.449   5.205 -0.4733 -1.3845 -0.5877
 7866SOL    HW224345   5.814   3.529   5.192 -1.6663  0.6058 -0.3282
 7867SOL     OW24346   2.560   5.716   3.544 -0.2755  0.5478  0.4731
 7867SOL    HW124347   2.597   5.800   3.571 -2.0814  2.1996 -1.8659
 7867SOL    HW224348   2.466   5.725   3.560 -0.5260 -0.9699 -0.0139
 7868SOL     OW24349   4.540   5.571   1.897 -0.3501  0.1681 -0.3854
 7868SOL    HW124350   4.478   5.622   1.845 -1.4513 -1.3750 -0.6757
 7868SOL    HW224351   4.625   5.589   1.857 -0.9623  0.2695 -1.7098
 7869SOL     OW24352   2.530   6.104   3.293 -0.3771 -0.2912 -0.2304
 7869SOL    HW124353   2.571   6.131   3.375 -1.2077  0.2353  0.0259
 7869SOL    HW224354   2.516   6.010   3.303 -1.5107 -0.0442  0.7262
 7870SOL     OW24355   0.298   2.732   4.647 -0.3493 -0.5631  0.0905
 7870SOL    HW124356   0.239   2.732   4.572  2.2019  2.2540 -2.1547
 7870SOL    HW224357   0.265   2.801   4.704 -0.6399 -0.7105  0.1001
 7871SOL     OW24358   0.542   0.131   3.160  0.6137 -0.5026 -0.6567
 7871SOL    HW124359   0.560   0.205   3.217 -0.5171  0.3002 -1.2802
 7871SOL    HW224360   0.583   0.155   3.077  2.6500 -1.8712 -0.0912
 7872SOL     OW24361   4.814   5.082   4.411 -0.2411 -0.3291 -0.0006
 7872SOL    HW124362   4.781   5.135   4.484 -2.3356 -2.2532  0.5586
 7872SOL    HW224363   4.764   5.111   4.335 -0.2956 -0.4610 -0.0156
 7873SOL     OW24364   0.665   1.802   2.523 -0.3324  0.9193 -0.5721
 7873SOL    HW124365   0.592   1.833   2.470  0.9518  0.8532 -2.4808
 7873SOL    HW224366   0.726   1.876   2.525  0.9200 -0.0212 -1.6977
 7874SOL     OW24367   4.867   5.265   3.501 -0.4893 -0.1626 -0.4632
 7874SOL    HW124368   4.949   5.230   3.534 -1.0956 -0.4807  0.7687
 7874SOL    HW224369   4.849   5.341   3.558 -2.2173 -1.5012  0.9016
 7875SOL     OW24370   2.151   3.951   4.692  0.5018  0.0277 -0.0389
 7875SOL    HW124371   2.188   4.021   4.638 -0.8945  0.3080 -0.6855
 7875SOL    HW224372   2.191   3.963   4.778  0.2934  1.6400 -0.1318
 7876SOL     OW24373   2.375   2.138   4.885 -0.7536  0.2382 -0.0328
 7876SOL    HW124374   2.322   2.218   4.890  1.7167  2.0072 -0.7108
 7876SOL    HW224375   2.441   2.149   4.953  0.3484 -0.6684 -0.9215
 7877SOL     OW24376   2.661   4.285   0.636  0.5916 -0.1147  0.0835
 7877SOL    HW124377   2.681   4.341   0.711 -0.7341 -0.4143  0.6889
 7877SOL    HW224378   2.641   4.346   0.565 -1.4749  0.2478  0.9041
 7878SOL     OW24379   3.474   0.302   4.218 -0.9011  0.0191 -0.1178
 7878SOL    HW124380   3.467   0.264   4.131 -3.1025  0.3368 -0.1347
 7878SOL    HW224381   3.533   0.377   4.208 -0.3170 -0.5554 -1.0812
 7879SOL     OW24382   4.194   2.592   5.686 -0.3302 -0.0189 -0.2306
 7879SOL    HW124383   4.110   2.547   5.676 -0.3780  0.1861 -0.7867
 7879SOL    HW224384   4.172   2.677   5.722 -0.2424 -0.4170  0.7967
 7880SOL     OW24385   1.613   2.755   1.023  0.0671 -0.1843 -0.2515
 7880SOL    HW124386   1.709   2.748   1.020  0.0501 -0.7412  0.2599
 7880SOL    HW224387   1.582   2.664   1.024 -0.4600 -0.0084 -0.2658
 7881SOL     OW24388   3.207   2.058   4.399 -0.1119 -0.0050  0.6043
 7881SOL    HW124389   3.246   1.982   4.356  0.9389  0.8560 -0.0347
 7881SOL    HW224390   3.154   2.099   4.330 -0.5447 -0.0734  0.8960
 7882SOL     OW24391   5.542   1.283   5.099  0.2095 -0.1037  0.0655
 7882SOL    HW124392   5.517   1.303   5.189  1.1411 -0.5497  0.4318
 7882SOL    HW224393   5.590   1.361   5.070 -0.2366  0.1093 -0.1070
 7883SOL     OW24394   5.740   6.277   1.209 -0.3521 -0.3092 -0.8865
 7883SOL    HW124395   5.804   6.348   1.219  0.5694 -1.2530  0.2472
 7883SOL    HW224396   5.673   6.314   1.152 -0.0982  1.6110 -0.0500
 7884SOL     OW24397   6.205   3.109   3.494  0.3672 -0.4120 -0.5234
 7884SOL    HW124398   6.206   3.017   3.520 -0.3234 -0.2118  0.2678
 7884SOL    HW224399   6.297   3.135   3.497  0.7203 -1.3803 -1.9667
 7885SOL     OW24400   3.515   3.632   1.829  0.1501  0.5277  0.6322
 7885SOL    HW124401   3.545   3.572   1.761  0.3530 -0.4215  1.5377
 7885SOL    HW224402   3.468   3.576   1.891  1.2746  1.0970  2.0563
 7886SOL     OW24403   5.775   6.200   0.318 -0.0176 -0.0972 -0.2822
 7886SOL    HW124404   5.777   6.243   0.403  0.5533 -0.5734 -0.0425
 7886SOL    HW224405   5.682   6.184   0.301 -0.1248 -0.2060  0.3645
 7887SOL     OW24406   5.150   2.845   0.110  0.0354 -0.3873  0.0809
 7887SOL    HW124407   5.198   2.868   0.190 -0.8887 -1.6427  1.0481
 7887SOL    HW224408   5.174   2.754   0.094 -0.8859 -0.5778 -0.2463
 7888SOL     OW24409   0.617   5.000   5.241  0.3079 -0.0737 -0.4947
 7888SOL    HW124410   0.550   5.060   5.209  0.7461  0.3035 -0.7297
 7888SOL    HW224411   0.691   5.015   5.182  0.7871 -0.0772  0.1017
 7889SOL     OW24412   3.283   2.578   2.029 -0.1348 -0.5301  0.3878
 7889SOL    HW124413   3.235   2.652   1.990 -0.4847 -1.2499 -0.5807
 7889SOL    HW224414   3.344   2.619   2.090 -1.8964  0.4266  1.6021
 7890SOL     OW24415   2.413   2.912   0.529  0.7573 -0.2122  0.2905
 7890SOL    HW124416   2.374   2.857   0.597  0.6173 -0.6638 -0.1460
 7890SOL    HW224417   2.446   2.989   0.576  0.2404 -0.2965  0.8020
 7891SOL     OW24418   0.257   5.591   5.162 -0.0317  0.5914 -0.2819
 7891SOL    HW124419   0.326   5.650   5.193  1.5542 -0.2270 -2.0538
 7891SOL    HW224420   0.265   5.513   5.217  0.0204  0.7540 -0.0581
 7892SOL     OW24421   6.022   5.679   3.415  0.7429  0.9713  0.1804
 7892SOL    HW124422   5.951   5.744   3.417 -0.7545 -0.6023  0.7194
 7892SOL    HW224423   5.993   5.614   3.352  1.9080  0.4657  0.1368
 7893SOL     OW24424   4.129   4.490   2.297 -0.1652  0.2383 -0.1610
 7893SOL    HW124425   4.133   4.460   2.388 -1.5190  0.0006 -0.1582
 7893SOL    HW224426   4.219   4.484   2.266  0.4003  0.7081  1.2826
 7894SOL     OW24427   2.747   0.897   1.160  0.1800 -0.3046  0.5660
 7894SOL    HW124428   2.781   0.807   1.155  2.5140  0.4319  1.7243
 7894SOL    HW224429   2.819   0.951   1.129 -1.4213  1.1722 -0.7159
 7895SOL     OW24430   5.927   5.125   0.917  0.3801 -0.1287 -0.3876
 7895SOL    HW124431   5.865   5.109   0.989 -0.5158 -0.0559 -1.1180
 7895SOL    HW224432   6.013   5.110   0.955 -0.1720 -2.2080  0.1778
 7896SOL     OW24433   5.065   4.290   0.238  0.1569  0.0273  0.2904
 7896SOL    HW124434   5.101   4.374   0.265  1.5784 -0.2691 -0.5547
 7896SOL    HW224435   5.033   4.306   0.149 -0.5643 -0.0584  0.5320
 7897SOL     OW24436   5.203   0.349   3.068  0.3588 -0.1666  0.3262
 7897SOL    HW124437   5.296   0.339   3.045  0.8408  1.0879  1.6258
 7897SOL    HW224438   5.173   0.422   3.013  0.2775 -0.2238  0.2945
 7898SOL     OW24439   2.132   3.612   5.389 -0.1467  0.2149  0.3512
 7898SOL    HW124440   2.189   3.542   5.359  0.7646  1.4108 -0.8366
 7898SOL    HW224441   2.054   3.606   5.334 -0.8791 -0.9613  1.4766
 7899SOL     OW24442   4.132   3.573   2.699 -0.5371 -0.1687  0.9792
 7899SOL    HW124443   4.084   3.642   2.744  1.5055  0.7432  1.8807
 7899SOL    HW224444   4.086   3.562   2.616 -1.3156  1.8029  1.1001
 7900SOL     OW24445   1.310   0.247   0.722  0.2176  0.0771 -0.0792
 7900SOL    HW124446   1.223   0.224   0.755  0.8587 -1.4177  0.6666
 7900SOL    HW224447   1.297   0.329   0.675 -1.3411  0.6188  1.1989
 7901SOL     OW24448   1.597   4.777   2.586 -0.6392 -0.1767  0.1235
 7901SOL    HW124449   1.617   4.722   2.510 -1.6792 -1.1299  0.5135
 7901SOL    HW224450   1.512   4.744   2.617 -0.4924  0.5746  1.3556
 7902SOL     OW24451   6.266   4.671   3.311  0.3615 -0.2966 -0.1910
 7902SOL    HW124452   6.221   4.728   3.249 -0.5050 -0.1097  0.5784
 7902SOL    HW224453   6.220   4.686   3.394  0.8462 -1.2792  0.2683
 7903SOL     OW24454   5.036   1.882   6.004  0.2450 -0.5094 -0.0809
 7903SOL    HW124455   5.075   1.902   5.919 -1.0720  0.0385 -0.5875
 7903SOL    HW224456   5.100   1.914   6.068  0.1865  1.3411 -0.8706
 7904SOL     OW24457   5.512   1.740   5.379  0.0444  0.2855 -0.4777
 7904SOL    HW124458   5.420   1.744   5.350  0.2904  0.6201 -1.2487
 7904SOL    HW224459   5.557   1.802   5.322  0.8361 -0.2234 -0.4186
 7905SOL     OW24460   5.864   4.542   4.650  0.0881 -0.0225  0.1678
 7905SOL    HW124461   5.870   4.480   4.722  2.0336 -0.0863  0.0110
 7905SOL    HW224462   5.942   4.525   4.597 -1.3034 -0.0508 -2.0316
 7906SOL     OW24463   1.155   2.348   1.923 -0.4235  0.5491 -0.0687
 7906SOL    HW124464   1.150   2.383   1.834 -2.9573  0.8118  0.0828
 7906SOL    HW224465   1.170   2.424   1.978 -0.6799  0.6489 -0.1363
 7907SOL     OW24466   0.721   5.405   2.704 -0.1565  0.1769  0.8958
 7907SOL    HW124467   0.755   5.316   2.693  1.1837  0.7686 -0.1021
 7907SOL    HW224468   0.789   5.450   2.755  0.0652  1.0934 -0.1586
 7908SOL     OW24469   4.525   3.545   2.791 -0.1704 -0.2832 -0.3529
 7908SOL    HW124470   4.443   3.592   2.806 -0.7481 -1.2640 -0.3174
 7908SOL    HW224471   4.521   3.470   2.850  0.6178 -0.5077 -0.5720
 7909SOL     OW24472   3.097   4.201   1.369 -0.5856  0.2571  0.1876
 7909SOL    HW124473   3.081   4.200   1.463  2.0721  0.2298  0.7076
 7909SOL    HW224474   3.129   4.113   1.349  0.2885  0.7027 -0.4472
 7910SOL     OW24475   0.031   5.413   1.378 -0.2269  0.1435 -0.1229
 7910SOL    HW124476  -0.060   5.391   1.395  0.4544 -1.3251  1.9492
 7910SOL    HW224477   0.067   5.437   1.463  1.9811 -2.0189 -0.3196
 7911SOL     OW24478   3.153   5.383   6.061  1.1288  0.6146 -0.3020
 7911SOL    HW124479   3.229   5.414   6.111  0.2195  1.3461  0.6639
 7911SOL    HW224480   3.079   5.392   6.121  0.2206  0.1753 -1.3188
 7912SOL     OW24481   6.210   4.481   4.593  0.2466 -0.1753  0.1781
 7912SOL    HW124482   6.297   4.449   4.568 -1.1226 -1.5383 -3.6537
 7912SOL    HW224483   6.180   4.418   4.659  1.5849 -0.5846  0.4337
 7913SOL     OW24484   4.929   1.488   5.084 -0.3406 -0.2575 -0.0192
 7913SOL    HW124485   4.978   1.421   5.133  0.5641  0.9647  0.8050
 7913SOL    HW224486   4.898   1.442   5.006  0.7046 -1.5046  0.2546
 7914SOL     OW24487   4.740   0.197   4.134  0.1718 -0.0970  0.0817
 7914SOL    HW124488   4.662   0.242   4.102 -1.4792 -1.7596  1.5200
 7914SOL    HW224489   4.779   0.259   4.197  0.4998  1.0494 -1.1941
 7915SOL     OW24490   0.799   1.029   2.834 -0.7702 -0.1555  0.3412
 7915SOL    HW124491   0.881   1.041   2.883 -0.1409 -1.7718 -0.2665
 7915SOL    HW224492   0.827   1.017   2.744 -1.8300  1.2606 -0.2162
 7916SOL     OW24493   2.575   0.804   4.572  0.8314 -0.3558  0.5428
 7916SOL    HW124494   2.634   0.781   4.644  1.6257 -0.9826 -0.2987
 7916SOL    HW224495   2.521   0.874   4.608  1.9079  0.0554  1.4162
 7917SOL     OW24496   1.298   1.262   1.239  0.2848 -0.2548  0.7874
 7917SOL    HW124497   1.351   1.183   1.234 -0.7986 -1.1187  2.0153
 7917SOL    HW224498   1.226   1.246   1.177  0.1235 -0.2071  0.9602
 7918SOL     OW24499   3.497   2.761   3.591 -0.0175  0.0327 -0.0196
 7918SOL    HW124500   3.459   2.727   3.510 -0.1467  1.7046 -0.7116
 7918SOL    HW224501   3.421   2.783   3.645  0.0530 -3.0269  1.5042
 7919SOL     OW24502   1.741   3.355   5.774  0.2012  0.0514  0.0719
 7919SOL    HW124503   1.703   3.298   5.708 -1.9976  0.9504  0.4699
 7919SOL    HW224504   1.692   3.335   5.854  0.3407  1.5030  0.5477
 7920SOL     OW24505   4.282   5.782   6.027  0.2106  0.1686 -0.5374
 7920SOL    HW124506   4.191   5.760   6.047 -0.1553  0.5965 -1.6317
 7920SOL    HW224507   4.282   5.801   5.933  1.2994  0.8531 -0.4192
 7921SOL     OW24508   2.467   0.460   6.054  0.4062 -0.1542  0.1250
 7921SOL    HW124509   2.557   0.463   6.086  0.3812 -1.1143  0.3159
 7921SOL    HW224510   2.475   0.448   5.960  0.4769  2.2499 -0.2336
 7922SOL     OW24511   1.413   4.291   5.595  0.0767 -0.2867 -0.1795
 7922SOL    HW124512   1.330   4.247   5.577  0.2465 -0.3832 -0.7547
 7922SOL    HW224513   1.387   4.380   5.621 -0.1738  0.2312 -2.0192
 7923SOL     OW24514   2.075   5.194   2.823  0.1718  0.2734  0.4437
 7923SOL    HW124515   2.086   5.149   2.907  0.1519 -0.7583 -0.1033
 7923SOL    HW224516   2.144   5.158   2.767  0.1477  0.9179 -0.0110
 7924SOL     OW24517   5.655   5.551   1.003 -0.2633 -0.5702 -0.0447
 7924SOL    HW124518   5.668   5.613   0.931  0.9446  0.4099  0.9808
 7924SOL    HW224519   5.689   5.468   0.969  1.5842  0.1855 -0.1790
 7925SOL     OW24520   6.293   1.945   2.074  0.0221  0.4603 -0.0429
 7925SOL    HW124521   6.315   1.937   1.981 -1.1502 -0.2341 -0.2827
 7925SOL    HW224522   6.376   1.964   2.117  0.5850  0.7834 -1.2288
 7926SOL     OW24523   5.129   2.908   5.050 -0.0358 -0.3301 -0.1494
 7926SOL    HW124524   5.069   2.906   4.975 -0.7715 -1.5288  0.4418
 7926SOL    HW224525   5.081   2.865   5.121  0.9193  0.1428  0.8153
 7927SOL     OW24526   0.757   3.061   6.111  0.9226  0.3963 -0.8984
 7927SOL    HW124527   0.746   3.074   6.017  0.9494  0.6916 -0.8626
 7927SOL    HW224528   0.669   3.073   6.147  1.3817  3.5457 -0.5210
 7928SOL     OW24529   3.198   0.969   2.607 -0.0829  0.5252  0.2869
 7928SOL    HW124530   3.267   0.903   2.592  1.1582  1.8016  0.1529
 7928SOL    HW224531   3.117   0.919   2.607  0.8880 -1.1536  1.1995
 7929SOL     OW24532   2.131   4.334   4.105 -0.2902 -0.0426 -0.4113
 7929SOL    HW124533   2.071   4.306   4.036  0.2386 -1.8099 -0.2145
 7929SOL    HW224534   2.216   4.296   4.080  0.4892  1.4141 -0.0766
 7930SOL     OW24535   6.131   2.943   0.422 -0.5087 -0.1683 -0.5861
 7930SOL    HW124536   6.134   3.037   0.409 -0.7091  0.2659  1.9858
 7930SOL    HW224537   6.059   2.913   0.366 -0.5969  1.2080 -1.2530
 7931SOL     OW24538   1.173   4.424   4.059  0.6770  0.2064  0.3510
 7931SOL    HW124539   1.142   4.466   4.140 -0.6744  1.3972 -0.7319
 7931SOL    HW224540   1.134   4.476   3.989  2.3788 -0.3907 -1.0911
 7932SOL     OW24541   3.148   2.710   3.250 -0.1173 -0.1600  0.1324
 7932SOL    HW124542   3.074   2.676   3.299  0.2745 -0.0467  0.8097
 7932SOL    HW224543   3.181   2.782   3.302  1.1507 -0.9065  0.4073
 7933SOL     OW24544   1.782   4.792   0.270  0.1027  0.4437  0.1734
 7933SOL    HW124545   1.808   4.735   0.197 -2.1228 -0.8253  0.2763
 7933SOL    HW224546   1.719   4.852   0.231  0.9515  1.5631  0.5015
 7934SOL     OW24547   5.249   4.759   0.185  0.0448  0.6203 -0.0669
 7934SOL    HW124548   5.303   4.726   0.113 -2.1924 -1.1465 -1.0824
 7934SOL    HW224549   5.307   4.760   0.260  1.5435 -1.1280 -1.1087
 7935SOL     OW24550   5.707   4.923   2.570 -0.2842  0.3348  0.5363
 7935SOL    HW124551   5.692   4.923   2.664 -1.3084  0.6420  0.3882
 7935SOL    HW224552   5.620   4.937   2.532 -0.7190 -4.0108 -0.5935
 7936SOL     OW24553   3.231   0.259   2.552 -0.3540  0.8216  0.0010
 7936SOL    HW124554   3.171   0.233   2.622  1.2045 -0.4396  0.9369
 7936SOL    HW224555   3.291   0.184   2.543 -0.0527  1.2667 -2.1755
 7937SOL     OW24556   4.427   0.664   3.183  0.7788 -0.0048 -0.3241
 7937SOL    HW124557   4.478   0.743   3.165  1.3313 -0.4352 -0.6658
 7937SOL    HW224558   4.425   0.617   3.100  0.5502 -0.4113 -0.0934
 7938SOL     OW24559   3.186   3.899   1.290 -0.5667 -0.0939 -0.1198
 7938SOL    HW124560   3.160   3.807   1.284  0.0516 -0.2256 -1.0223
 7938SOL    HW224561   3.124   3.945   1.234 -1.0569  0.0955  0.5591
 7939SOL     OW24562   4.126   3.148   1.301 -0.3642  0.2540 -0.3614
 7939SOL    HW124563   4.140   3.149   1.207  0.9298 -0.3817 -0.2053
 7939SOL    HW224564   4.103   3.058   1.321 -0.0354  0.2485  0.0015
 7940SOL     OW24565   2.410   4.024   3.344 -0.0654 -0.3165 -0.0515
 7940SOL    HW124566   2.353   3.983   3.409 -0.3362 -0.0787 -0.1338
 7940SOL    HW224567   2.382   3.988   3.260  0.5843 -0.9631  0.0014
 7941SOL     OW24568   1.858   5.957   2.649 -0.2150 -0.4540  0.5004
 7941SOL    HW124569   1.794   6.012   2.604  0.0031 -1.0110 -0.5031
 7941SOL    HW224570   1.839   5.970   2.742 -1.3556 -0.1047  0.2357
 7942SOL     OW24571   1.201   0.454   3.928 -0.1680 -0.4679 -0.0806
 7942SOL    HW124572   1.253   0.385   3.968 -0.5577 -1.4240 -1.1819
 7942SOL    HW224573   1.223   0.451   3.835  0.4509  1.4649 -0.0537
 7943SOL     OW24574   2.288   0.227   1.503 -0.2713 -0.1420  0.0101
 7943SOL    HW124575   2.330   0.177   1.573 -0.8119 -0.1986  0.2969
 7943SOL    HW224576   2.204   0.184   1.489 -0.7729  0.7132  0.3029
 7944SOL     OW24577   0.759   3.257   1.587 -0.1679 -0.7614 -0.2786
 7944SOL    HW124578   0.809   3.264   1.668 -2.4682  1.6734  1.1107
 7944SOL    HW224579   0.806   3.312   1.525 -0.1227  0.0716  0.4611
 7945SOL     OW24580   2.315   3.058   2.755  0.9261  0.0693 -0.3703
 7945SOL    HW124581   2.229   3.063   2.795  1.5792 -1.1306  1.2849
 7945SOL    HW224582   2.314   2.975   2.707  1.1222  0.1199 -0.4632
 7946SOL     OW24583   0.161   1.863   2.345 -0.0519  0.0902  0.4770
 7946SOL    HW124584   0.086   1.905   2.388  0.0302  0.5998  0.1261
 7946SOL    HW224585   0.140   1.770   2.346 -0.7340  0.2418  0.2879
 7947SOL     OW24586   5.527   0.310   4.492  0.4273  0.4859 -0.0505
 7947SOL    HW124587   5.535   0.238   4.554  1.6862  0.1693 -0.5513
 7947SOL    HW224588   5.526   0.389   4.546 -2.2006  0.1189  0.5953
 7948SOL     OW24589   3.862   3.469   1.619 -0.1484 -0.1684 -0.2450
 7948SOL    HW124590   3.950   3.440   1.597 -0.7272 -0.9886 -1.5956
 7948SOL    HW224591   3.850   3.550   1.570 -0.4481 -0.5350 -0.7949
 7949SOL     OW24592   0.401   4.873   4.843 -0.3191  0.5548 -0.2050
 7949SOL    HW124593   0.444   4.874   4.758 -0.8560 -0.6324 -0.5137
 7949SOL    HW224594   0.314   4.909   4.827 -0.9532 -1.0030 -0.5049
 7950SOL     OW24595   4.073   0.542   5.464  1.0661 -0.0215 -0.1555
 7950SOL    HW124596   4.052   0.474   5.400  0.3011 -1.7470  1.8324
 7950SOL    HW224597   4.076   0.623   5.412  0.2773 -1.2918 -2.3262
 7951SOL     OW24598   2.943   0.129   1.082  0.0680  0.2951  0.4364
 7951SOL    HW124599   2.968   0.121   1.174 -0.9907  0.0250  0.7181
 7951SOL    HW224600   3.025   0.128   1.034  0.8660  3.3112  1.5471
 7952SOL     OW24601   3.598   4.735   5.158 -0.0507  0.6151  1.0025
 7952SOL    HW124602   3.533   4.675   5.120  0.3395  0.3476  0.7479
 7952SOL    HW224603   3.592   4.720   5.252  1.6732 -1.5783  0.8605
 7953SOL     OW24604   0.107   3.847   0.056  0.0128  0.8658 -0.1512
 7953SOL    HW124605   0.050   3.859  -0.020 -0.6106  3.0245  0.5892
 7953SOL    HW224606   0.086   3.759   0.087 -2.1573  1.1888 -0.5316
 7954SOL     OW24607   5.014   0.839   0.922  0.5161  0.6849  0.1871
 7954SOL    HW124608   5.039   0.862   0.832  0.5470 -0.8861 -0.2225
 7954SOL    HW224609   5.096   0.811   0.963  0.8082  2.8224  1.2169
 7955SOL     OW24610   1.490   1.892   3.188  0.1541 -0.7043  0.3861
 7955SOL    HW124611   1.571   1.907   3.140  0.3490 -0.8021  0.6802
 7955SOL    HW224612   1.496   1.949   3.265  0.1502 -1.0533  0.6461
 7956SOL     OW24613   0.816   2.459   2.790 -0.5108  0.3571 -0.3156
 7956SOL    HW124614   0.733   2.434   2.831 -0.5041  1.7123  0.6016
 7956SOL    HW224615   0.809   2.428   2.700 -1.3662 -0.9151  0.1552
 7957SOL     OW24616   0.175   4.540   4.946 -0.0719 -0.4023 -0.0731
 7957SOL    HW124617   0.162   4.446   4.933  2.1398 -0.6186 -1.2114
 7957SOL    HW224618   0.087   4.575   4.960 -1.4396 -2.0820 -3.4648
 7958SOL     OW24619   1.700   4.147   1.868  0.4569  0.2589  0.9970
 7958SOL    HW124620   1.684   4.240   1.884 -0.2529  0.4673 -0.6605
 7958SOL    HW224621   1.644   4.101   1.930 -0.6606  0.9747  0.5483
 7959SOL     OW24622   4.029   4.336   5.203  0.0152 -0.0579 -0.1401
 7959SOL    HW124623   4.016   4.407   5.266  0.1838  1.3038 -1.6009
 7959SOL    HW224624   4.115   4.352   5.164 -0.3749 -0.4800 -1.2155
 7960SOL     OW24625   0.637   0.621   1.929  0.2021 -0.3559  0.1477
 7960SOL    HW124626   0.600   0.701   1.893 -0.8819 -0.7728  0.2837
 7960SOL    HW224627   0.729   0.622   1.902 -0.2278  0.0576 -1.3844
 7961SOL     OW24628   3.925   1.968   0.706  0.0276 -0.2157 -0.1705
 7961SOL    HW124629   4.001   1.912   0.688  0.3501  0.1345  0.0781
 7961SOL    HW224630   3.950   2.017   0.784 -0.7514 -0.6192  0.3356
 7962SOL     OW24631   2.461   0.190   3.152  0.1677 -0.0405 -0.2403
 7962SOL    HW124632   2.459   0.150   3.239  0.0838  1.7157  0.5938
 7962SOL    HW224633   2.554   0.192   3.129  0.1294 -1.2386 -0.5686
 7963SOL     OW24634   0.636   1.655   3.291  0.3236  0.2851 -0.1996
 7963SOL    HW124635   0.664   1.739   3.328 -0.2705  1.0392 -1.3873
 7963SOL    HW224636   0.541   1.664   3.282  0.0513 -1.0754  0.9655
 7964SOL     OW24637   1.770   2.275   6.302 -0.7417  0.0805  0.4405
 7964SOL    HW124638   1.701   2.251   6.363 -1.6977 -0.7568 -0.9247
 7964SOL    HW224639   1.838   2.208   6.315 -1.3924 -0.7046 -0.1130
 7965SOL     OW24640   4.642   4.890   4.665  0.2520 -0.1825 -0.0773
 7965SOL    HW124641   4.554   4.900   4.703  0.4693 -0.7637  0.6081
 7965SOL    HW224642   4.675   4.980   4.659  0.1714 -0.0524  1.0599
 7966SOL     OW24643   5.316   0.878   1.365  0.2782  0.0662  0.1212
 7966SOL    HW124644   5.355   0.806   1.414 -0.5869 -1.2044 -1.0067
 7966SOL    HW224645   5.388   0.940   1.354  1.8724 -1.9047 -1.3214
 7967SOL     OW24646   1.617   0.189   3.240  0.0597 -0.3512  0.2925
 7967SOL    HW124647   1.522   0.177   3.247 -0.2036  1.3358 -0.1739
 7967SOL    HW224648   1.628   0.276   3.203  1.8065 -0.5252  0.3354
 7968SOL     OW24649   1.051   2.689   3.809  0.1234 -0.3014  0.0551
 7968SOL    HW124650   0.993   2.717   3.738 -2.6771 -0.3982  2.1228
 7968SOL    HW224651   1.005   2.616   3.850  2.1351 -0.9284  1.3540
 7969SOL     OW24652   2.094   4.258   1.774 -0.3729  0.2124 -0.0763
 7969SOL    HW124653   2.115   4.330   1.834 -0.3963 -0.0058  0.1958
 7969SOL    HW224654   2.066   4.301   1.694 -0.3632  0.5086  0.0773
 7970SOL     OW24655   3.706   4.473   3.076  0.6243  0.0620 -0.1080
 7970SOL    HW124656   3.727   4.427   3.158  0.5583 -1.5281 -0.9385
 7970SOL    HW224657   3.758   4.553   3.080  0.0487  0.3947  1.8226
 7971SOL     OW24658   1.937   2.059   0.003 -0.2172 -0.8098  0.0681
 7971SOL    HW124659   2.014   2.080   0.057 -0.3273 -0.6997  0.1832
 7971SOL    HW224660   1.971   2.002  -0.066  0.2219  0.3444 -0.6943
 7972SOL     OW24661   2.200   5.640   3.893  0.0009  0.0433  0.0939
 7972SOL    HW124662   2.218   5.574   3.960 -0.0810  1.1681  1.2644
 7972SOL    HW224663   2.118   5.611   3.853 -0.0821 -0.5218  0.6418
 7973SOL     OW24664   3.550   2.995   6.220 -0.3361  0.4185  0.8626
 7973SOL    HW124665   3.531   2.934   6.148 -0.9472  0.8185  0.6768
 7973SOL    HW224666   3.587   3.072   6.177  1.3674 -0.1735  1.1835
 7974SOL     OW24667   2.068   1.281   4.750 -0.5432 -0.1194 -0.1428
 7974SOL    HW124668   2.082   1.360   4.698  0.1198 -0.7509 -0.9620
 7974SOL    HW224669   2.047   1.214   4.686 -0.5978 -0.7239  0.4955
 7975SOL     OW24670   1.169   0.508   6.118  0.4620 -0.3215 -0.0067
 7975SOL    HW124671   1.142   0.416   6.120  0.4674 -0.3542 -0.9872
 7975SOL    HW224672   1.206   0.521   6.031  0.0434  0.7308 -0.0459
 7976SOL     OW24673   2.852   3.576   1.176 -0.1788  0.3045 -0.2920
 7976SOL    HW124674   2.771   3.537   1.210  0.2478  0.7157  1.2973
 7976SOL    HW224675   2.844   3.568   1.081 -2.4073  0.9836 -0.2301
 7977SOL     OW24676   3.729   4.330   4.654  0.0323 -0.0957  0.3233
 7977SOL    HW124677   3.813   4.356   4.616  0.1064  1.5599  1.4991
 7977SOL    HW224678   3.674   4.309   4.580  1.3737 -0.8591 -0.4931
 7978SOL     OW24679   5.250   5.007   4.226 -0.7193  0.3513  0.6125
 7978SOL    HW124680   5.164   5.048   4.221 -0.3777  1.1877  1.3630
 7978SOL    HW224681   5.301   5.064   4.283  0.4339  0.0386 -0.0651
 7979SOL     OW24682   6.158   4.365   2.313 -0.6423  0.2641  0.6188
 7979SOL    HW124683   6.147   4.391   2.221 -3.3661  0.8375  1.0204
 7979SOL    HW224684   6.216   4.289   2.309  1.2889  1.7191 -1.3068
 7980SOL     OW24685   1.594   3.777   4.806  0.1020 -0.0867 -0.1180
 7980SOL    HW124686   1.624   3.793   4.717  0.3310  2.1845  0.3080
 7980SOL    HW224687   1.660   3.719   4.843  2.2691  2.1283 -0.2419
 7981SOL     OW24688   2.689   2.124   2.900 -0.3792  0.5260  0.0312
 7981SOL    HW124689   2.683   2.035   2.934  0.9068  0.9155  1.3798
 7981SOL    HW224690   2.782   2.145   2.905 -0.5334  1.6150 -1.1840
 7982SOL     OW24691   1.900   2.238   4.353 -0.2789 -0.5255 -0.0411
 7982SOL    HW124692   1.847   2.190   4.290 -1.2312  1.1380 -0.5558
 7982SOL    HW224693   1.842   2.306   4.388  1.1023  0.5152  0.3635
 7983SOL     OW24694   5.070   4.665   4.796  0.1671  0.0774 -0.6185
 7983SOL    HW124695   5.152   4.640   4.755  1.2860  0.0587  1.4822
 7983SOL    HW224696   5.081   4.757   4.820 -0.1571 -0.0792  0.2049
 7984SOL     OW24697   4.959   3.570   1.717  0.0787 -0.6319 -0.3960
 7984SOL    HW124698   5.049   3.588   1.690  0.1360  0.9852  0.7164
 7984SOL    HW224699   4.914   3.654   1.707 -0.7143 -0.8181  1.2769
 7985SOL     OW24700   5.091   6.128   0.531 -0.4321  0.7305 -0.6474
 7985SOL    HW124701   5.021   6.066   0.510  0.8692 -0.0680 -2.9322
 7985SOL    HW224702   5.096   6.127   0.627 -1.9392 -0.9794 -0.5333
 7986SOL     OW24703   0.556   2.212   3.901 -0.3819 -0.2656  0.1022
 7986SOL    HW124704   0.652   2.206   3.908 -0.1545  0.7659 -1.6902
 7986SOL    HW224705   0.539   2.207   3.807 -2.2018 -1.5946  0.4597
 7987SOL     OW24706   2.853   1.339   1.030  0.5885 -0.6245  0.6563
 7987SOL    HW124707   2.944   1.317   1.049  1.4606 -0.7990 -2.9913
 7987SOL    HW224708   2.851   1.435   1.029  1.4659 -0.5667 -1.7327
 7988SOL     OW24709   4.186   2.917   0.307  0.9183  0.3635  0.3580
 7988SOL    HW124710   4.104   2.946   0.266  0.5597 -0.7401  0.2729
 7988SOL    HW224711   4.189   2.964   0.390 -0.3632 -0.4061  0.8717
 7989SOL     OW24712   0.120   4.402   1.560  0.2358  0.0946 -0.4673
 7989SOL    HW124713   0.043   4.442   1.600  1.1659  1.2049  0.2751
 7989SOL    HW224714   0.116   4.430   1.468  0.2931  1.0121 -0.1997
 7990SOL     OW24715   1.206   3.102   5.748 -0.8494  0.1858  0.4883
 7990SOL    HW124716   1.147   3.026   5.752  0.0464 -0.5050  1.0732
 7990SOL    HW224717   1.292   3.066   5.770 -0.2852  1.2542  0.0743
 7991SOL     OW24718   1.946   1.581   3.257 -0.2203 -0.2569  0.2654
 7991SOL    HW124719   1.865   1.572   3.307 -0.4013 -1.2415 -0.1975
 7991SOL    HW224720   2.013   1.596   3.324 -0.7641  0.5371  0.6501
 7992SOL     OW24721   4.241   3.673   0.144  0.0199 -0.0292  0.2974
 7992SOL    HW124722   4.232   3.749   0.202 -2.3059  0.2185 -0.2821
 7992SOL    HW224723   4.222   3.598   0.200  1.0442 -0.0977  0.5736
 7993SOL     OW24724   3.285   5.852   4.295  0.2044 -0.0591 -0.3420
 7993SOL    HW124725   3.239   5.933   4.318  0.8122  0.4619 -0.9148
 7993SOL    HW224726   3.311   5.815   4.379 -0.9079 -0.1663 -0.0249
 7994SOL     OW24727   1.745   2.776   5.864  0.4433 -0.2171 -0.4397
 7994SOL    HW124728   1.802   2.699   5.865  0.6868 -0.0387  0.3590
 7994SOL    HW224729   1.722   2.788   5.772  2.8092  0.4941 -1.0228
 7995SOL     OW24730   4.436   3.725   2.096 -0.4701  0.4491  0.3300
 7995SOL    HW124731   4.512   3.673   2.068 -0.2941  0.7615  0.2170
 7995SOL    HW224732   4.474   3.796   2.147 -0.5505  1.4275 -0.9232
 7996SOL     OW24733   4.243   0.422   2.445  0.0852 -0.6874  0.1899
 7996SOL    HW124734   4.176   0.370   2.489 -0.6230 -0.2362 -0.3361
 7996SOL    HW224735   4.204   0.509   2.437  0.2814 -0.7137 -1.1543
 7997SOL     OW24736   4.544   1.953   2.011 -0.1033  0.0416  0.1061
 7997SOL    HW124737   4.467   1.987   2.056  0.4281 -1.0560  1.9335
 7997SOL    HW224738   4.610   1.944   2.079  2.0428  1.9139 -1.5722
 7998SOL     OW24739   2.109   4.844   0.996  0.2701 -0.5352 -0.0594
 7998SOL    HW124740   2.129   4.756   0.966  1.0198  0.3922 -2.4357
 7998SOL    HW224741   2.082   4.832   1.088  0.4815 -3.1794 -0.2703
 7999SOL     OW24742   4.059   6.273   4.092  0.1891  0.0248 -0.1846
 7999SOL    HW124743   3.984   6.324   4.063  0.0602  0.5210  0.9680
 7999SOL    HW224744   4.021   6.199   4.140  0.4267  0.3620  0.5390
 8000SOL     OW24745   0.808   3.107   2.548  0.5019 -0.8983 -0.1838
 8000SOL    HW124746   0.844   3.018   2.540  2.2647 -0.3753  1.2303
 8000SOL    HW224747   0.725   3.095   2.594 -0.6026 -2.0179 -2.3069
 8001SOL     OW24748   3.438   4.605   1.721  0.6386  0.1818 -0.1504
 8001SOL    HW124749   3.490   4.595   1.642 -0.8726 -0.9372 -1.0589
 8001SOL    HW224750   3.479   4.547   1.785  0.8991 -0.1760 -0.6410
 8002SOL     OW24751   2.172   6.226   2.355 -0.2900  0.2939 -0.3279
 8002SOL    HW124752   2.245   6.283   2.378 -1.0480  1.0177  0.3734
 8002SOL    HW224753   2.212   6.150   2.313  0.8075  0.9428 -0.4759
 8003SOL     OW24754   4.241   0.860   4.701  0.2037  0.1973  0.1083
 8003SOL    HW124755   4.190   0.784   4.674  1.1714 -0.5863  0.4028
 8003SOL    HW224756   4.211   0.931   4.645 -0.4637 -0.4861 -0.4170
 8004SOL     OW24757   3.096   1.858   1.166 -0.0740 -0.3646  0.3948
 8004SOL    HW124758   3.096   1.771   1.125  0.0107  0.1960 -0.8468
 8004SOL    HW224759   3.175   1.859   1.220 -0.7062 -1.4755  1.4010
 8005SOL     OW24760   4.987   4.908   1.094  0.1354 -0.1654 -0.5396
 8005SOL    HW124761   5.066   4.961   1.086 -0.3835  0.9416  1.2025
 8005SOL    HW224762   4.921   4.967   1.129 -0.9909 -1.5130 -0.2882
 8006SOL     OW24763   4.917   1.565   3.481 -0.4107 -0.3478  0.4549
 8006SOL    HW124764   4.864   1.539   3.556 -0.7429  0.2456  0.4307
 8006SOL    HW224765   4.859   1.557   3.406 -0.2653 -0.3428  0.3415
 8007SOL     OW24766   4.981   4.667   2.571 -0.0095 -0.0157 -0.3230
 8007SOL    HW124767   4.955   4.581   2.537 -0.0497 -0.0352 -0.2421
 8007SOL    HW224768   5.076   4.669   2.560  0.0777 -0.3469  0.3108
 8008SOL     OW24769   4.905   4.623   6.162  0.3089  0.4459  0.0033
 8008SOL    HW124770   4.847   4.691   6.195  0.2008  1.3045 -1.7759
 8008SOL    HW224771   4.859   4.541   6.177 -1.5954  1.1177 -1.6707
 8009SOL     OW24772   3.670   3.039   5.252 -0.5560 -0.5866 -0.1235
 8009SOL    HW124773   3.651   3.120   5.205  0.8045 -0.6173 -0.7440
 8009SOL    HW224774   3.735   2.994   5.198 -0.3201 -1.4749  0.8755
 8010SOL     OW24775   4.220   5.921   2.697 -0.4664 -0.4042  0.2719
 8010SOL    HW124776   4.211   5.865   2.621  0.0708 -0.8713  0.5438
 8010SOL    HW224777   4.299   5.890   2.741 -0.7942 -0.1897  1.0511
 8011SOL     OW24778   5.008   5.243   2.228 -0.5522 -0.5016  0.2231
 8011SOL    HW124779   4.968   5.186   2.164 -0.4444 -2.8878  2.1380
 8011SOL    HW224780   4.958   5.324   2.223 -1.0607 -0.8945 -2.2176
 8012SOL     OW24781   5.028   0.485   4.275  0.0091  0.3235  0.1630
 8012SOL    HW124782   5.030   0.579   4.253  0.6141 -0.0909 -1.8005
 8012SOL    HW224783   4.936   0.465   4.290 -0.3220  0.9291 -0.9763
 8013SOL     OW24784   1.891   2.070   1.164 -0.2942  0.2934  0.0169
 8013SOL    HW124785   1.950   2.061   1.239 -0.6014 -3.6416 -0.0129
 8013SOL    HW224786   1.946   2.107   1.095  1.8118 -1.7076  0.4845
 8014SOL     OW24787   5.128   5.386   4.406 -0.0763  0.3730  0.1752
 8014SOL    HW124788   5.117   5.295   4.434 -2.6635  0.9370  1.4110
 8014SOL    HW224789   5.124   5.383   4.311  0.1337 -0.8350  0.1921
 8015SOL     OW24790   4.648   2.970   3.133  0.1048 -0.2844  0.2232
 8015SOL    HW124791   4.721   2.954   3.193  1.1235  0.7350 -0.7002
 8015SOL    HW224792   4.689   2.984   3.048 -1.2982 -1.5203 -0.7187
 8016SOL     OW24793   4.065   2.122   3.579  0.6592 -0.0355  0.7197
 8016SOL    HW124794   3.970   2.134   3.577  0.4041 -1.2792  2.7288
 8016SOL    HW224795   4.093   2.171   3.656  1.6347  0.1275  0.2752
 8017SOL     OW24796   5.374   4.427   5.557  0.7016 -1.0018 -0.4060
 8017SOL    HW124797   5.359   4.504   5.612 -0.5233 -0.9746 -0.7353
 8017SOL    HW224798   5.432   4.459   5.487 -0.8076  0.0111 -1.2689
 8018SOL     OW24799   4.666   2.736   1.597 -0.0296  0.0892  0.4393
 8018SOL    HW124800   4.752   2.757   1.563 -0.4022 -0.9756 -1.2728
 8018SOL    HW224801   4.682   2.673   1.668  0.5861 -0.1172  0.1167
 8019SOL     OW24802   5.638   0.062   5.859 -0.0044  0.4496  0.0909
 8019SOL    HW124803   5.568   0.036   5.798 -1.5411  1.9901  1.1045
 8019SOL    HW224804   5.653   0.154   5.840  0.6067  0.5463  0.9989
 8020SOL     OW24805   2.222   3.589   0.487 -0.0245 -0.2759  0.6100
 8020SOL    HW124806   2.272   3.624   0.413 -1.3744 -0.3357 -0.3592
 8020SOL    HW224807   2.158   3.657   0.507  0.5303 -0.1222  1.9636
 8021SOL     OW24808   4.303   0.055   4.788 -0.1967  0.3220 -0.5732
 8021SOL    HW124809   4.368   0.124   4.771 -0.2166  0.2125 -1.0946
 8021SOL    HW224810   4.355  -0.023   4.807 -0.1627 -0.0032 -1.9362
 8022SOL     OW24811   5.977   0.246   3.997 -0.7461  0.3973 -0.2215
 8022SOL    HW124812   5.955   0.153   4.007  1.1524 -0.0153  0.4291
 8022SOL    HW224813   6.060   0.246   3.950  0.3395  1.6641  1.5700
 8023SOL     OW24814   1.421   0.437   4.277 -0.2109  0.7278  0.6765
 8023SOL    HW124815   1.451   0.425   4.188 -2.0601  1.2249 -0.0758
 8023SOL    HW224816   1.383   0.526   4.278 -1.4924  0.2118  1.5270
 8024SOL     OW24817   3.919   0.660   0.719 -0.4476  0.4943 -0.3609
 8024SOL    HW124818   3.885   0.701   0.640 -1.3559  0.4222 -0.0197
 8024SOL    HW224819   3.842   0.651   0.776 -0.1915 -1.2118 -0.2338
 8025SOL     OW24820   5.269   2.243   0.061  0.1146 -0.4707 -0.3389
 8025SOL    HW124821   5.220   2.255  -0.020  0.7178  0.6328 -0.5563
 8025SOL    HW224822   5.226   2.298   0.125 -0.4966 -1.5137  0.1740
 8026SOL     OW24823   2.681   1.424   0.086  0.0721  0.4137 -0.1492
 8026SOL    HW124824   2.600   1.475   0.076 -1.7313 -2.0890  0.6253
 8026SOL    HW224825   2.701   1.430   0.179  0.1417  0.1158 -0.1466
 8027SOL     OW24826   1.861   5.357   1.917  0.0599 -0.1741  0.7052
 8027SOL    HW124827   1.812   5.416   1.859  0.7346  0.4052  0.7116
 8027SOL    HW224828   1.869   5.276   1.867  0.1633  0.1380  0.2063
 8028SOL     OW24829   0.055   6.224   3.313  0.0603 -0.3498  0.0232
 8028SOL    HW124830   0.095   6.139   3.331 -0.9669 -0.9994 -0.6721
 8028SOL    HW224831   0.106   6.286   3.366  2.8059 -0.9138 -1.7498
 8029SOL     OW24832   1.128   4.903   0.337 -0.1553 -0.6943  0.4163
 8029SOL    HW124833   1.096   4.880   0.250  1.2190  0.6834 -0.5033
 8029SOL    HW224834   1.052   4.940   0.382 -0.8667 -1.3736 -0.2084
 8030SOL     OW24835   4.795   0.852   2.933 -0.2593  0.2063 -0.1948
 8030SOL    HW124836   4.769   0.885   2.847 -1.0181  0.8893  0.2887
 8030SOL    HW224837   4.806   0.930   2.986  0.5278 -0.2019  0.2438
 8031SOL     OW24838   1.451   4.209   5.257 -0.0400 -0.5189  0.0003
 8031SOL    HW124839   1.539   4.194   5.223  0.7935 -1.1656  2.2936
 8031SOL    HW224840   1.465   4.247   5.344 -2.0462 -0.0201  0.1496
 8032SOL     OW24841   6.091   3.305   6.067  0.2212  0.0137  0.0629
 8032SOL    HW124842   6.048   3.373   6.118  0.4088 -0.7494  1.2707
 8032SOL    HW224843   6.147   3.352   6.005  0.7063  0.9561  1.1951
 8033SOL     OW24844   4.376   3.280   5.688 -0.8365  0.3917  0.0393
 8033SOL    HW124845   4.376   3.361   5.740  1.4034  0.7311 -0.3949
 8033SOL    HW224846   4.340   3.306   5.604 -0.5264  0.8665  0.0453
 8034SOL     OW24847   4.987   2.806   6.006 -0.0241  0.6653  0.2840
 8034SOL    HW124848   5.037   2.859   6.068  1.4542 -1.0910  0.6968
 8034SOL    HW224849   5.004   2.716   6.033 -2.8342 -0.0643 -0.0741
 8035SOL     OW24850   1.718   4.377   0.180 -0.4323  0.1895  0.1220
 8035SOL    HW124851   1.738   4.284   0.172  0.4137  0.3580  0.2564
 8035SOL    HW224852   1.623   4.381   0.169 -0.3046 -0.5011 -1.6108
 8036SOL     OW24853   5.068   0.466   2.447 -0.0461  0.5035  0.3458
 8036SOL    HW124854   4.995   0.520   2.415  0.8213  1.1726 -0.5759
 8036SOL    HW224855   5.027   0.386   2.479 -1.1026  0.3458 -1.2846
 8037SOL     OW24856   0.583   5.936   3.616 -0.0343 -0.6966  0.1360
 8037SOL    HW124857   0.520   5.995   3.658  0.2369 -1.2559  1.3733
 8037SOL    HW224858   0.651   5.995   3.582 -1.6056 -0.0127 -1.9970
 8038SOL     OW24859   6.200   3.951   2.528  0.3196  0.0479 -0.1491
 8038SOL    HW124860   6.111   3.962   2.497  0.1346  1.5468  0.8062
 8038SOL    HW224861   6.224   3.861   2.504 -1.9424 -0.8862  0.8756
 8039SOL     OW24862   4.149   2.156   1.924 -0.0876  0.1226 -0.2000
 8039SOL    HW124863   4.058   2.137   1.945  0.0137 -2.1090 -1.4657
 8039SOL    HW224864   4.153   2.252   1.921 -2.6103  0.2905 -0.9960
 8040SOL     OW24865   5.137   1.313   5.165 -0.9243 -0.7523  0.1346
 8040SOL    HW124866   5.131   1.224   5.131 -0.5089 -0.3669 -1.0014
 8040SOL    HW224867   5.179   1.363   5.094 -0.9153  0.2884  0.8508
 8041SOL     OW24868   3.283   1.865   1.657 -0.2172  0.8741  0.5480
 8041SOL    HW124869   3.258   1.778   1.685  2.7064 -0.0129  0.7201
 8041SOL    HW224870   3.311   1.909   1.737 -1.0357  1.7771  0.3601
 8042SOL     OW24871   4.428   4.973   4.819  0.3317  0.2083 -0.2228
 8042SOL    HW124872   4.430   5.068   4.833 -0.3005  0.1619  0.2589
 8042SOL    HW224873   4.335   4.951   4.818  0.4773 -0.4370 -0.1013
 8043SOL     OW24874   2.627   5.499   5.178  0.0873 -0.2905  0.0771
 8043SOL    HW124875   2.626   5.468   5.087  1.6891 -0.4704  0.0971
 8043SOL    HW224876   2.545   5.466   5.215 -0.3318 -0.6789 -1.1420
 8044SOL     OW24877   1.928   4.872   4.485 -0.1170 -0.5619 -0.1399
 8044SOL    HW124878   1.953   4.786   4.517  1.8034  0.2730  0.7717
 8044SOL    HW224879   2.010   4.921   4.482 -1.5081  2.4715  3.2570
 8045SOL     OW24880   6.027   5.394   1.033 -0.3764 -0.3709  0.3207
 8045SOL    HW124881   6.003   5.370   0.943  0.3848 -0.3329  0.0972
 8045SOL    HW224882   6.068   5.315   1.068 -0.6065 -0.3616  0.6099
 8046SOL     OW24883   3.008   4.935   3.952 -0.2201 -0.1842  0.2823
 8046SOL    HW124884   3.077   4.873   3.975 -0.4775 -0.8525 -0.6738
 8046SOL    HW224885   2.935   4.911   4.008  0.6750  1.3477  2.2358
 8047SOL     OW24886   3.108   3.565   2.806  0.4099  0.2181  0.4876
 8047SOL    HW124887   3.054   3.486   2.810  0.1570  0.3380 -0.3500
 8047SOL    HW224888   3.112   3.586   2.712  0.9993  0.8366  0.6485
 8048SOL     OW24889   3.339   5.841   2.683  0.2571  0.2391  0.4541
 8048SOL    HW124890   3.377   5.758   2.711 -0.2151 -0.0291  0.3065
 8048SOL    HW224891   3.385   5.907   2.735  0.7515 -0.0985  0.4532
 8049SOL     OW24892   1.894   2.690   1.586 -0.1779  0.0456 -0.1054
 8049SOL    HW124893   1.900   2.754   1.657  0.4917 -1.8207  1.6308
 8049SOL    HW224894   1.828   2.725   1.527 -0.0587  2.1485  0.9299
 8050SOL     OW24895   4.962   1.140   2.800 -0.7207  0.4148 -0.6444
 8050SOL    HW124896   4.887   1.080   2.797 -1.2237  0.6955  2.7378
 8050SOL    HW224897   4.927   1.222   2.766 -1.0417 -0.2143 -1.9223
 8051SOL     OW24898   1.459   4.047   2.382  0.5809 -0.0050  0.6442
 8051SOL    HW124899   1.367   4.074   2.376  0.9436  1.2218  0.3890
 8051SOL    HW224900   1.462   3.990   2.459 -0.2370  0.5944  1.1336
 8052SOL     OW24901   2.510   2.399   5.911 -0.0861 -0.0409 -0.2942
 8052SOL    HW124902   2.603   2.399   5.934 -0.3418 -0.2316  0.7826
 8052SOL    HW224903   2.479   2.313   5.939 -1.1173  0.8935  1.6070
 8053SOL     OW24904   0.138   5.471   0.118  0.4679  0.2718 -0.4910
 8053SOL    HW124905   0.125   5.513   0.203  0.4079  2.4265 -1.5010
 8053SOL    HW224906   0.151   5.378   0.138 -1.8092  0.3389  1.6889
 8054SOL     OW24907   0.451   5.438   5.381  0.3204  0.0804 -0.2481
 8054SOL    HW124908   0.436   5.381   5.456  0.3420  1.1999  0.6415
 8054SOL    HW224909   0.515   5.503   5.413 -1.0525  1.6885 -0.6060
 8055SOL     OW24910   0.156   5.031   0.546  0.5235 -0.0868  0.4426
 8055SOL    HW124911   0.161   5.118   0.586 -2.2809  0.3377  0.1060
 8055SOL    HW224912   0.185   4.971   0.615  1.5547  1.0237  1.0087
 8056SOL     OW24913   4.775   3.194   2.743 -0.4209  0.6158  0.4143
 8056SOL    HW124914   4.789   3.271   2.798 -1.0293  0.0571  1.3853
 8056SOL    HW224915   4.801   3.222   2.655  1.0616  1.3831  1.0576
 8057SOL     OW24916   4.392   2.763   1.588  0.1099  0.1862  0.0189
 8057SOL    HW124917   4.479   2.793   1.613 -0.3718  0.9344  0.8520
 8057SOL    HW224918   4.377   2.685   1.643  0.4799 -0.2866 -0.5453
 8058SOL     OW24919   6.042   1.621   3.865 -0.4719 -0.5733 -0.1814
 8058SOL    HW124920   6.020   1.540   3.911 -1.8520  0.7464  1.6445
 8058SOL    HW224921   5.979   1.685   3.899  0.6701  1.2989 -1.4450
 8059SOL     OW24922   3.403   1.867   1.997  0.3990 -0.2101  0.0138
 8059SOL    HW124923   3.433   1.785   1.958 -0.5599 -0.8025  0.5021
 8059SOL    HW224924   3.480   1.900   2.044  0.6421 -1.1059  0.2755
 8060SOL     OW24925   3.888   5.699   1.612  0.2030  0.3680 -0.2966
 8060SOL    HW124926   3.915   5.790   1.619  0.0658  0.4127 -0.3445
 8060SOL    HW224927   3.920   5.670   1.527  0.0766  0.4301 -0.3663
 8061SOL     OW24928   6.028   0.221   2.358 -0.4844 -0.0590 -0.1428
 8061SOL    HW124929   5.951   0.170   2.335 -1.5400  0.7027  1.5037
 8061SOL    HW224930   6.005   0.263   2.441  2.0919 -0.6342  0.9561
 8062SOL     OW24931   1.177   1.155   1.785  0.1964  0.7445 -0.0972
 8062SOL    HW124932   1.264   1.192   1.769  0.4681  0.8257  1.4717
 8062SOL    HW224933   1.190   1.091   1.854 -0.5762 -1.1331 -1.6065
 8063SOL     OW24934   4.810   2.565   1.787 -0.0920 -0.0219  0.1364
 8063SOL    HW124935   4.820   2.586   1.880  1.3838  0.0133 -0.0052
 8063SOL    HW224936   4.811   2.469   1.783  1.3445 -0.0309  0.0519
 8064SOL     OW24937   1.190   4.439   3.102 -0.4067  0.0854  0.0180
 8064SOL    HW124938   1.260   4.387   3.141  0.5042  1.9808  1.0908
 8064SOL    HW224939   1.117   4.378   3.092  0.2626 -1.1676  2.1175
 8065SOL     OW24940   5.876   1.592   2.866 -1.0422 -0.2408 -0.1242
 8065SOL    HW124941   5.949   1.626   2.918 -1.2199 -2.1251  1.4705
 8065SOL    HW224942   5.816   1.666   2.858 -0.2501  0.5627  0.9974
 8066SOL     OW24943   5.425   4.881   5.755 -0.0710  0.5213  0.3023
 8066SOL    HW124944   5.441   4.892   5.661 -1.5014 -0.9323 -0.1572
 8066SOL    HW224945   5.508   4.906   5.796  1.1245 -0.3397 -1.4599
 8067SOL     OW24946   0.509   6.289   4.424  0.1503  0.3088  0.0772
 8067SOL    HW124947   0.550   6.205   4.403  0.3339  0.5758 -0.6668
 8067SOL    HW224948   0.553   6.352   4.366 -0.5722  0.7734  0.0257
 8068SOL     OW24949   1.968   4.002   1.944 -0.3427 -0.5960 -0.1374
 8068SOL    HW124950   2.009   3.996   1.858  1.4235 -0.6109  0.6709
 8068SOL    HW224951   1.912   4.080   1.939 -1.1943 -1.2631 -1.6431
 8069SOL     OW24952   4.316   5.696   4.476  0.6594  0.6200  0.1688
 8069SOL    HW124953   4.330   5.719   4.567  1.1711 -2.3710  0.9556
 8069SOL    HW224954   4.403   5.698   4.437  0.4712  1.6597 -0.2397
 8070SOL     OW24955   2.781   0.451   5.380  0.1272  0.0015 -0.2365
 8070SOL    HW124956   2.872   0.444   5.352  0.7827  0.7650  1.5520
 8070SOL    HW224957   2.763   0.367   5.424  0.2131  0.1441  0.0716
 8071SOL     OW24958   0.963   3.121   4.649  0.3867  0.3132  0.1023
 8071SOL    HW124959   1.011   3.175   4.712  1.4336  1.5142 -1.6429
 8071SOL    HW224960   1.031   3.081   4.595 -0.4983 -0.4418 -0.4904
 8072SOL     OW24961   0.821   0.010   3.645  0.0332 -0.5535  0.1459
 8072SOL    HW124962   0.849   0.000   3.554  0.5898  2.0006 -0.0307
 8072SOL    HW224963   0.900   0.032   3.693 -0.5611  0.1034  0.8660
 8073SOL     OW24964   4.767   1.982   1.396  0.1412 -0.2183  0.1253
 8073SOL    HW124965   4.755   1.935   1.314 -1.7784 -1.8009  1.2202
 8073SOL    HW224966   4.735   2.071   1.377  1.3360 -0.0445 -1.2544
 8074SOL     OW24967   0.011   0.299   5.044 -0.3464  0.1510  0.0539
 8074SOL    HW124968   0.033   0.238   5.113 -0.2962  0.7134  0.5446
 8074SOL    HW224969  -0.081   0.281   5.024  0.0388 -1.0191 -0.7859
 8075SOL     OW24970   1.936   4.513   3.815 -0.0909  0.3451  0.4397
 8075SOL    HW124971   1.953   4.420   3.831  0.5604  0.6077  1.3408
 8075SOL    HW224972   1.975   4.530   3.729  1.0106  0.1006  0.8838
 8076SOL     OW24973   0.343   3.890   5.252 -0.2593  0.1248  0.1744
 8076SOL    HW124974   0.438   3.885   5.264 -0.5042 -1.3721  2.0435
 8076SOL    HW224975   0.328   3.849   5.167  0.7357  0.1103 -0.0133
 8077SOL     OW24976   5.409   3.198   4.046  0.0520 -0.0814 -0.5596
 8077SOL    HW124977   5.325   3.243   4.038 -0.4051 -0.7549  0.3806
 8077SOL    HW224978   5.458   3.249   4.110 -0.8649 -1.4585  1.3147
 8078SOL     OW24979   5.562   2.089   4.003 -0.2433 -0.1843  0.1015
 8078SOL    HW124980   5.555   2.100   3.908 -2.0249 -0.2969  0.1861
 8078SOL    HW224981   5.646   2.044   4.016 -0.4027 -1.0126 -1.5040
 8079NA      NA24982   4.058   3.792   1.793 -0.5973 -0.2882  0.3159
 8080NA      NA24983   4.012   0.118   5.479  0.1544  0.6790 -0.0221
 8081NA      NA24984   2.153   3.779   5.536  0.2555  0.1904  0.6618
 8082NA      NA24985   4.287   1.665   4.114 -0.3306 -0.0447 -0.0198
 8083NA      NA24986   3.600   3.774   0.648 -0.3597  0.0341  0.1539
 8084NA      NA24987   5.341   4.423   5.124 -0.0612  0.5275  0.1384
 8085NA      NA24988   1.892   5.329   4.330  0.0505  0.2459  0.0428
 8086NA      NA24989   0.636   4.552   0.594 -0.1314  0.2609  0.3493
 8087NA      NA24990   1.978   0.024   2.702  0.4388  0.1899  0.1321
 8088NA      NA24991   4.687   4.044   0.607  0.5151  0.0688  0.1061
 8089NA      NA24992   5.965   5.415   1.901 -0.5261 -0.4186 -0.1803
 8090NA      NA24993   5.694   0.309   2.054  0.4123 -0.0644 -0.0408
 8091NA      NA24994   5.409   2.696   5.921  0.0193  0.0020 -0.1586
 8092NA      NA24995   0.944   4.236   1.926 -0.4238 -0.0373  0.2141
 8093NA      NA24996   4.313   2.327   4.865  0.3684  0.4706  0.0371
 8094NA      NA24997   2.585   3.974   2.600  0.1225  0.0663 -0.1246
 8095NA      NA24998   4.318   2.985   6.032  0.0463  0.0409 -0.0594
 8096NA      NA24999   0.634   2.872   4.720 -0.7231  0.1987  0.3370
 8097NA      NA25000   2.416   6.025   4.002 -0.7142  0.0588  0.5791
 8098NA      NA25001   2.199   3.258   0.375  0.4551  0.0070 -0.1712
 8099NA      NA25002   2.178   2.227   5.810 -0.2150  0.4324  0.1142
 8100NA      NA25003   1.636   4.497   4.247 -0.3539 -0.0983 -0.1990
 8101NA      NA25004   1.587   0.036   0.520  0.1314  0.4215  0.5018
 8102CL      CL25005   1.863   2.850   3.006 -0.1044 -0.0490 -0.6704
 8103CL      CL25006   3.870   1.832   4.215  0.1240 -0.0437 -0.2049
 8104CL      CL25007   6.284   5.621   2.122 -0.2769  0.0033  0.0553
 8105CL      CL25008   1.632   2.832   5.009 -0.3250  0.3697  0.1138
 8106CL      CL25009   1.188   4.446   2.292 -0.0940 -0.0026 -0.2174
 8107CL      CL25010   5.805   5.367   1.731  0.1616 -0.2757  0.2395
 8108CL      CL25011   0.227   3.095   2.606 -0.3110 -0.2337  0.2867
 8109CL      CL25012   5.570   4.065   1.236  0.1647  0.1011  0.3639
 8110CL      CL25013   4.578   4.329   3.107 -0.2641 -0.1580 -0.0404
 8111CL      CL25014   4.517   1.187   4.383 -0.2077 -0.5509 -0.2331
 8112CL      CL25015   0.097   1.913   1.802 -0.4492  0.0297 -0.1283
 8113CL      CL25016   2.733   3.035   2.242 -0.2968 -0.2615  0.3693
 8114CL      CL25017   1.060   0.151   0.091 -0.3387 -0.2361  0.0659
 8115CL      CL25018   3.026   4.273   5.539  0.1807  0.0541 -0.1703
 8116CL      CL25019   0.467   0.417   0.832 -0.1993 -0.1040 -0.3626
 8117CL      CL25020   2.414   5.320   0.528  0.0350  0.3445  0.1872
 8118CL      CL25021   3.513   4.895   6.252  0.0617 -0.1954  0.0547
 8119CL      CL25022   4.410   1.010   3.978  0.1904 -0.3886 -0.1021
 8120CL      CL25023   1.479   0.175   1.215 -0.3830 -0.4114 -0.2177
 8121CL      CL25024   0.551   1.217   0.413 -0.1068  0.3114  0.1109
 8122CL      CL25025   5.672   4.352   1.705 -0.1367 -0.2651  0.1483
 8123CL      CL25026   2.058   0.624   1.375  0.3086 -0.1667 -0.2239
 8124CL      CL25027   5.923   0.809   1.598  0.2453 -0.3629 -0.3055
 8125CL      CL25028   0.888   3.373   1.298 -0.0242 -0.2491  0.2159
 8126CL      CL25029   4.183   2.837   3.304  0.1118  0.3122 -0.4520
 8127CL      CL25030   2.819   5.049   1.255 -0.1921  0.0353  0.0941
 8128CL      CL25031   1.494   2.433   0.968  0.3131  0.1566  0.0374
 8129CL      CL25032   2.616   3.852   3.061 -0.2389 -0.2356  0.1493
 8130CL      CL25033   6.081   4.776   5.863  0.4023 -0.5111 -0.1318
 8131CL      CL25034   6.224   0.254   0.670 -0.0109  0.1133  0.2762
 8132CL      CL25035   1.693   1.255   1.581 -0.1458  0.6444 -0.2743
 8133CL      CL25036   5.542   5.953   2.933 -0.2622 -0.4238 -0.0630
 8134CL      CL25037   5.957   2.883   1.880  0.0304 -0.4872 -0.1838
 8135CL      CL25038   4.215   1.813   0.715  0.0925  0.1063  0.0401
 8136CL      CL25039   5.893   0.089   3.065  0.4373 -0.3798 -0.1295
 8137CL      CL25040   3.234   0.130   3.299 -0.2323  0.4679  0.4560
 8138CL      CL25041   1.935   1.193   0.445  0.2751 -0.2319  0.0507
 8139CL      CL25042   1.514   2.796   0.052 -0.0885  0.2952 -0.2970
 8140CL      CL25043   0.025   3.558   0.090  0.6665  0.2341  0.2290
 8141CL      CL25044   6.026   2.483   1.148  0.6791  0.1093  0.1995
 8142CL      CL25045   1.264   5.909   3.668  0.0910 -0.0338  0.0938
 8143CL      CL25046   5.720   5.993   4.946 -0.1869 -0.0127  0.2119
 8144CL      CL25047   0.014   1.742   3.499 -0.1865 -0.1856 -0.0815
 8145CL      CL25048   0.369   1.085   1.649 -0.2292 -0.0287 -0.1380
 8146CL      CL25049   5.852   4.532   2.972  0.1931 -0.2003 -0.1336
 8147CL      CL25050   3.115   1.366   5.081  0.0964  0.0301  0.1956
 8148CL      CL25051   3.537   4.073   5.398  0.3650  0.1698 -0.0517
 8149CL      CL25052   4.600   2.944   5.648  0.0122  0.3319 -0.1505
 8150CL      CL25053   1.587   2.052   5.735 -0.3308  0.0576 -0.2423
 8151CL      CL25054   1.311   1.012   3.106 -0.3342  0.0265 -0.0552
 8152CL      CL25055   2.781   3.244   0.731  0.2467 -0.2411 -0.2829
 8153CL      CL25056   1.406   5.731   1.662 -0.4393  0.7456 -0.6044
 8154CL      CL25057   1.156   6.187   3.229  0.0482 -0.1085  0.4029
   6.30207   6.30207   6.30207
